 Entering Gaussian System, Link 0=g16
 Input=scan_290_160.gjf
 Output=scan_290_160.out
 Initial command:
 /home/cwagen/sw/g16/g16/l1.exe "/scratch/users/cwagen/cwagen_scan_290_160/Gau-54943.inp" -scrdir="/scratch/users/cwagen/cwagen_scan_290_160/"
 Entering Link 1 = /home/cwagen/sw/g16/g16/l1.exe PID=     54944.
  
 Copyright (c) 1988,1990,1992,1993,1995,1998,2003,2009,2016,
            Gaussian, Inc.  All Rights Reserved.
  
 This is part of the Gaussian(R) 16 program.  It is based on
 the Gaussian(R) 09 system (copyright 2009, Gaussian, Inc.),
 the Gaussian(R) 03 system (copyright 2003, Gaussian, Inc.),
 the Gaussian(R) 98 system (copyright 1998, Gaussian, Inc.),
 the Gaussian(R) 94 system (copyright 1995, Gaussian, Inc.),
 the Gaussian 92(TM) system (copyright 1992, Gaussian, Inc.),
 the Gaussian 90(TM) system (copyright 1990, Gaussian, Inc.),
 the Gaussian 88(TM) system (copyright 1988, Gaussian, Inc.),
 the Gaussian 86(TM) system (copyright 1986, Carnegie Mellon
 University), and the Gaussian 82(TM) system (copyright 1983,
 Carnegie Mellon University). Gaussian is a federally registered
 trademark of Gaussian, Inc.
  
 This software contains proprietary and confidential information,
 including trade secrets, belonging to Gaussian, Inc.
  
 This software is provided under written license and may be
 used, copied, transmitted, or stored only in accord with that
 written license.
  
 The following legend is applicable only to US Government
 contracts under FAR:
  
                    RESTRICTED RIGHTS LEGEND
  
 Use, reproduction and disclosure by the US Government is
 subject to restrictions as set forth in subparagraphs (a)
 and (c) of the Commercial Computer Software - Restricted
 Rights clause in FAR 52.227-19.
  
 Gaussian, Inc.
 340 Quinnipiac St., Bldg. 40, Wallingford CT 06492
  
  
 ---------------------------------------------------------------
 Warning -- This program may not be used in any manner that
 competes with the business of Gaussian, Inc. or will provide
 assistance to any competitor of Gaussian, Inc.  The licensee
 of this program is prohibited from giving any competitor of
 Gaussian, Inc. access to this program.  By using this program,
 the user acknowledges that Gaussian, Inc. is engaged in the
 business of creating and licensing software in the field of
 computational chemistry and represents and warrants to the
 licensee that it is not a competitor of Gaussian, Inc. and that
 it will not use this program in any manner prohibited above.
 ---------------------------------------------------------------
  

 Cite this work as:
 Gaussian 16, Revision A.03,
 M. J. Frisch, G. W. Trucks, H. B. Schlegel, G. E. Scuseria, 
 M. A. Robb, J. R. Cheeseman, G. Scalmani, V. Barone, 
 G. A. Petersson, H. Nakatsuji, X. Li, M. Caricato, A. V. Marenich, 
 J. Bloino, B. G. Janesko, R. Gomperts, B. Mennucci, H. P. Hratchian, 
 J. V. Ortiz, A. F. Izmaylov, J. L. Sonnenberg, D. Williams-Young, 
 F. Ding, F. Lipparini, F. Egidi, J. Goings, B. Peng, A. Petrone, 
 T. Henderson, D. Ranasinghe, V. G. Zakrzewski, J. Gao, N. Rega, 
 G. Zheng, W. Liang, M. Hada, M. Ehara, K. Toyota, R. Fukuda, 
 J. Hasegawa, M. Ishida, T. Nakajima, Y. Honda, O. Kitao, H. Nakai, 
 T. Vreven, K. Throssell, J. A. Montgomery, Jr., J. E. Peralta, 
 F. Ogliaro, M. J. Bearpark, J. J. Heyd, E. N. Brothers, K. N. Kudin, 
 V. N. Staroverov, T. A. Keith, R. Kobayashi, J. Normand, 
 K. Raghavachari, A. P. Rendell, J. C. Burant, S. S. Iyengar, 
 J. Tomasi, M. Cossi, J. M. Millam, M. Klene, C. Adamo, R. Cammi, 
 J. W. Ochterski, R. L. Martin, K. Morokuma, O. Farkas, 
 J. B. Foresman, and D. J. Fox, Gaussian, Inc., Wallingford CT, 2016.
 
 ******************************************
 Gaussian 16:  AS64L-G16RevA.03 25-Dec-2016
                 8-Jan-2020 
 ******************************************
 %nprocshared=16
 Will use up to   16 processors via shared memory.
 %mem=32GB
 ----------------------------------------------------------------------
 #p opt=modredundant b3lyp/6-31+g(d) scrf=(smd, solvent=tetrahydrofuran
 )
 ----------------------------------------------------------------------
 1/18=120,19=15,26=3,38=1/1,3;
 2/9=110,12=2,17=6,18=5,40=1/2;
 3/5=1,6=6,7=11,11=2,25=1,30=1,70=32201,71=1,72=20,74=-5/1,2,3;
 4//1;
 5/5=2,38=5,53=20/2;
 6/7=2,8=2,9=2,10=2,28=1/1;
 7//1,2,3,16;
 1/18=20,19=15,26=3/3(2);
 2/9=110/2;
 99//99;
 2/9=110/2;
 3/5=1,6=6,7=11,11=2,25=1,30=1,70=32205,71=1,72=20,74=-5/1,2,3;
 4/5=5,16=3,69=1/1;
 5/5=2,38=5,53=20/2;
 7//1,2,3,16;
 1/18=20,19=15,26=3/3(-5);
 2/9=110/2;
 6/7=2,8=2,9=2,10=2,19=2,28=1/1;
 99/9=1/99;
 Leave Link    1 at Wed Jan  8 02:00:47 2020, MaxMem=  4294967296 cpu:               1.6 elap:               0.2
 (Enter /home/cwagen/sw/g16/g16/l101.exe)
 -----
 title
 -----
 Symbolic Z-matrix:
 Charge = -1 Multiplicity = 1
 6                    -0.19426  -0.292    -0.21291 
 8                    -0.25532  -0.66526  -1.45426 
 6                    -0.33095  -1.45422   0.81632 
 1                    -0.18039  -1.13044   1.85373 
 1                    -1.34067  -1.87301   0.71427 
 1                     0.39707  -2.23395   0.57058 
 17                   -1.93061   1.9107    0.52413 
 6                     1.28913   0.22745   0.08662 
 7                     2.4237    0.50774   0.11692 
 
 Add virtual bond connecting atoms Cl7        and C1         Dist= 5.48D+00.
 The following ModRedundant input section has been read:
 B       1       7 F                                                           
 B       1       8 F                                                           
 
 ITRead=  0  0  0  0  0  0  0  0  0
 MicOpt= -1 -1 -1 -1 -1 -1 -1 -1 -1
 NAtoms=      9 NQM=        9 NQMF=       0 NMMI=      0 NMMIF=      0
                NMic=       0 NMicF=      0.
                    Isotopes and Nuclear Properties:
 (Nuclear quadrupole moments (NQMom) in fm**2, nuclear magnetic moments (NMagM)
  in nuclear magnetons)

  Atom         1           2           3           4           5           6           7           8           9
 IAtWgt=          12          16          12           1           1           1          35          12          14
 AtmWgt=  12.0000000  15.9949146  12.0000000   1.0078250   1.0078250   1.0078250  34.9688527  12.0000000  14.0030740
 NucSpn=           0           0           0           1           1           1           3           0           2
 AtZEff=   0.0000000   0.0000000   0.0000000   0.0000000   0.0000000   0.0000000   0.0000000   0.0000000   0.0000000
 NQMom=    0.0000000   0.0000000   0.0000000   0.0000000   0.0000000   0.0000000  -8.1650000   0.0000000   2.0440000
 NMagM=    0.0000000   0.0000000   0.0000000   2.7928460   2.7928460   2.7928460   0.8218740   0.0000000   0.4037610
 AtZNuc=   6.0000000   8.0000000   6.0000000   1.0000000   1.0000000   1.0000000  17.0000000   6.0000000   7.0000000
 Leave Link  101 at Wed Jan  8 02:00:48 2020, MaxMem=  4294967296 cpu:               7.0 elap:               0.7
 (Enter /home/cwagen/sw/g16/g16/l103.exe)

 GradGradGradGradGradGradGradGradGradGradGradGradGradGradGradGradGradGrad
 Berny optimization.
 Initialization pass.
                           ----------------------------
                           !    Initial Parameters    !
                           ! (Angstroms and Degrees)  !
 --------------------------                            --------------------------
 ! Name  Definition              Value          Derivative Info.                !
 --------------------------------------------------------------------------------
 ! R1    R(1,2)                  1.2977         estimate D2E/DX2                !
 ! R2    R(1,3)                  1.5584         estimate D2E/DX2                !
 ! R3    R(1,7)                  2.9            Frozen                          !
 ! R4    R(1,8)                  1.6            Frozen                          !
 ! R5    R(3,4)                  1.0971         estimate D2E/DX2                !
 ! R6    R(3,5)                  1.0979         estimate D2E/DX2                !
 ! R7    R(3,6)                  1.0947         estimate D2E/DX2                !
 ! R8    R(8,9)                  1.1691         estimate D2E/DX2                !
 ! A1    A(2,1,3)              114.4006         estimate D2E/DX2                !
 ! A2    A(2,1,7)              115.6846         estimate D2E/DX2                !
 ! A3    A(2,1,8)              108.426          estimate D2E/DX2                !
 ! A4    A(3,1,7)              110.248          estimate D2E/DX2                !
 ! A5    A(3,1,8)              101.5248         estimate D2E/DX2                !
 ! A6    A(7,1,8)              105.1256         estimate D2E/DX2                !
 ! A7    A(1,3,4)              113.1005         estimate D2E/DX2                !
 ! A8    A(1,3,5)              107.683          estimate D2E/DX2                !
 ! A9    A(1,3,6)              108.9421         estimate D2E/DX2                !
 ! A10   A(4,3,5)              109.0662         estimate D2E/DX2                !
 ! A11   A(4,3,6)              109.3417         estimate D2E/DX2                !
 ! A12   A(5,3,6)              108.6067         estimate D2E/DX2                !
 ! A13   L(1,8,9,6,-1)         177.6054         estimate D2E/DX2                !
 ! A14   L(1,8,9,6,-2)         167.3449         estimate D2E/DX2                !
 ! D1    D(2,1,3,4)            174.4714         estimate D2E/DX2                !
 ! D2    D(2,1,3,5)            -64.9488         estimate D2E/DX2                !
 ! D3    D(2,1,3,6)             52.6633         estimate D2E/DX2                !
 ! D4    D(7,1,3,4)            -53.1046         estimate D2E/DX2                !
 ! D5    D(7,1,3,5)             67.4752         estimate D2E/DX2                !
 ! D6    D(7,1,3,6)           -174.9127         estimate D2E/DX2                !
 ! D7    D(8,1,3,4)             57.938          estimate D2E/DX2                !
 ! D8    D(8,1,3,5)            178.5177         estimate D2E/DX2                !
 ! D9    D(8,1,3,6)            -63.8702         estimate D2E/DX2                !
 --------------------------------------------------------------------------------
 Trust Radius=3.00D-01 FncErr=1.00D-07 GrdErr=1.00D-06 EigMax=2.50D+02 EigMin=1.00D-04
 Number of steps in this run=     41 maximum allowed number of steps=    100.
 GradGradGradGradGradGradGradGradGradGradGradGradGradGradGradGradGradGrad

 Leave Link  103 at Wed Jan  8 02:00:48 2020, MaxMem=  4294967296 cpu:               0.8 elap:               0.1
 (Enter /home/cwagen/sw/g16/g16/l202.exe)
                          Input orientation:                          
 ---------------------------------------------------------------------
 Center     Atomic      Atomic             Coordinates (Angstroms)
 Number     Number       Type             X           Y           Z
 ---------------------------------------------------------------------
      1          6           0       -0.194263   -0.291999   -0.212908
      2          8           0       -0.255321   -0.665256   -1.454255
      3          6           0       -0.330945   -1.454221    0.816316
      4          1           0       -0.180394   -1.130438    1.853734
      5          1           0       -1.340665   -1.873010    0.714272
      6          1           0        0.397068   -2.233949    0.570583
      7         17           0       -1.930607    1.910701    0.524130
      8          6           0        1.289132    0.227446    0.086618
      9          7           0        2.423703    0.507744    0.116921
 ---------------------------------------------------------------------
                    Distance matrix (angstroms):
                    1          2          3          4          5
     1  C    0.000000
     2  O    1.297687   0.000000
     3  C    1.558443   2.404928   0.000000
     4  H    2.230287   3.341377   1.097150   0.000000
     5  H    2.161827   2.709087   1.097876   1.787740   0.000000
     6  H    2.175937   2.643176   1.094698   1.788205   1.780629
     7  Cl   2.900000   3.654606   3.737243   3.752281   3.834143
     8  C    1.600000   2.357232   2.446449   2.669467   3.423696
     9  N    2.757195   3.319894   3.453483   3.532914   4.493916
                    6          7          8          9
     6  H    0.000000
     7  Cl   4.753772   0.000000
     8  C    2.662417   3.659437   0.000000
     9  N    3.439468   4.592833   1.169075   0.000000
 Stoichiometry    C3H3ClNO(1-)
 Framework group  C1[X(C3H3ClNO)]
 Deg. of freedom    21
 Full point group                 C1      NOp   1
 Largest Abelian subgroup         C1      NOp   1
 Largest concise Abelian subgroup C1      NOp   1
                         Standard orientation:                         
 ---------------------------------------------------------------------
 Center     Atomic      Atomic             Coordinates (Angstroms)
 Number     Number       Type             X           Y           Z
 ---------------------------------------------------------------------
      1          6           0       -0.456750   -0.461498    0.210214
      2          8           0       -0.806454   -0.903973    1.378938
      3          6           0       -0.868806   -1.383274   -0.976919
      4          1           0       -0.649502   -0.944933   -1.958500
      5          1           0       -0.316607   -2.326567   -0.873933
      6          1           0       -1.940253   -1.596242   -0.906153
      7         17           0        2.319523    0.333958   -0.053521
      8          6           0       -1.301471    0.860628   -0.103522
      9          7           0       -2.044533    1.761015   -0.165956
 ---------------------------------------------------------------------
 Rotational constants (GHZ):           3.3317901           1.4824691           1.2726671
 Leave Link  202 at Wed Jan  8 02:00:48 2020, MaxMem=  4294967296 cpu:               1.8 elap:               0.2
 (Enter /home/cwagen/sw/g16/g16/l301.exe)
 Standard basis: 6-31+G(d) (6D, 7F)
 Ernie: Thresh=  0.10000D-02 Tol=  0.10000D-05 Strict=F.
 There are   124 symmetry adapted cartesian basis functions of A   symmetry.
 There are   124 symmetry adapted basis functions of A   symmetry.
   124 basis functions,   228 primitive gaussians,   124 cartesian basis functions
    27 alpha electrons       27 beta electrons
       nuclear repulsion energy       227.7242285671 Hartrees.
 IExCor=  402 DFT=T Ex+Corr=B3LYP ExCW=0 ScaHFX=  0.200000
 ScaDFX=  0.800000  0.720000  1.000000  0.810000 ScalE2=  1.000000  1.000000
 IRadAn=      5 IRanWt=     -1 IRanGd=            0 ICorTp=0 IEmpDi=  4
 NAtoms=    9 NActive=    9 NUniq=    9 SFac= 1.00D+00 NAtFMM=   60 NAOKFM=F Big=F
 Integral buffers will be    131072 words long.
 Raffenetti 2 integral format.
 Two-electron integral symmetry is turned on.
 ------------------------------------------------------------------------------
 Polarizable Continuum Model (PCM)
 =================================
 Model                : PCM.
 Atomic radii         : SMD-Coulomb.
 Polarization charges : Total charges.
 Charge compensation  : None.
 Solution method      : On-the-fly selection.
 Cavity type          : VdW (van der Waals Surface) (Alpha=1.000).
 Cavity algorithm     : GePol (No added spheres)
                        Default sphere list used, NSphG=    9.
                        Lebedev-Laikov grids with approx.  5.0 points / Ang**2.
                        Smoothing algorithm: York/Karplus (Gamma=1.0000).
                        Polarization charges: spherical gaussians, with
                                              point-specific exponents (IZeta= 3).
                        Self-potential: point-specific (ISelfS= 7).
                        Self-field    : sphere-specific E.n sum rule (ISelfD= 2).
 1st derivatives      : Analytical E(r).r(x)/FMM algorithm (CHGder, D1EAlg=3).
                        Cavity 1st derivative terms included.
 Solvent              : TetraHydroFuran, Eps=   7.425700 Eps(inf)=   1.974025
 ------------------------------------------------------------------------------
 Spheres list:
 ISph  on   Nord     Re0    Alpha      Xe            Ye            Ze
    1   C      1    1.8500  1.000     -0.456750     -0.461498      0.210214
    2   O      2    2.2940  1.000     -0.806454     -0.903973      1.378938
    3   C      3    1.8500  1.000     -0.868806     -1.383274     -0.976919
    4   H      4    1.2000  1.000     -0.649502     -0.944933     -1.958500
    5   H      5    1.2000  1.000     -0.316607     -2.326567     -0.873933
    6   H      6    1.2000  1.000     -1.940253     -1.596242     -0.906153
    7  Cl      7    2.3800  1.000      2.319523      0.333958     -0.053521
    8   C      8    1.8500  1.000     -1.301471      0.860628     -0.103522
    9   N      9    1.8900  1.000     -2.044533      1.761015     -0.165956
 ------------------------------------------------------------------------------
 GePol: Number of generator spheres                  =       9
 GePol: Total number of spheres                      =       9
 GePol: Number of exposed spheres                    =       9 (100.00%)
 GePol: Number of points                             =    1241
 GePol: Average weight of points                     =       0.14
 GePol: Minimum weight of points                     =   0.33D-09
 GePol: Maximum weight of points                     =    0.18138
 GePol: Number of points with low weight             =      32
 GePol: Fraction of low-weight points (<1% of avg)   =       2.58%
 GePol: Cavity surface area                          =    172.037 Ang**2
 GePol: Cavity volume                                =    153.974 Ang**3
 ------------------------------------------------------------------------------
 Atomic radii for non-electrostatic terms: SMD-CDS.
 ------------------------------------------------------------------------------
 PCM non-electrostatic energy =        -0.0012404389 Hartrees.
 Nuclear repulsion after PCM non-electrostatic terms =      227.7229881282 Hartrees.
 Leave Link  301 at Wed Jan  8 02:00:48 2020, MaxMem=  4294967296 cpu:               2.0 elap:               0.2
 (Enter /home/cwagen/sw/g16/g16/l302.exe)
 NPDir=0 NMtPBC=     1 NCelOv=     1 NCel=       1 NClECP=     1 NCelD=      1
         NCelK=      1 NCelE2=     1 NClLst=     1 CellRange=     0.0.
 One-electron integrals computed using PRISM.
 One-electron integral symmetry used in STVInt
 NBasis=   124 RedAO= T EigKep=  7.15D-05  NBF=   124
 NBsUse=   124 1.00D-06 EigRej= -1.00D+00 NBFU=   124
 Precomputing XC quadrature grid using
 IXCGrd= 4 IRadAn=           5 IRanWt=          -1 IRanGd=           0 AccXCQ= 0.00D+00.
 Generated NRdTot=       0 NPtTot=           0 NUsed=           0 NTot=          32
 NSgBfM=   123   123   123   123   123 MxSgAt=     9 MxSgA2=     9.
 Leave Link  302 at Wed Jan  8 02:00:51 2020, MaxMem=  4294967296 cpu:              31.9 elap:               3.0
 (Enter /home/cwagen/sw/g16/g16/l303.exe)
 DipDrv:  MaxL=1.
 Leave Link  303 at Wed Jan  8 02:00:52 2020, MaxMem=  4294967296 cpu:               3.0 elap:               0.4
 (Enter /home/cwagen/sw/g16/g16/l401.exe)
 ExpMin= 4.38D-02 ExpMax= 2.52D+04 ExpMxC= 3.78D+03 IAcc=3 IRadAn=         5 AccDes= 0.00D+00
 Harris functional with IExCor=  402 and IRadAn=       5 diagonalized for initial guess.
 HarFok:  IExCor=  402 AccDes= 0.00D+00 IRadAn=         5 IDoV= 1 UseB2=F ITyADJ=14
 ICtDFT=  3500011 ScaDFX=  1.000000  1.000000  1.000000  1.000000
 FoFCou: FMM=F IPFlag=           0 FMFlag=      100000 FMFlg1=           0
         NFxFlg=           0 DoJE=T BraDBF=F KetDBF=T FulRan=T
         wScrn=  0.000000 ICntrl=       500 IOpCl=  0 I1Cent=   200000004 NGrid=           0
         NMat0=    1 NMatS0=      1 NMatT0=    0 NMatD0=    1 NMtDS0=    0 NMtDT0=    0
 Petite list used in FoFCou.
 Harris En= -706.373171014182    
 JPrj=0 DoOrth=F DoCkMO=F.
 Leave Link  401 at Wed Jan  8 02:00:54 2020, MaxMem=  4294967296 cpu:              29.6 elap:               2.6
 (Enter /home/cwagen/sw/g16/g16/l502.exe)
 Keep R1 ints in memory in canonical form, NReq=45236517.
 FoFCou: FMM=F IPFlag=           0 FMFlag=           0 FMFlg1=           0
         NFxFlg=           0 DoJE=F BraDBF=F KetDBF=F FulRan=T
         wScrn=  0.000000 ICntrl=       600 IOpCl=  0 I1Cent=           0 NGrid=           0
         NMat0=    1 NMatS0=   7750 NMatT0=    0 NMatD0=    1 NMtDS0=    0 NMtDT0=    0
 Symmetry not used in FoFCou.
 Two-electron integral symmetry not used.
 Closed shell SCF:
 Using DIIS extrapolation, IDIIS=  1040.
 NGot=  4294967296 LenX=  4264898079 LenY=  4264882262
 Requested convergence on RMS density matrix=1.00D-08 within 128 cycles.
 Requested convergence on MAX density matrix=1.00D-06.
 Requested convergence on             energy=1.00D-06.
 No special actions if energy rises.

 Cycle   1  Pass 1  IDiag  1:
 Inv3:  Mode=1 IEnd=     4620243.
 Iteration    1 A*A^-1 deviation from unit magnitude is 4.88D-15 for   1234.
 Iteration    1 A*A^-1 deviation from orthogonality  is 1.82D-15 for   1234   1079.
 Iteration    1 A^-1*A deviation from unit magnitude is 4.88D-15 for   1234.
 Iteration    1 A^-1*A deviation from orthogonality  is 1.37D-15 for   1226    911.
 E= -706.229090266982    
 DIIS: error= 2.48D-02 at cycle   1 NSaved=   1.
 NSaved= 1 IEnMin= 1 EnMin= -706.229090266982     IErMin= 1 ErrMin= 2.48D-02
 ErrMax= 2.48D-02  0.00D+00 EMaxC= 1.00D-01 BMatC= 1.92D-01 BMatP= 1.92D-01
 IDIUse=3 WtCom= 7.52D-01 WtEn= 2.48D-01
 Coeff-Com:  0.100D+01
 Coeff-En:   0.100D+01
 Coeff:      0.100D+01
 Gap=     0.120 Goal=   None    Shift=    0.000
 GapD=    0.120 DampG=1.000 DampE=0.500 DampFc=0.5000 IDamp=-1.
 Damping current iteration by 5.00D-01
 RMSDP=1.33D-02 MaxDP=3.25D-01              OVMax= 3.12D-01

 Cycle   2  Pass 1  IDiag  1:
 E= -706.210147055625     Delta-E=        0.018943211356 Rises=F Damp=T
 DIIS: error= 2.05D-02 at cycle   2 NSaved=   2.
 NSaved= 2 IEnMin= 1 EnMin= -706.229090266982     IErMin= 2 ErrMin= 2.05D-02
 ErrMax= 2.05D-02  0.00D+00 EMaxC= 1.00D-01 BMatC= 8.27D-02 BMatP= 1.92D-01
 IDIUse=3 WtCom= 7.95D-01 WtEn= 2.05D-01
 Coeff-Com:  0.371D+00 0.629D+00
 Coeff-En:   0.538D+00 0.462D+00
 Coeff:      0.405D+00 0.595D+00
 Gap=     0.148 Goal=   None    Shift=    0.000
 RMSDP=4.69D-03 MaxDP=1.51D-01 DE= 1.89D-02 OVMax= 2.41D-01

 Cycle   3  Pass 1  IDiag  1:
 E= -706.362463101337     Delta-E=       -0.152316045711 Rises=F Damp=F
 DIIS: error= 1.17D-02 at cycle   3 NSaved=   3.
 NSaved= 3 IEnMin= 3 EnMin= -706.362463101337     IErMin= 3 ErrMin= 1.17D-02
 ErrMax= 1.17D-02  0.00D+00 EMaxC= 1.00D-01 BMatC= 3.57D-02 BMatP= 8.27D-02
 IDIUse=3 WtCom= 8.83D-01 WtEn= 1.17D-01
 Coeff-Com:  0.156D+00 0.384D+00 0.461D+00
 Coeff-En:   0.000D+00 0.000D+00 0.100D+01
 Coeff:      0.137D+00 0.339D+00 0.524D+00
 Gap=     0.145 Goal=   None    Shift=    0.000
 RMSDP=2.34D-03 MaxDP=5.45D-02 DE=-1.52D-01 OVMax= 7.25D-02

 Cycle   4  Pass 1  IDiag  1:
 E= -706.391317480678     Delta-E=       -0.028854379341 Rises=F Damp=F
 DIIS: error= 5.53D-03 at cycle   4 NSaved=   4.
 NSaved= 4 IEnMin= 4 EnMin= -706.391317480678     IErMin= 4 ErrMin= 5.53D-03
 ErrMax= 5.53D-03  0.00D+00 EMaxC= 1.00D-01 BMatC= 7.41D-03 BMatP= 3.57D-02
 IDIUse=3 WtCom= 9.45D-01 WtEn= 5.53D-02
 Coeff-Com:  0.455D-01 0.945D-01 0.315D+00 0.545D+00
 Coeff-En:   0.000D+00 0.000D+00 0.179D+00 0.821D+00
 Coeff:      0.430D-01 0.893D-01 0.308D+00 0.560D+00
 Gap=     0.130 Goal=   None    Shift=    0.000
 RMSDP=1.25D-03 MaxDP=4.58D-02 DE=-2.89D-02 OVMax= 4.61D-02

 Cycle   5  Pass 1  IDiag  1:
 E= -706.396164695809     Delta-E=       -0.004847215131 Rises=F Damp=F
 DIIS: error= 2.55D-03 at cycle   5 NSaved=   5.
 NSaved= 5 IEnMin= 5 EnMin= -706.396164695809     IErMin= 5 ErrMin= 2.55D-03
 ErrMax= 2.55D-03  0.00D+00 EMaxC= 1.00D-01 BMatC= 1.87D-03 BMatP= 7.41D-03
 IDIUse=3 WtCom= 9.74D-01 WtEn= 2.55D-02
 Coeff-Com:  0.107D-01 0.792D-02 0.158D+00 0.418D+00 0.405D+00
 Coeff-En:   0.000D+00 0.000D+00 0.000D+00 0.223D+00 0.777D+00
 Coeff:      0.105D-01 0.771D-02 0.154D+00 0.413D+00 0.415D+00
 Gap=     0.135 Goal=   None    Shift=    0.000
 RMSDP=5.35D-04 MaxDP=2.13D-02 DE=-4.85D-03 OVMax= 1.59D-02

 Cycle   6  Pass 1  IDiag  1:
 E= -706.397858718187     Delta-E=       -0.001694022379 Rises=F Damp=F
 DIIS: error= 5.44D-04 at cycle   6 NSaved=   6.
 NSaved= 6 IEnMin= 6 EnMin= -706.397858718187     IErMin= 6 ErrMin= 5.44D-04
 ErrMax= 5.44D-04  0.00D+00 EMaxC= 1.00D-01 BMatC= 9.14D-05 BMatP= 1.87D-03
 IDIUse=3 WtCom= 9.95D-01 WtEn= 5.44D-03
 Coeff-Com:  0.274D-02-0.421D-02 0.599D-01 0.176D+00 0.248D+00 0.518D+00
 Coeff-En:   0.000D+00 0.000D+00 0.000D+00 0.000D+00 0.000D+00 0.100D+01
 Coeff:      0.273D-02-0.419D-02 0.596D-01 0.175D+00 0.246D+00 0.521D+00
 Gap=     0.136 Goal=   None    Shift=    0.000
 RMSDP=1.05D-04 MaxDP=3.57D-03 DE=-1.69D-03 OVMax= 2.88D-03

 Cycle   7  Pass 1  IDiag  1:
 E= -706.397935964990     Delta-E=       -0.000077246803 Rises=F Damp=F
 DIIS: error= 1.65D-04 at cycle   7 NSaved=   7.
 NSaved= 7 IEnMin= 7 EnMin= -706.397935964990     IErMin= 7 ErrMin= 1.65D-04
 ErrMax= 1.65D-04  0.00D+00 EMaxC= 1.00D-01 BMatC= 5.25D-06 BMatP= 9.14D-05
 IDIUse=3 WtCom= 9.98D-01 WtEn= 1.65D-03
 Coeff-Com:  0.100D-02-0.301D-02 0.176D-01 0.477D-01 0.937D-01 0.257D+00
 Coeff-Com:  0.586D+00
 Coeff-En:   0.000D+00 0.000D+00 0.000D+00 0.000D+00 0.000D+00 0.000D+00
 Coeff-En:   0.100D+01
 Coeff:      0.100D-02-0.300D-02 0.176D-01 0.476D-01 0.936D-01 0.257D+00
 Coeff:      0.586D+00
 Gap=     0.135 Goal=   None    Shift=    0.000
 RMSDP=6.32D-05 MaxDP=2.96D-03 DE=-7.72D-05 OVMax= 1.63D-03

 Cycle   8  Pass 1  IDiag  1:
 E= -706.397941426585     Delta-E=       -0.000005461594 Rises=F Damp=F
 DIIS: error= 4.25D-05 at cycle   8 NSaved=   8.
 NSaved= 8 IEnMin= 8 EnMin= -706.397941426585     IErMin= 8 ErrMin= 4.25D-05
 ErrMax= 4.25D-05  0.00D+00 EMaxC= 1.00D-01 BMatC= 5.98D-07 BMatP= 5.25D-06
 IDIUse=1 WtCom= 1.00D+00 WtEn= 0.00D+00
 Coeff-Com:  0.250D-03-0.145D-02 0.256D-02 0.419D-02 0.237D-01 0.816D-01
 Coeff-Com:  0.306D+00 0.583D+00
 Coeff:      0.250D-03-0.145D-02 0.256D-02 0.419D-02 0.237D-01 0.816D-01
 Coeff:      0.306D+00 0.583D+00
 Gap=     0.135 Goal=   None    Shift=    0.000
 RMSDP=1.13D-05 MaxDP=3.43D-04 DE=-5.46D-06 OVMax= 4.82D-04

 Cycle   9  Pass 1  IDiag  1:
 E= -706.397942024294     Delta-E=       -0.000000597709 Rises=F Damp=F
 DIIS: error= 1.16D-05 at cycle   9 NSaved=   9.
 NSaved= 9 IEnMin= 9 EnMin= -706.397942024294     IErMin= 9 ErrMin= 1.16D-05
 ErrMax= 1.16D-05  0.00D+00 EMaxC= 1.00D-01 BMatC= 3.40D-08 BMatP= 5.98D-07
 IDIUse=1 WtCom= 1.00D+00 WtEn= 0.00D+00
 Coeff-Com:  0.494D-04-0.203D-03-0.660D-03-0.315D-02-0.714D-03 0.932D-03
 Coeff-Com:  0.206D-01 0.192D+00 0.792D+00
 Coeff:      0.494D-04-0.203D-03-0.660D-03-0.315D-02-0.714D-03 0.932D-03
 Coeff:      0.206D-01 0.192D+00 0.792D+00
 Gap=     0.135 Goal=   None    Shift=    0.000
 RMSDP=3.54D-06 MaxDP=1.08D-04 DE=-5.98D-07 OVMax= 8.96D-05

 Cycle  10  Pass 1  IDiag  1:
 E= -706.397942066418     Delta-E=       -0.000000042124 Rises=F Damp=F
 DIIS: error= 1.84D-06 at cycle  10 NSaved=  10.
 NSaved=10 IEnMin=10 EnMin= -706.397942066418     IErMin=10 ErrMin= 1.84D-06
 ErrMax= 1.84D-06  0.00D+00 EMaxC= 1.00D-01 BMatC= 8.15D-10 BMatP= 3.40D-08
 IDIUse=1 WtCom= 1.00D+00 WtEn= 0.00D+00
 Coeff-Com:  0.648D-05-0.173D-04-0.239D-03-0.858D-03-0.104D-02-0.315D-02
 Coeff-Com: -0.942D-02 0.271D-01 0.237D+00 0.750D+00
 Coeff:      0.648D-05-0.173D-04-0.239D-03-0.858D-03-0.104D-02-0.315D-02
 Coeff:     -0.942D-02 0.271D-01 0.237D+00 0.750D+00
 Gap=     0.135 Goal=   None    Shift=    0.000
 RMSDP=7.62D-07 MaxDP=1.80D-05 DE=-4.21D-08 OVMax= 2.78D-05

 Cycle  11  Pass 1  IDiag  1:
 E= -706.397942067383     Delta-E=       -0.000000000965 Rises=F Damp=F
 DIIS: error= 6.97D-07 at cycle  11 NSaved=  11.
 NSaved=11 IEnMin=11 EnMin= -706.397942067383     IErMin=11 ErrMin= 6.97D-07
 ErrMax= 6.97D-07  0.00D+00 EMaxC= 1.00D-01 BMatC= 1.71D-10 BMatP= 8.15D-10
 IDIUse=1 WtCom= 1.00D+00 WtEn= 0.00D+00
 Coeff-Com:  0.312D-06 0.135D-04-0.700D-04-0.186D-03-0.528D-03-0.181D-02
 Coeff-Com: -0.704D-02-0.406D-02 0.422D-01 0.359D+00 0.612D+00
 Coeff:      0.312D-06 0.135D-04-0.700D-04-0.186D-03-0.528D-03-0.181D-02
 Coeff:     -0.704D-02-0.406D-02 0.422D-01 0.359D+00 0.612D+00
 Gap=     0.135 Goal=   None    Shift=    0.000
 RMSDP=2.23D-07 MaxDP=5.58D-06 DE=-9.65D-10 OVMax= 4.90D-06

 Cycle  12  Pass 1  IDiag  1:
 E= -706.397942067591     Delta-E=       -0.000000000208 Rises=F Damp=F
 DIIS: error= 1.18D-07 at cycle  12 NSaved=  12.
 NSaved=12 IEnMin=12 EnMin= -706.397942067591     IErMin=12 ErrMin= 1.18D-07
 ErrMax= 1.18D-07  0.00D+00 EMaxC= 1.00D-01 BMatC= 3.91D-12 BMatP= 1.71D-10
 IDIUse=1 WtCom= 1.00D+00 WtEn= 0.00D+00
 Coeff-Com: -0.672D-06 0.409D-05 0.705D-06 0.177D-04-0.549D-04-0.229D-03
 Coeff-Com: -0.139D-02-0.282D-02-0.662D-02 0.482D-01 0.163D+00 0.800D+00
 Coeff:     -0.672D-06 0.409D-05 0.705D-06 0.177D-04-0.549D-04-0.229D-03
 Coeff:     -0.139D-02-0.282D-02-0.662D-02 0.482D-01 0.163D+00 0.800D+00
 Gap=     0.135 Goal=   None    Shift=    0.000
 RMSDP=4.86D-08 MaxDP=1.14D-06 DE=-2.08D-10 OVMax= 1.14D-06

 Cycle  13  Pass 1  IDiag  1:
 E= -706.397942067597     Delta-E=       -0.000000000007 Rises=F Damp=F
 DIIS: error= 3.15D-08 at cycle  13 NSaved=  13.
 NSaved=13 IEnMin=13 EnMin= -706.397942067597     IErMin=13 ErrMin= 3.15D-08
 ErrMax= 3.15D-08  0.00D+00 EMaxC= 1.00D-01 BMatC= 3.21D-13 BMatP= 3.91D-12
 IDIUse=1 WtCom= 1.00D+00 WtEn= 0.00D+00
 Coeff-Com: -0.395D-07-0.916D-07 0.280D-05 0.756D-05 0.131D-04 0.310D-04
 Coeff-Com:  0.231D-05-0.164D-03-0.321D-02-0.614D-02-0.258D-02 0.104D+00
 Coeff-Com:  0.908D+00
 Coeff:     -0.395D-07-0.916D-07 0.280D-05 0.756D-05 0.131D-04 0.310D-04
 Coeff:      0.231D-05-0.164D-03-0.321D-02-0.614D-02-0.258D-02 0.104D+00
 Coeff:      0.908D+00
 Gap=     0.135 Goal=   None    Shift=    0.000
 RMSDP=1.28D-08 MaxDP=3.12D-07 DE=-6.82D-12 OVMax= 3.24D-07

 Cycle  14  Pass 1  IDiag  1:
 E= -706.397942067599     Delta-E=       -0.000000000002 Rises=F Damp=F
 DIIS: error= 6.26D-09 at cycle  14 NSaved=  14.
 NSaved=14 IEnMin=14 EnMin= -706.397942067599     IErMin=14 ErrMin= 6.26D-09
 ErrMax= 6.26D-09  0.00D+00 EMaxC= 1.00D-01 BMatC= 6.61D-15 BMatP= 3.21D-13
 IDIUse=1 WtCom= 1.00D+00 WtEn= 0.00D+00
 Coeff-Com:  0.669D-07-0.205D-06 0.644D-06 0.108D-05 0.412D-05 0.105D-04
 Coeff-Com:  0.350D-04 0.561D-04-0.375D-03-0.231D-02-0.474D-02-0.662D-02
 Coeff-Com:  0.162D+00 0.852D+00
 Coeff:      0.669D-07-0.205D-06 0.644D-06 0.108D-05 0.412D-05 0.105D-04
 Coeff:      0.350D-04 0.561D-04-0.375D-03-0.231D-02-0.474D-02-0.662D-02
 Coeff:      0.162D+00 0.852D+00
 Gap=     0.135 Goal=   None    Shift=    0.000
 RMSDP=3.70D-09 MaxDP=1.87D-07 DE=-1.59D-12 OVMax= 8.99D-08

 Error on total polarization charges =  0.02311
 SCF Done:  E(RB3LYP) =  -706.397942068     A.U. after   14 cycles
            NFock= 14  Conv=0.37D-08     -V/T= 2.0061
 KE= 7.021115846482D+02 PE=-2.132929390215D+03 EE= 4.966968753713D+02
 SMD-CDS (non-electrostatic) energy       (kcal/mol) =      -0.78
 (included in total energy above)
 Leave Link  502 at Wed Jan  8 02:01:37 2020, MaxMem=  4294967296 cpu:             525.4 elap:              42.5
 (Enter /home/cwagen/sw/g16/g16/l601.exe)
 Copying SCF densities to generalized density rwf, IOpCl= 0 IROHF=0.

 **********************************************************************

            Population analysis using the SCF density.

 **********************************************************************

 Orbital symmetries:
       Occupied  (A) (A) (A) (A) (A) (A) (A) (A) (A) (A) (A) (A)
                 (A) (A) (A) (A) (A) (A) (A) (A) (A) (A) (A) (A)
                 (A) (A) (A)
       Virtual   (A) (A) (A) (A) (A) (A) (A) (A) (A) (A) (A) (A)
                 (A) (A) (A) (A) (A) (A) (A) (A) (A) (A) (A) (A)
                 (A) (A) (A) (A) (A) (A) (A) (A) (A) (A) (A) (A)
                 (A) (A) (A) (A) (A) (A) (A) (A) (A) (A) (A) (A)
                 (A) (A) (A) (A) (A) (A) (A) (A) (A) (A) (A) (A)
                 (A) (A) (A) (A) (A) (A) (A) (A) (A) (A) (A) (A)
                 (A) (A) (A) (A) (A) (A) (A) (A) (A) (A) (A) (A)
                 (A) (A) (A) (A) (A) (A) (A) (A) (A) (A) (A) (A)
                 (A)
 The electronic state is 1-A.
 Alpha  occ. eigenvalues -- -101.44134 -19.15957 -14.34223 -10.32678 -10.23568
 Alpha  occ. eigenvalues --  -10.18856  -9.35397  -7.11360  -7.11091  -7.11089
 Alpha  occ. eigenvalues --   -1.01679  -0.90102  -0.73943  -0.68843  -0.60934
 Alpha  occ. eigenvalues --   -0.47680  -0.43193  -0.42638  -0.39285  -0.37313
 Alpha  occ. eigenvalues --   -0.35919  -0.33120  -0.32428  -0.26264  -0.23479
 Alpha  occ. eigenvalues --   -0.23039  -0.22997
 Alpha virt. eigenvalues --   -0.09468   0.01927   0.02936   0.03711   0.05147
 Alpha virt. eigenvalues --    0.06051   0.06862   0.08672   0.09429   0.09581
 Alpha virt. eigenvalues --    0.09877   0.10948   0.11474   0.13229   0.13853
 Alpha virt. eigenvalues --    0.14293   0.15098   0.16511   0.17603   0.20613
 Alpha virt. eigenvalues --    0.22932   0.24084   0.24403   0.25749   0.26011
 Alpha virt. eigenvalues --    0.27021   0.29026   0.29758   0.32947   0.34103
 Alpha virt. eigenvalues --    0.35799   0.36839   0.40792   0.60627   0.64888
 Alpha virt. eigenvalues --    0.65109   0.67024   0.67471   0.69221   0.70854
 Alpha virt. eigenvalues --    0.72771   0.75409   0.78374   0.79925   0.80426
 Alpha virt. eigenvalues --    0.85563   0.87992   0.95316   0.96410   0.97468
 Alpha virt. eigenvalues --    0.97895   0.98464   0.98904   0.99104   1.00955
 Alpha virt. eigenvalues --    1.05220   1.11130   1.12533   1.14034   1.21950
 Alpha virt. eigenvalues --    1.27696   1.29388   1.30732   1.33003   1.42839
 Alpha virt. eigenvalues --    1.45321   1.53662   1.55760   1.56955   1.66025
 Alpha virt. eigenvalues --    1.68214   1.73315   1.78116   1.85024   1.89186
 Alpha virt. eigenvalues --    1.93848   1.97307   2.01890   2.04721   2.12387
 Alpha virt. eigenvalues --    2.18300   2.24627   2.30212   2.41043   2.48098
 Alpha virt. eigenvalues --    2.68156   2.72312   2.77247   2.84787   2.98051
 Alpha virt. eigenvalues --    3.18411   4.08385   4.14341   4.30113   4.31688
 Alpha virt. eigenvalues --    4.38719   4.61419
          Condensed to atoms (all electrons):
               1          2          3          4          5          6
     1  C    5.745985   0.551887  -0.006685  -0.089596  -0.092014   0.033259
     2  O    0.551887   8.152746  -0.143390   0.008724   0.003420  -0.014985
     3  C   -0.006685  -0.143390   5.834473   0.376335   0.391108   0.364880
     4  H   -0.089596   0.008724   0.376335   0.468825  -0.019573  -0.029688
     5  H   -0.092014   0.003420   0.391108  -0.019573   0.460009  -0.022473
     6  H    0.033259  -0.014985   0.364880  -0.029688  -0.022473   0.450977
     7  Cl   0.179854  -0.025708  -0.084971   0.003072  -0.000759   0.000435
     8  C   -0.613040  -0.165940  -0.019209   0.038394   0.036118  -0.046201
     9  N   -0.093488  -0.012451   0.014736  -0.001445  -0.000057  -0.000265
               7          8          9
     1  C    0.179854  -0.613040  -0.093488
     2  O   -0.025708  -0.165940  -0.012451
     3  C   -0.084971  -0.019209   0.014736
     4  H    0.003072   0.038394  -0.001445
     5  H   -0.000759   0.036118  -0.000057
     6  H    0.000435  -0.046201  -0.000265
     7  Cl  17.756464  -0.053895  -0.008946
     8  C   -0.053895   5.979430   0.585530
     9  N   -0.008946   0.585530   7.065146
 Mulliken charges:
               1
     1  C    0.383839
     2  O   -0.354303
     3  C   -0.727277
     4  H    0.244952
     5  H    0.244221
     6  H    0.264060
     7  Cl  -0.765546
     8  C    0.258813
     9  N   -0.548759
 Sum of Mulliken charges =  -1.00000
 Mulliken charges with hydrogens summed into heavy atoms:
               1
     1  C    0.383839
     2  O   -0.354303
     3  C    0.025956
     7  Cl  -0.765546
     8  C    0.258813
     9  N   -0.548759
 Electronic spatial extent (au):  <R**2>=            949.5662
 Charge=             -1.0000 electrons
 Dipole moment (field-independent basis, Debye):
    X=             -5.4084    Y=             -4.1982    Z=             -2.7815  Tot=              7.3900
 Quadrupole moment (field-independent basis, Debye-Ang):
   XX=            -73.5461   YY=            -52.9451   ZZ=            -49.4067
   XY=              4.7116   XZ=              2.7444   YZ=              4.4844
 Traceless Quadrupole moment (field-independent basis, Debye-Ang):
   XX=            -14.9135   YY=              5.6875   ZZ=              9.2259
   XY=              4.7116   XZ=              2.7444   YZ=              4.4844
 Octapole moment (field-independent basis, Debye-Ang**2):
  XXX=            -41.0531  YYY=            -23.4864  ZZZ=             -5.0591  XYY=             10.2493
  XXY=            -27.8086  XXZ=              1.5086  XZZ=             -1.3675  YZZ=              0.2918
  YYZ=             -1.5475  XYZ=             -4.6684
 Hexadecapole moment (field-independent basis, Debye-Ang**3):
 XXXX=           -995.1729 YYYY=           -369.0871 ZZZZ=           -187.8490 XXXY=             38.3747
 XXXZ=             -0.5724 YYYX=             35.5735 YYYZ=              7.9950 ZZZX=              3.8907
 ZZZY=              4.8180 XXYY=           -236.1812 XXZZ=           -177.5100 YYZZ=            -92.4375
 XXYZ=              6.9026 YYXZ=             -0.6463 ZZXY=              0.0991
 N-N= 2.277229881282D+02 E-N=-2.132929390134D+03  KE= 7.021115846482D+02
 No NMR shielding tensors so no spin-rotation constants.
 Leave Link  601 at Wed Jan  8 02:01:40 2020, MaxMem=  4294967296 cpu:              15.7 elap:               2.6
 (Enter /home/cwagen/sw/g16/g16/l701.exe)
 ... and contract with generalized density number  0.
 Compute integral first derivatives.
 D1PCM: PCM CHGder 1st derivatives, ID1Alg=3 FixD1E=F DoIter=F DoCFld=F I1PDM=0.
 GePol: Maximum number of non-zero 1st derivatives   =     407
 Leave Link  701 at Wed Jan  8 02:01:46 2020, MaxMem=  4294967296 cpu:              64.3 elap:               6.0
 (Enter /home/cwagen/sw/g16/g16/l702.exe)
 L702 exits ... SP integral derivatives will be done elsewhere.
 Leave Link  702 at Wed Jan  8 02:01:46 2020, MaxMem=  4294967296 cpu:               0.9 elap:               0.1
 (Enter /home/cwagen/sw/g16/g16/l703.exe)
 Integral derivatives from FoFJK, PRISM(SPDF).
 Compute integral first derivatives, UseDBF=F ICtDFT=           0.
 Calling FoFJK, ICntrl=      2127 FMM=F ISym2X=0 I1Cent= 0 IOpClX= 0 NMat=1 NMatS=1 NMatT=0.
 FoFJK:  IHMeth= 1 ICntrl=    2127 DoSepK=F KAlg= 0 I1Cent=           0 FoldK=F
 IRaf=         0 NMat=       1 IRICut=       1 DoRegI=T DoRafI=F ISym2E= 0 IDoP0=0 IntGTp=1.
 FoFCou: FMM=F IPFlag=           0 FMFlag=      100000 FMFlg1=         800
         NFxFlg=           0 DoJE=F BraDBF=F KetDBF=F FulRan=T
         wScrn=  0.000000 ICntrl=      2127 IOpCl=  0 I1Cent=           0 NGrid=           0
         NMat0=    1 NMatS0=      1 NMatT0=    0 NMatD0=    1 NMtDS0=    0 NMtDT0=    0
 Symmetry not used in FoFCou.
 Leave Link  703 at Wed Jan  8 02:01:49 2020, MaxMem=  4294967296 cpu:              34.4 elap:               3.5
 (Enter /home/cwagen/sw/g16/g16/l716.exe)
 Dipole        =-2.12780934D+00-1.65170723D+00-1.09431683D+00
 ***** Axes restored to original set *****
 -------------------------------------------------------------------
 Center     Atomic                   Forces (Hartrees/Bohr)
 Number     Number              X              Y              Z
 -------------------------------------------------------------------
      1        6           0.086533898   -0.080770257   -0.059516249
      2        8          -0.021260309    0.047204099    0.067619451
      3        6          -0.038738265    0.019594464    0.007477460
      4        1          -0.000885553    0.001337521   -0.002721371
      5        1           0.001403713   -0.002880926    0.003021010
      6        1           0.002004107    0.004827541   -0.004557122
      7       17           0.008319444   -0.010207795   -0.001994464
      8        6          -0.026321802    0.025937255   -0.012887584
      9        7          -0.011055232   -0.005041902    0.003558870
 -------------------------------------------------------------------
 Cartesian Forces:  Max     0.086533898 RMS     0.032599754
 Leave Link  716 at Wed Jan  8 02:01:49 2020, MaxMem=  4294967296 cpu:               1.0 elap:               0.1
 (Enter /home/cwagen/sw/g16/g16/l103.exe)

 GradGradGradGradGradGradGradGradGradGradGradGradGradGradGradGradGradGrad
 Berny optimization.
 FormGI is forming the generalized inverse of G from B-inverse, IUseBI=4.
 Internal  Forces:  Max     0.077259698 RMS     0.022295947
 Search for a local minimum.
 Step number   1 out of a maximum of   41
 All quantities printed in internal units (Hartrees-Bohrs-Radians)
 RMS Force = .22255D-01 SwitMx=.10000D-02 MixMth= 1
 Mixed Optimization -- RFO/linear search
 Second derivative matrix not updated -- first step.
 ITU=  0
     Eigenvalues ---    0.00230   0.04746   0.04746   0.05330   0.05908
     Eigenvalues ---    0.07453   0.10176   0.16000   0.16000   0.16000
     Eigenvalues ---    0.25000   0.25000   0.25000   0.26946   0.33918
     Eigenvalues ---    0.33999   0.34275   0.67840   1.220341000.00000
     Eigenvalues --- 1000.000001000.000001000.000001000.000001000.00000
     Eigenvalues --- 1000.000001000.000001000.000001000.000001000.00000
     Eigenvalues --- 1000.00000
 RFO step:  Lambda=-4.84252394D-02 EMin= 2.30000000D-03
 Linear search not attempted -- first point.
 Maximum step size (   0.300) exceeded in Quadratic search.
    -- Step size scaled by   0.811
 Iteration  1 RMS(Cart)=  0.09893116 RMS(Int)=  0.00859737
 Iteration  2 RMS(Cart)=  0.00828549 RMS(Int)=  0.00611523
 Iteration  3 RMS(Cart)=  0.00001618 RMS(Int)=  0.00611520
 Iteration  4 RMS(Cart)=  0.00000029 RMS(Int)=  0.00611520
 Iteration  1 RMS(Cart)=  0.00000000 RMS(Int)=  0.00000000
 ITry= 1 IFail=0 DXMaxC= 2.39D-01 DCOld= 1.00D+10 DXMaxT= 3.00D-01 DXLimC= 3.00D+00 Rises=F
 Variable       Old X    -DE/DX   Delta X   Delta X   Delta X     New X
                                 (Linear)    (Quad)   (Total)
    R1        2.45227  -0.07726   0.00000  -0.08623  -0.08623   2.36604
    R2        2.94503  -0.01164   0.00000  -0.02969  -0.02969   2.91534
    R3        5.48021  -0.01324   0.00000   0.00000   0.00000   5.48021
    R4        3.02356  -0.02952   0.00000   0.00000   0.00000   3.02356
    R5        2.07331  -0.00229   0.00000  -0.00478  -0.00478   2.06853
    R6        2.07468  -0.00047   0.00000  -0.00099  -0.00099   2.07370
    R7        2.06868  -0.00142   0.00000  -0.00294  -0.00294   2.06574
    R8        2.20923  -0.01184   0.00000  -0.00757  -0.00757   2.20166
    A1        1.99667   0.03839   0.00000   0.10973   0.09725   2.09392
    A2        2.01908  -0.02034   0.00000  -0.09334  -0.09035   1.92873
    A3        1.89239  -0.01056   0.00000   0.04906   0.02689   1.91928
    A4        1.92419  -0.02746   0.00000  -0.10883  -0.10396   1.82023
    A5        1.77194   0.04998   0.00000   0.16409   0.15097   1.92291
    A6        1.83479  -0.02579   0.00000  -0.09772  -0.09048   1.74430
    A7        1.97398  -0.00243   0.00000  -0.01025  -0.01055   1.96342
    A8        1.87942   0.00863   0.00000   0.03729   0.03748   1.91690
    A9        1.90140  -0.01030   0.00000  -0.04308  -0.04317   1.85823
   A10        1.90356  -0.00179   0.00000  -0.00154  -0.00159   1.90197
   A11        1.90837   0.00490   0.00000   0.01246   0.01187   1.92024
   A12        1.89554   0.00114   0.00000   0.00601   0.00650   1.90204
   A13        3.09980  -0.00685   0.00000  -0.05791  -0.05791   3.04189
   A14        2.92072   0.00595   0.00000   0.05034   0.05034   2.97106
    D1        3.04510   0.01728   0.00000   0.10886   0.11470  -3.12339
    D2       -1.13357   0.01943   0.00000   0.12605   0.13189  -1.00168
    D3        0.91915   0.02001   0.00000   0.13060   0.13600   1.05515
    D4       -0.92685  -0.00281   0.00000  -0.02776  -0.02622  -0.95307
    D5        1.17766  -0.00066   0.00000  -0.01057  -0.00903   1.16864
    D6       -3.05280  -0.00008   0.00000  -0.00602  -0.00492  -3.05772
    D7        1.01121  -0.01805   0.00000  -0.09921  -0.10615   0.90506
    D8        3.11572  -0.01590   0.00000  -0.08202  -0.08896   3.02676
    D9       -1.11475  -0.01532   0.00000  -0.07746  -0.08485  -1.19959
         Item               Value     Threshold  Converged?
 Maximum Force            0.077260     0.000450     NO 
 RMS     Force            0.022255     0.000300     NO 
 Maximum Displacement     0.239167     0.001800     NO 
 RMS     Displacement     0.096386     0.001200     NO 
 Predicted change in Energy=-2.795838D-02
 Lowest energy point so far.  Saving SCF results.
 GradGradGradGradGradGradGradGradGradGradGradGradGradGradGradGradGradGrad

 Leave Link  103 at Wed Jan  8 02:01:57 2020, MaxMem=  4294967296 cpu:              84.0 elap:               7.8
 (Enter /home/cwagen/sw/g16/g16/l202.exe)
                          Input orientation:                          
 ---------------------------------------------------------------------
 Center     Atomic      Atomic             Coordinates (Angstroms)
 Number     Number       Type             X           Y           Z
 ---------------------------------------------------------------------
      1          6           0       -0.108417   -0.379584   -0.229426
      2          8           0       -0.252591   -0.635034   -1.446636
      3          6           0       -0.373922   -1.474394    0.824573
      4          1           0       -0.228857   -1.114398    1.848071
      5          1           0       -1.399608   -1.850338    0.720575
      6          1           0        0.325797   -2.286584    0.610795
      7         17           0       -1.838204    1.809700    0.561063
      8          6           0        1.321251    0.293344    0.022008
      9          7           0        2.432260    0.634306    0.104388
 ---------------------------------------------------------------------
                    Distance matrix (angstroms):
                    1          2          3          4          5
     1  C    0.000000
     2  O    1.252055   0.000000
     3  C    1.542730   2.424384   0.000000
     4  H    2.206910   3.329482   1.094618   0.000000
     5  H    2.175499   2.736680   1.097352   1.784240   0.000000
     6  H    2.128653   2.700958   1.093143   1.792349   1.783084
     7  Cl   2.900000   3.538608   3.605389   3.577252   3.689673
     8  C    1.600000   2.344308   2.577328   2.778323   3.533617
     9  N    2.755801   3.350422   3.583286   3.630419   4.608292
                    6          7          8          9
     6  H    0.000000
     7  Cl   4.633025   0.000000
     8  C    2.827300   3.545712   0.000000
     9  N    3.636651   4.452748   1.165067   0.000000
 Stoichiometry    C3H3ClNO(1-)
 Framework group  C1[X(C3H3ClNO)]
 Deg. of freedom    21
 Full point group                 C1      NOp   1
 RotChk:  IX=3 Diff= 8.07D-02
 Largest Abelian subgroup         C1      NOp   1
 Largest concise Abelian subgroup C1      NOp   1
                         Standard orientation:                         
 ---------------------------------------------------------------------
 Center     Atomic      Atomic             Coordinates (Angstroms)
 Number     Number       Type             X           Y           Z
 ---------------------------------------------------------------------
      1          6           0       -0.529246   -0.503748    0.215232
      2          8           0       -0.762238   -0.870224    1.389563
      3          6           0       -0.724173   -1.491721   -0.953497
      4          1           0       -0.468716   -1.050342   -1.922061
      5          1           0       -0.105716   -2.384007   -0.793751
      6          1           0       -1.777838   -1.782572   -0.940963
      7         17           0        2.220037    0.381130   -0.046367
      8          6           0       -1.291619    0.869428   -0.090014
      9          7           0       -2.002890    1.779393   -0.243117
 ---------------------------------------------------------------------
 Rotational constants (GHZ):           3.1891435           1.5856718           1.3251222
 Leave Link  202 at Wed Jan  8 02:01:57 2020, MaxMem=  4294967296 cpu:               2.0 elap:               0.3
 (Enter /home/cwagen/sw/g16/g16/l301.exe)
 Standard basis: 6-31+G(d) (6D, 7F)
 Ernie: Thresh=  0.10000D-02 Tol=  0.10000D-05 Strict=F.
 There are   124 symmetry adapted cartesian basis functions of A   symmetry.
 There are   124 symmetry adapted basis functions of A   symmetry.
   124 basis functions,   228 primitive gaussians,   124 cartesian basis functions
    27 alpha electrons       27 beta electrons
       nuclear repulsion energy       229.9854294163 Hartrees.
 IExCor=  402 DFT=T Ex+Corr=B3LYP ExCW=0 ScaHFX=  0.200000
 ScaDFX=  0.800000  0.720000  1.000000  0.810000 ScalE2=  1.000000  1.000000
 IRadAn=      5 IRanWt=     -1 IRanGd=            0 ICorTp=0 IEmpDi=  4
 NAtoms=    9 NActive=    9 NUniq=    9 SFac= 1.00D+00 NAtFMM=   60 NAOKFM=F Big=F
 Integral buffers will be    131072 words long.
 Raffenetti 2 integral format.
 Two-electron integral symmetry is turned on.
 ------------------------------------------------------------------------------
 Polarizable Continuum Model (PCM)
 =================================
 Model                : PCM.
 Atomic radii         : SMD-Coulomb.
 Polarization charges : Total charges.
 Charge compensation  : None.
 Solution method      : On-the-fly selection.
 Cavity type          : VdW (van der Waals Surface) (Alpha=1.000).
 Cavity algorithm     : GePol (No added spheres)
                        Default sphere list used, NSphG=    9.
                        Lebedev-Laikov grids with approx.  5.0 points / Ang**2.
                        Smoothing algorithm: York/Karplus (Gamma=1.0000).
                        Polarization charges: spherical gaussians, with
                                              point-specific exponents (IZeta= 3).
                        Self-potential: point-specific (ISelfS= 7).
                        Self-field    : sphere-specific E.n sum rule (ISelfD= 2).
 1st derivatives      : Analytical E(r).r(x)/FMM algorithm (CHGder, D1EAlg=3).
                        Cavity 1st derivative terms included.
 Solvent              : TetraHydroFuran, Eps=   7.425700 Eps(inf)=   1.974025
 ------------------------------------------------------------------------------
 Spheres list:
 ISph  on   Nord     Re0    Alpha      Xe            Ye            Ze
    1   C      1    1.8500  1.000     -0.529246     -0.503748      0.215232
    2   O      2    2.2940  1.000     -0.762238     -0.870224      1.389563
    3   C      3    1.8500  1.000     -0.724173     -1.491721     -0.953497
    4   H      4    1.2000  1.000     -0.468716     -1.050342     -1.922061
    5   H      5    1.2000  1.000     -0.105716     -2.384007     -0.793751
    6   H      6    1.2000  1.000     -1.777838     -1.782572     -0.940963
    7  Cl      7    2.3800  1.000      2.220037      0.381130     -0.046367
    8   C      8    1.8500  1.000     -1.291619      0.869428     -0.090014
    9   N      9    1.8900  1.000     -2.002890      1.779393     -0.243117
 ------------------------------------------------------------------------------
 GePol: Number of generator spheres                  =       9
 GePol: Total number of spheres                      =       9
 GePol: Number of exposed spheres                    =       9 (100.00%)
 GePol: Number of points                             =    1246
 GePol: Average weight of points                     =       0.14
 GePol: Minimum weight of points                     =   0.68D-10
 GePol: Maximum weight of points                     =    0.18138
 GePol: Number of points with low weight             =      45
 GePol: Fraction of low-weight points (<1% of avg)   =       3.61%
 GePol: Cavity surface area                          =    169.789 Ang**2
 GePol: Cavity volume                                =    152.978 Ang**3
 ------------------------------------------------------------------------------
 Atomic radii for non-electrostatic terms: SMD-CDS.
 ------------------------------------------------------------------------------
 PCM non-electrostatic energy =        -0.0013435258 Hartrees.
 Nuclear repulsion after PCM non-electrostatic terms =      229.9840858905 Hartrees.
 Leave Link  301 at Wed Jan  8 02:01:58 2020, MaxMem=  4294967296 cpu:               2.2 elap:               0.2
 (Enter /home/cwagen/sw/g16/g16/l302.exe)
 NPDir=0 NMtPBC=     1 NCelOv=     1 NCel=       1 NClECP=     1 NCelD=      1
         NCelK=      1 NCelE2=     1 NClLst=     1 CellRange=     0.0.
 One-electron integrals computed using PRISM.
 One-electron integral symmetry used in STVInt
 NBasis=   124 RedAO= T EigKep=  7.05D-05  NBF=   124
 NBsUse=   124 1.00D-06 EigRej= -1.00D+00 NBFU=   124
 Precomputing XC quadrature grid using
 IXCGrd= 4 IRadAn=           5 IRanWt=          -1 IRanGd=           0 AccXCQ= 0.00D+00.
 Generated NRdTot=       0 NPtTot=           0 NUsed=           0 NTot=          32
 NSgBfM=   124   124   124   124   124 MxSgAt=     9 MxSgA2=     9.
 Leave Link  302 at Wed Jan  8 02:02:00 2020, MaxMem=  4294967296 cpu:              29.6 elap:               2.7
 (Enter /home/cwagen/sw/g16/g16/l303.exe)
 DipDrv:  MaxL=1.
 Leave Link  303 at Wed Jan  8 02:02:01 2020, MaxMem=  4294967296 cpu:               3.3 elap:               0.4
 (Enter /home/cwagen/sw/g16/g16/l401.exe)
 Initial guess from the checkpoint file:  "/scratch/users/cwagen/cwagen_scan_290_160/Gau-54944.chk"
 B after Tr=     0.000000    0.000000    0.000000
         Rot=    0.999792    0.015314    0.006576   -0.011798 Ang=   2.34 deg.
 Guess basis will be translated and rotated to current coordinates.
 JPrj=2 DoOrth=T DoCkMO=T.
 Generating alternative initial guess.
 ExpMin= 4.38D-02 ExpMax= 2.52D+04 ExpMxC= 3.78D+03 IAcc=2 IRadAn=         4 AccDes= 0.00D+00
 Harris functional with IExCor=  402 and IRadAn=       4 diagonalized for initial guess.
 HarFok:  IExCor=  402 AccDes= 0.00D+00 IRadAn=         4 IDoV= 1 UseB2=F ITyADJ=14
 ICtDFT=  3500011 ScaDFX=  1.000000  1.000000  1.000000  1.000000
 FoFCou: FMM=F IPFlag=           0 FMFlag=      100000 FMFlg1=           0
         NFxFlg=           0 DoJE=T BraDBF=F KetDBF=T FulRan=T
         wScrn=  0.000000 ICntrl=       500 IOpCl=  0 I1Cent=   200000004 NGrid=           0
         NMat0=    1 NMatS0=      1 NMatT0=    0 NMatD0=    1 NMtDS0=    0 NMtDT0=    0
 Petite list used in FoFCou.
 Harris En= -706.402627725162    
 Leave Link  401 at Wed Jan  8 02:02:06 2020, MaxMem=  4294967296 cpu:              58.6 elap:               5.4
 (Enter /home/cwagen/sw/g16/g16/l502.exe)
 Keep R1 ints in memory in canonical form, NReq=45236517.
 FoFCou: FMM=F IPFlag=           0 FMFlag=           0 FMFlg1=           0
         NFxFlg=           0 DoJE=F BraDBF=F KetDBF=F FulRan=T
         wScrn=  0.000000 ICntrl=       600 IOpCl=  0 I1Cent=           0 NGrid=           0
         NMat0=    1 NMatS0=   7750 NMatT0=    0 NMatD0=    1 NMtDS0=    0 NMtDT0=    0
 Symmetry not used in FoFCou.
 Two-electron integral symmetry not used.
 Closed shell SCF:
 Using DIIS extrapolation, IDIIS=  1040.
 NGot=  4294967296 LenX=  4264898079 LenY=  4264882262
 Requested convergence on RMS density matrix=1.00D-08 within 128 cycles.
 Requested convergence on MAX density matrix=1.00D-06.
 Requested convergence on             energy=1.00D-06.
 No special actions if energy rises.

 Cycle   1  Pass 1  IDiag  1:
 Inv3:  Mode=1 IEnd=     4657548.
 Iteration    1 A*A^-1 deviation from unit magnitude is 3.66D-15 for   1243.
 Iteration    1 A*A^-1 deviation from orthogonality  is 2.00D-15 for   1222   1076.
 Iteration    1 A^-1*A deviation from unit magnitude is 4.55D-15 for   1243.
 Iteration    1 A^-1*A deviation from orthogonality  is 1.80D-15 for   1222   1076.
 E= -706.410019945493    
 DIIS: error= 4.39D-03 at cycle   1 NSaved=   1.
 NSaved= 1 IEnMin= 1 EnMin= -706.410019945493     IErMin= 1 ErrMin= 4.39D-03
 ErrMax= 4.39D-03  0.00D+00 EMaxC= 1.00D-01 BMatC= 9.99D-03 BMatP= 9.99D-03
 IDIUse=3 WtCom= 9.56D-01 WtEn= 4.39D-02
 Coeff-Com:  0.100D+01
 Coeff-En:   0.100D+01
 Coeff:      0.100D+01
 Gap=     0.537 Goal=   None    Shift=    0.000
 GapD=    0.537 DampG=2.000 DampE=1.000 DampFc=2.0000 IDamp=-1.
 RMSDP=2.29D-03 MaxDP=3.66D-02              OVMax= 4.53D-02

 Cycle   2  Pass 1  IDiag  1:
 E= -706.427207946170     Delta-E=       -0.017188000677 Rises=F Damp=F
 DIIS: error= 1.19D-03 at cycle   2 NSaved=   2.
 NSaved= 2 IEnMin= 2 EnMin= -706.427207946170     IErMin= 2 ErrMin= 1.19D-03
 ErrMax= 1.19D-03  0.00D+00 EMaxC= 1.00D-01 BMatC= 4.81D-04 BMatP= 9.99D-03
 IDIUse=3 WtCom= 9.88D-01 WtEn= 1.19D-02
 Coeff-Com:  0.158D-01 0.984D+00
 Coeff-En:   0.000D+00 0.100D+01
 Coeff:      0.156D-01 0.984D+00
 Gap=     0.158 Goal=   None    Shift=    0.000
 RMSDP=5.83D-04 MaxDP=1.06D-02 DE=-1.72D-02 OVMax= 2.10D-02

 Cycle   3  Pass 1  IDiag  1:
 E= -706.426698934319     Delta-E=        0.000509011851 Rises=F Damp=F
 DIIS: error= 2.61D-03 at cycle   3 NSaved=   3.
 NSaved= 3 IEnMin= 2 EnMin= -706.427207946170     IErMin= 2 ErrMin= 1.19D-03
 ErrMax= 2.61D-03  0.00D+00 EMaxC= 1.00D-01 BMatC= 1.19D-03 BMatP= 4.81D-04
 IDIUse=3 WtCom= 1.64D-01 WtEn= 8.36D-01
 Coeff-Com: -0.347D-01 0.642D+00 0.392D+00
 Coeff-En:   0.000D+00 0.659D+00 0.341D+00
 Coeff:     -0.569D-02 0.656D+00 0.349D+00
 Gap=     0.152 Goal=   None    Shift=    0.000
 RMSDP=4.20D-04 MaxDP=1.40D-02 DE= 5.09D-04 OVMax= 1.14D-02

 Cycle   4  Pass 1  IDiag  1:
 E= -706.427713599338     Delta-E=       -0.001014665019 Rises=F Damp=F
 DIIS: error= 6.19D-04 at cycle   4 NSaved=   4.
 NSaved= 4 IEnMin= 4 EnMin= -706.427713599338     IErMin= 4 ErrMin= 6.19D-04
 ErrMax= 6.19D-04  0.00D+00 EMaxC= 1.00D-01 BMatC= 5.34D-05 BMatP= 4.81D-04
 IDIUse=3 WtCom= 9.94D-01 WtEn= 6.19D-03
 Coeff-Com: -0.237D-01 0.273D+00 0.213D+00 0.538D+00
 Coeff-En:   0.000D+00 0.000D+00 0.000D+00 0.100D+01
 Coeff:     -0.236D-01 0.272D+00 0.211D+00 0.541D+00
 Gap=     0.151 Goal=   None    Shift=    0.000
 RMSDP=1.01D-04 MaxDP=2.39D-03 DE=-1.01D-03 OVMax= 2.21D-03

 Cycle   5  Pass 1  IDiag  1:
 E= -706.427756355699     Delta-E=       -0.000042756361 Rises=F Damp=F
 DIIS: error= 1.13D-04 at cycle   5 NSaved=   5.
 NSaved= 5 IEnMin= 5 EnMin= -706.427756355699     IErMin= 5 ErrMin= 1.13D-04
 ErrMax= 1.13D-04  0.00D+00 EMaxC= 1.00D-01 BMatC= 4.99D-06 BMatP= 5.34D-05
 IDIUse=3 WtCom= 9.99D-01 WtEn= 1.13D-03
 Coeff-Com: -0.566D-02 0.531D-01 0.597D-01 0.268D+00 0.625D+00
 Coeff-En:   0.000D+00 0.000D+00 0.000D+00 0.301D-01 0.970D+00
 Coeff:     -0.566D-02 0.530D-01 0.596D-01 0.268D+00 0.625D+00
 Gap=     0.152 Goal=   None    Shift=    0.000
 RMSDP=7.07D-05 MaxDP=3.90D-03 DE=-4.28D-05 OVMax= 1.18D-03

 Cycle   6  Pass 1  IDiag  1:
 E= -706.427761424638     Delta-E=       -0.000005068938 Rises=F Damp=F
 DIIS: error= 4.00D-05 at cycle   6 NSaved=   6.
 NSaved= 6 IEnMin= 6 EnMin= -706.427761424638     IErMin= 6 ErrMin= 4.00D-05
 ErrMax= 4.00D-05  0.00D+00 EMaxC= 1.00D-01 BMatC= 4.21D-07 BMatP= 4.99D-06
 IDIUse=1 WtCom= 1.00D+00 WtEn= 0.00D+00
 Coeff-Com: -0.856D-03 0.123D-03 0.877D-02 0.817D-01 0.301D+00 0.609D+00
 Coeff:     -0.856D-03 0.123D-03 0.877D-02 0.817D-01 0.301D+00 0.609D+00
 Gap=     0.151 Goal=   None    Shift=    0.000
 RMSDP=1.87D-05 MaxDP=1.01D-03 DE=-5.07D-06 OVMax= 2.98D-04

 Cycle   7  Pass 1  IDiag  1:
 E= -706.427761808690     Delta-E=       -0.000000384053 Rises=F Damp=F
 DIIS: error= 1.77D-05 at cycle   7 NSaved=   7.
 NSaved= 7 IEnMin= 7 EnMin= -706.427761808690     IErMin= 7 ErrMin= 1.77D-05
 ErrMax= 1.77D-05  0.00D+00 EMaxC= 1.00D-01 BMatC= 1.04D-07 BMatP= 4.21D-07
 IDIUse=1 WtCom= 1.00D+00 WtEn= 0.00D+00
 Coeff-Com:  0.306D-03-0.808D-02-0.314D-02 0.162D-01 0.120D+00 0.381D+00
 Coeff-Com:  0.494D+00
 Coeff:      0.306D-03-0.808D-02-0.314D-02 0.162D-01 0.120D+00 0.381D+00
 Coeff:      0.494D+00
 Gap=     0.151 Goal=   None    Shift=    0.000
 RMSDP=3.19D-06 MaxDP=7.08D-05 DE=-3.84D-07 OVMax= 1.24D-04

 Cycle   8  Pass 1  IDiag  1:
 E= -706.427761884385     Delta-E=       -0.000000075695 Rises=F Damp=F
 DIIS: error= 8.15D-06 at cycle   8 NSaved=   8.
 NSaved= 8 IEnMin= 8 EnMin= -706.427761884385     IErMin= 8 ErrMin= 8.15D-06
 ErrMax= 8.15D-06  0.00D+00 EMaxC= 1.00D-01 BMatC= 2.17D-08 BMatP= 1.04D-07
 IDIUse=1 WtCom= 1.00D+00 WtEn= 0.00D+00
 Coeff-Com:  0.312D-03-0.556D-02-0.337D-02 0.599D-03 0.442D-01 0.173D+00
 Coeff-Com:  0.349D+00 0.442D+00
 Coeff:      0.312D-03-0.556D-02-0.337D-02 0.599D-03 0.442D-01 0.173D+00
 Coeff:      0.349D+00 0.442D+00
 Gap=     0.152 Goal=   None    Shift=    0.000
 RMSDP=1.56D-06 MaxDP=3.59D-05 DE=-7.57D-08 OVMax= 4.76D-05

 Cycle   9  Pass 1  IDiag  1:
 E= -706.427761904052     Delta-E=       -0.000000019666 Rises=F Damp=F
 DIIS: error= 1.83D-06 at cycle   9 NSaved=   9.
 NSaved= 9 IEnMin= 9 EnMin= -706.427761904052     IErMin= 9 ErrMin= 1.83D-06
 ErrMax= 1.83D-06  0.00D+00 EMaxC= 1.00D-01 BMatC= 7.69D-10 BMatP= 2.17D-08
 IDIUse=1 WtCom= 1.00D+00 WtEn= 0.00D+00
 Coeff-Com:  0.830D-04-0.115D-02-0.112D-02-0.219D-02 0.223D-02 0.125D-01
 Coeff-Com:  0.776D-01 0.188D+00 0.724D+00
 Coeff:      0.830D-04-0.115D-02-0.112D-02-0.219D-02 0.223D-02 0.125D-01
 Coeff:      0.776D-01 0.188D+00 0.724D+00
 Gap=     0.151 Goal=   None    Shift=    0.000
 RMSDP=5.14D-07 MaxDP=1.75D-05 DE=-1.97D-08 OVMax= 1.51D-05

 Cycle  10  Pass 1  IDiag  1:
 E= -706.427761905056     Delta-E=       -0.000000001004 Rises=F Damp=F
 DIIS: error= 4.27D-07 at cycle  10 NSaved=  10.
 NSaved=10 IEnMin=10 EnMin= -706.427761905056     IErMin=10 ErrMin= 4.27D-07
 ErrMax= 4.27D-07  0.00D+00 EMaxC= 1.00D-01 BMatC= 5.32D-11 BMatP= 7.69D-10
 IDIUse=1 WtCom= 1.00D+00 WtEn= 0.00D+00
 Coeff-Com:  0.472D-05 0.887D-04-0.116D-03-0.794D-03-0.274D-02-0.110D-01
 Coeff-Com: -0.414D-02 0.356D-01 0.279D+00 0.704D+00
 Coeff:      0.472D-05 0.887D-04-0.116D-03-0.794D-03-0.274D-02-0.110D-01
 Coeff:     -0.414D-02 0.356D-01 0.279D+00 0.704D+00
 Gap=     0.151 Goal=   None    Shift=    0.000
 RMSDP=1.60D-07 MaxDP=6.46D-06 DE=-1.00D-09 OVMax= 4.64D-06

 Cycle  11  Pass 1  IDiag  1:
 E= -706.427761905130     Delta-E=       -0.000000000074 Rises=F Damp=F
 DIIS: error= 8.70D-08 at cycle  11 NSaved=  11.
 NSaved=11 IEnMin=11 EnMin= -706.427761905130     IErMin=11 ErrMin= 8.70D-08
 ErrMax= 8.70D-08  0.00D+00 EMaxC= 1.00D-01 BMatC= 1.71D-12 BMatP= 5.32D-11
 IDIUse=1 WtCom= 1.00D+00 WtEn= 0.00D+00
 Coeff-Com: -0.397D-05 0.953D-04 0.509D-04-0.702D-04-0.815D-03-0.331D-02
 Coeff-Com: -0.660D-02-0.273D-02 0.202D-01 0.149D+00 0.844D+00
 Coeff:     -0.397D-05 0.953D-04 0.509D-04-0.702D-04-0.815D-03-0.331D-02
 Coeff:     -0.660D-02-0.273D-02 0.202D-01 0.149D+00 0.844D+00
 Gap=     0.151 Goal=   None    Shift=    0.000
 RMSDP=5.33D-08 MaxDP=2.84D-06 DE=-7.39D-11 OVMax= 1.97D-06

 Cycle  12  Pass 1  IDiag  1:
 E= -706.427761905133     Delta-E=       -0.000000000003 Rises=F Damp=F
 DIIS: error= 1.81D-08 at cycle  12 NSaved=  12.
 NSaved=12 IEnMin=12 EnMin= -706.427761905133     IErMin=12 ErrMin= 1.81D-08
 ErrMax= 1.81D-08  0.00D+00 EMaxC= 1.00D-01 BMatC= 7.96D-14 BMatP= 1.71D-12
 IDIUse=1 WtCom= 1.00D+00 WtEn= 0.00D+00
 Coeff-Com: -0.407D-06-0.356D-05 0.957D-05 0.406D-04 0.143D-03 0.635D-03
 Coeff-Com: -0.967D-04-0.217D-02-0.161D-01-0.442D-01 0.572D-01 0.100D+01
 Coeff:     -0.407D-06-0.356D-05 0.957D-05 0.406D-04 0.143D-03 0.635D-03
 Coeff:     -0.967D-04-0.217D-02-0.161D-01-0.442D-01 0.572D-01 0.100D+01
 Gap=     0.151 Goal=   None    Shift=    0.000
 RMSDP=1.69D-08 MaxDP=7.14D-07 DE=-3.30D-12 OVMax= 7.10D-07

 Cycle  13  Pass 1  IDiag  1:
 E= -706.427761905135     Delta-E=       -0.000000000002 Rises=F Damp=F
 DIIS: error= 4.06D-09 at cycle  13 NSaved=  13.
 NSaved=13 IEnMin=13 EnMin= -706.427761905135     IErMin=13 ErrMin= 4.06D-09
 ErrMax= 4.06D-09  0.00D+00 EMaxC= 1.00D-01 BMatC= 4.78D-15 BMatP= 7.96D-14
 IDIUse=1 WtCom= 1.00D+00 WtEn= 0.00D+00
 Coeff-Com:  0.851D-07-0.417D-05-0.121D-05 0.114D-04 0.576D-04 0.230D-03
 Coeff-Com:  0.276D-03-0.252D-03-0.353D-02-0.141D-01-0.283D-01 0.149D+00
 Coeff-Com:  0.897D+00
 Coeff:      0.851D-07-0.417D-05-0.121D-05 0.114D-04 0.576D-04 0.230D-03
 Coeff:      0.276D-03-0.252D-03-0.353D-02-0.141D-01-0.283D-01 0.149D+00
 Coeff:      0.897D+00
 Gap=     0.151 Goal=   None    Shift=    0.000
 RMSDP=3.28D-09 MaxDP=1.75D-07 DE=-1.71D-12 OVMax= 1.14D-07

 Error on total polarization charges =  0.02363
 SCF Done:  E(RB3LYP) =  -706.427761905     A.U. after   13 cycles
            NFock= 13  Conv=0.33D-08     -V/T= 2.0060
 KE= 7.022383140405D+02 PE=-2.137642041713D+03 EE= 4.989918798773D+02
 SMD-CDS (non-electrostatic) energy       (kcal/mol) =      -0.84
 (included in total energy above)
 Leave Link  502 at Wed Jan  8 02:02:53 2020, MaxMem=  4294967296 cpu:             531.1 elap:              46.9
 (Enter /home/cwagen/sw/g16/g16/l701.exe)
 ... and contract with generalized density number  0.
 Compute integral first derivatives.
 D1PCM: PCM CHGder 1st derivatives, ID1Alg=3 FixD1E=F DoIter=F DoCFld=F I1PDM=0.
 GePol: Maximum number of non-zero 1st derivatives   =     399
 Leave Link  701 at Wed Jan  8 02:03:00 2020, MaxMem=  4294967296 cpu:              66.2 elap:               6.7
 (Enter /home/cwagen/sw/g16/g16/l702.exe)
 L702 exits ... SP integral derivatives will be done elsewhere.
 Leave Link  702 at Wed Jan  8 02:03:00 2020, MaxMem=  4294967296 cpu:               0.9 elap:               0.2
 (Enter /home/cwagen/sw/g16/g16/l703.exe)
 Integral derivatives from FoFJK, PRISM(SPDF).
 Compute integral first derivatives, UseDBF=F ICtDFT=           0.
 Calling FoFJK, ICntrl=      2127 FMM=F ISym2X=0 I1Cent= 0 IOpClX= 0 NMat=1 NMatS=1 NMatT=0.
 FoFJK:  IHMeth= 1 ICntrl=    2127 DoSepK=F KAlg= 0 I1Cent=           0 FoldK=F
 IRaf=         0 NMat=       1 IRICut=       1 DoRegI=T DoRafI=F ISym2E= 0 IDoP0=0 IntGTp=1.
 FoFCou: FMM=F IPFlag=           0 FMFlag=      100000 FMFlg1=         800
         NFxFlg=           0 DoJE=F BraDBF=F KetDBF=F FulRan=T
         wScrn=  0.000000 ICntrl=      2127 IOpCl=  0 I1Cent=           0 NGrid=           0
         NMat0=    1 NMatS0=      1 NMatT0=    0 NMatD0=    1 NMtDS0=    0 NMtDT0=    0
 Symmetry not used in FoFCou.
 Leave Link  703 at Wed Jan  8 02:03:04 2020, MaxMem=  4294967296 cpu:              35.0 elap:               3.5
 (Enter /home/cwagen/sw/g16/g16/l716.exe)
 Dipole        =-2.33999874D+00-1.92196607D+00-1.03410911D+00
 ***** Axes restored to original set *****
 -------------------------------------------------------------------
 Center     Atomic                   Forces (Hartrees/Bohr)
 Number     Number              X              Y              Z
 -------------------------------------------------------------------
      1        6           0.063510552   -0.044311036   -0.041534895
      2        8          -0.016217967    0.024132537    0.040603066
      3        6          -0.020074066    0.023247173    0.002389234
      4        1           0.000634344    0.000128761   -0.001338502
      5        1           0.001961326    0.000387718   -0.000546273
      6        1           0.002659195    0.000695807   -0.001579157
      7       17           0.005255669   -0.006236836   -0.000626789
      8        6          -0.033424556    0.002980730    0.002826774
      9        7          -0.004304498   -0.001024853   -0.000193460
 -------------------------------------------------------------------
 Cartesian Forces:  Max     0.063510552 RMS     0.021432482
 Leave Link  716 at Wed Jan  8 02:03:04 2020, MaxMem=  4294967296 cpu:               1.0 elap:               0.1
 (Enter /home/cwagen/sw/g16/g16/l103.exe)

 GradGradGradGradGradGradGradGradGradGradGradGradGradGradGradGradGradGrad
 Berny optimization.
 Using GEDIIS/GDIIS optimizer.
 FormGI is forming the generalized inverse of G from B-inverse, IUseBI=4.
 Internal  Forces:  Max     0.042525184 RMS     0.013159975
 Search for a local minimum.
 Step number   2 out of a maximum of   41
 All quantities printed in internal units (Hartrees-Bohrs-Radians)
 RMS Force = .12105D-01 SwitMx=.10000D-02 MixMth= 1
 Mixed Optimization -- RFO/linear search
 Update second derivatives using D2CorX and points    1    2
 DE= -2.98D-02 DEPred=-2.80D-02 R= 1.07D+00
 TightC=F SS=  1.41D+00  RLast= 3.93D-01 DXNew= 5.0454D-01 1.1781D+00
 Trust test= 1.07D+00 RLast= 3.93D-01 DXMaxT set to 5.05D-01
 ITU=  1  0
 Use linear search instead of GDIIS.
     Eigenvalues ---    0.00230   0.04590   0.04748   0.05392   0.05773
     Eigenvalues ---    0.05977   0.09229   0.15952   0.16000   0.16252
     Eigenvalues ---    0.24290   0.25000   0.25753   0.31291   0.33958
     Eigenvalues ---    0.34001   0.34447   0.59208   1.219681000.00000
     Eigenvalues --- 1000.000001000.000001000.000001000.000001000.00000
     Eigenvalues --- 1000.000001000.000001000.000001000.000001000.00000
     Eigenvalues --- 1000.00000
 RFO step:  Lambda=-1.37539932D-02 EMin= 2.30219730D-03
 Quartic linear search produced a step of  1.10546.
 Iteration  1 RMS(Cart)=  0.14221081 RMS(Int)=  0.02445830
 Iteration  2 RMS(Cart)=  0.02049601 RMS(Int)=  0.01917642
 Iteration  3 RMS(Cart)=  0.00043860 RMS(Int)=  0.01917359
 Iteration  4 RMS(Cart)=  0.00001951 RMS(Int)=  0.01917359
 Iteration  5 RMS(Cart)=  0.00000083 RMS(Int)=  0.01917359
 Iteration  1 RMS(Cart)=  0.00000000 RMS(Int)=  0.00000000
 ITry= 1 IFail=0 DXMaxC= 3.50D-01 DCOld= 1.00D+10 DXMaxT= 5.05D-01 DXLimC= 3.00D+00 Rises=F
 Variable       Old X    -DE/DX   Delta X   Delta X   Delta X     New X
                                 (Linear)    (Quad)   (Total)
    R1        2.36604  -0.04253  -0.09533  -0.02897  -0.12429   2.24175
    R2        2.91534  -0.01553  -0.03282  -0.07767  -0.11050   2.80484
    R3        5.48021  -0.00802   0.00000   0.00000   0.00000   5.48021
    R4        3.02356  -0.03248   0.00000   0.00000   0.00000   3.02356
    R5        2.06853  -0.00111  -0.00529  -0.00064  -0.00593   2.06260
    R6        2.07370  -0.00191  -0.00109  -0.01024  -0.01133   2.06236
    R7        2.06574   0.00148  -0.00325   0.01245   0.00921   2.07495
    R8        2.20166  -0.00442  -0.00837   0.00102  -0.00735   2.19431
    A1        2.09392   0.01739   0.10750   0.04334   0.09780   2.19172
    A2        1.92873  -0.00864  -0.09988  -0.03299  -0.11821   1.81052
    A3        1.91928   0.00082   0.02972   0.14732   0.11489   2.03417
    A4        1.82023  -0.01609  -0.11492  -0.08233  -0.18138   1.63885
    A5        1.92291   0.01100   0.16689  -0.04482   0.06550   1.98841
    A6        1.74430  -0.01094  -0.10003  -0.06501  -0.14830   1.59600
    A7        1.96342  -0.00047  -0.01167   0.00948  -0.00265   1.96077
    A8        1.91690   0.00047   0.04143  -0.04356  -0.00201   1.91490
    A9        1.85823  -0.00379  -0.04772   0.01084  -0.03720   1.82104
   A10        1.90197   0.00090  -0.00176   0.02145   0.01962   1.92159
   A11        1.92024   0.00130   0.01312  -0.00814   0.00401   1.92425
   A12        1.90204   0.00159   0.00718   0.00936   0.01694   1.91898
   A13        3.04189   0.00047  -0.06402   0.13508   0.07106   3.11295
   A14        2.97106   0.00031   0.05565  -0.09234  -0.03669   2.93436
    D1       -3.12339   0.01369   0.12679   0.10173   0.23942  -2.88396
    D2       -1.00168   0.01486   0.14580   0.10472   0.26129  -0.74039
    D3        1.05515   0.01485   0.15034   0.09907   0.25967   1.31481
    D4       -0.95307   0.00019  -0.02898   0.01575  -0.01174  -0.96481
    D5        1.16864   0.00136  -0.00998   0.01874   0.01013   1.17877
    D6       -3.05772   0.00135  -0.00544   0.01309   0.00851  -3.04921
    D7        0.90506  -0.01542  -0.11734  -0.11218  -0.24115   0.66391
    D8        3.02676  -0.01425  -0.09834  -0.10919  -0.21928   2.80748
    D9       -1.19959  -0.01426  -0.09380  -0.11484  -0.22091  -1.42050
         Item               Value     Threshold  Converged?
 Maximum Force            0.042525     0.000450     NO 
 RMS     Force            0.012105     0.000300     NO 
 Maximum Displacement     0.350327     0.001800     NO 
 RMS     Displacement     0.149713     0.001200     NO 
 Predicted change in Energy=-2.321197D-02
 Lowest energy point so far.  Saving SCF results.
 GradGradGradGradGradGradGradGradGradGradGradGradGradGradGradGradGradGrad

 Leave Link  103 at Wed Jan  8 02:03:14 2020, MaxMem=  4294967296 cpu:             106.4 elap:              10.0
 (Enter /home/cwagen/sw/g16/g16/l202.exe)
                          Input orientation:                          
 ---------------------------------------------------------------------
 Center     Atomic      Atomic             Coordinates (Angstroms)
 Number     Number       Type             X           Y           Z
 ---------------------------------------------------------------------
      1          6           0        0.004261   -0.539968   -0.289869
      2          8           0       -0.292710   -0.654166   -1.432688
      3          6           0       -0.401056   -1.458187    0.803571
      4          1           0       -0.234117   -1.025838    1.791769
      5          1           0       -1.451423   -1.730021    0.685707
      6          1           0        0.233014   -2.343703    0.664089
      7         17           0       -1.674799    1.632219    0.644135
      8          6           0        1.331280    0.296992    0.024005
      9          7           0        2.363259    0.819691    0.124693
 ---------------------------------------------------------------------
                    Distance matrix (angstroms):
                    1          2          3          4          5
     1  C    0.000000
     2  O    1.186283   0.000000
     3  C    1.484257   2.378874   0.000000
     4  H    2.150839   3.246335   1.091480   0.000000
     5  H    2.118251   2.643421   1.091356   1.789157   0.000000
     6  H    2.053247   2.743610   1.098015   1.796285   1.792875
     7  Cl   2.900000   3.383920   3.346409   3.233867   3.369908
     8  C    1.600000   2.379916   2.586380   2.706536   3.505719
     9  N    2.754162   3.413482   3.645688   3.596037   4.622506
                    6          7          8          9
     6  H    0.000000
     7  Cl   4.410000   0.000000
     8  C    2.930728   3.347223   0.000000
     9  N    3.851747   4.151618   1.161177   0.000000
 Stoichiometry    C3H3ClNO(1-)
 Framework group  C1[X(C3H3ClNO)]
 Deg. of freedom    21
 Full point group                 C1      NOp   1
 RotChk:  IX=0 Diff= 1.20D-01
 Largest Abelian subgroup         C1      NOp   1
 Largest concise Abelian subgroup C1      NOp   1
                         Standard orientation:                         
 ---------------------------------------------------------------------
 Center     Atomic      Atomic             Coordinates (Angstroms)
 Number     Number       Type             X           Y           Z
 ---------------------------------------------------------------------
      1          6           0       -0.650269   -0.601141    0.206451
      2          8           0       -0.718217   -0.988273    1.325728
      3          6           0       -0.524093   -1.459359   -0.997941
      4          1           0       -0.223157   -0.893169   -1.881228
      5          1           0        0.190415   -2.261482   -0.805235
      6          1           0       -1.528945   -1.878739   -1.139467
      7         17           0        2.051989    0.430434   -0.002483
      8          6           0       -1.268363    0.844790   -0.088918
      9          7           0       -1.845722    1.845207   -0.207891
 ---------------------------------------------------------------------
 Rotational constants (GHZ):           3.0801074           1.8086920           1.4391658
 Leave Link  202 at Wed Jan  8 02:03:14 2020, MaxMem=  4294967296 cpu:               1.8 elap:               0.2
 (Enter /home/cwagen/sw/g16/g16/l301.exe)
 Standard basis: 6-31+G(d) (6D, 7F)
 Ernie: Thresh=  0.10000D-02 Tol=  0.10000D-05 Strict=F.
 There are   124 symmetry adapted cartesian basis functions of A   symmetry.
 There are   124 symmetry adapted basis functions of A   symmetry.
   124 basis functions,   228 primitive gaussians,   124 cartesian basis functions
    27 alpha electrons       27 beta electrons
       nuclear repulsion energy       236.1726794267 Hartrees.
 IExCor=  402 DFT=T Ex+Corr=B3LYP ExCW=0 ScaHFX=  0.200000
 ScaDFX=  0.800000  0.720000  1.000000  0.810000 ScalE2=  1.000000  1.000000
 IRadAn=      5 IRanWt=     -1 IRanGd=            0 ICorTp=0 IEmpDi=  4
 NAtoms=    9 NActive=    9 NUniq=    9 SFac= 1.00D+00 NAtFMM=   60 NAOKFM=F Big=F
 Integral buffers will be    131072 words long.
 Raffenetti 2 integral format.
 Two-electron integral symmetry is turned on.
 ------------------------------------------------------------------------------
 Polarizable Continuum Model (PCM)
 =================================
 Model                : PCM.
 Atomic radii         : SMD-Coulomb.
 Polarization charges : Total charges.
 Charge compensation  : None.
 Solution method      : On-the-fly selection.
 Cavity type          : VdW (van der Waals Surface) (Alpha=1.000).
 Cavity algorithm     : GePol (No added spheres)
                        Default sphere list used, NSphG=    9.
                        Lebedev-Laikov grids with approx.  5.0 points / Ang**2.
                        Smoothing algorithm: York/Karplus (Gamma=1.0000).
                        Polarization charges: spherical gaussians, with
                                              point-specific exponents (IZeta= 3).
                        Self-potential: point-specific (ISelfS= 7).
                        Self-field    : sphere-specific E.n sum rule (ISelfD= 2).
 1st derivatives      : Analytical E(r).r(x)/FMM algorithm (CHGder, D1EAlg=3).
                        Cavity 1st derivative terms included.
 Solvent              : TetraHydroFuran, Eps=   7.425700 Eps(inf)=   1.974025
 ------------------------------------------------------------------------------
 Spheres list:
 ISph  on   Nord     Re0    Alpha      Xe            Ye            Ze
    1   C      1    1.8500  1.000     -0.650269     -0.601141      0.206451
    2   O      2    2.2940  1.000     -0.718217     -0.988273      1.325728
    3   C      3    1.8500  1.000     -0.524093     -1.459359     -0.997941
    4   H      4    1.2000  1.000     -0.223157     -0.893169     -1.881228
    5   H      5    1.2000  1.000      0.190415     -2.261482     -0.805235
    6   H      6    1.2000  1.000     -1.528945     -1.878739     -1.139467
    7  Cl      7    2.3800  1.000      2.051989      0.430434     -0.002483
    8   C      8    1.8500  1.000     -1.268363      0.844790     -0.088918
    9   N      9    1.8900  1.000     -1.845722      1.845207     -0.207891
 ------------------------------------------------------------------------------
 GePol: Number of generator spheres                  =       9
 GePol: Total number of spheres                      =       9
 GePol: Number of exposed spheres                    =       9 (100.00%)
 GePol: Number of points                             =    1214
 GePol: Average weight of points                     =       0.14
 GePol: Minimum weight of points                     =   0.65D-11
 GePol: Maximum weight of points                     =    0.18138
 GePol: Number of points with low weight             =      33
 GePol: Fraction of low-weight points (<1% of avg)   =       2.72%
 GePol: Cavity surface area                          =    165.157 Ang**2
 GePol: Cavity volume                                =    150.405 Ang**3
 ------------------------------------------------------------------------------
 Atomic radii for non-electrostatic terms: SMD-CDS.
 ------------------------------------------------------------------------------
 PCM non-electrostatic energy =        -0.0013812433 Hartrees.
[...]
 InvSVX:  RCond= 2.14D-07 Info=           0 Equed=N FErr=  1.45D-14 BErr=  5.74D-17
 RFO-DIIS uses    4 points instead of   10
 EnCoef did   100 forward-backward iterations
 IWarn =    2
 Energies =   -706.449968418      -706.449978362      -706.450002919      -706.450006816      -706.450014079    
 Energies =   -706.450011959      -706.450013204      -706.450013074      -706.450014034      -706.450013611    
 Point number   1 has energy  -0.7064499684D+03 and has been removed
 EnCoef did   100 forward-backward iterations
 IWarn =    2
 Energies =   -706.449978362      -706.450002919      -706.450006816      -706.450014079      -706.450011959    
 Energies =   -706.450013204      -706.450013074      -706.450014034      -706.450013611    
 Point number   1 has energy  -0.7064499784D+03 and has been removed
 EnCoef did   100 forward-backward iterations
 IWarn =    2
 Energies =   -706.450002919      -706.450006816      -706.450014079      -706.450011959      -706.450013204    
 Energies =   -706.450013074      -706.450014034      -706.450013611    
 Point number   1 has energy  -0.7064500029D+03 and has been removed
 EnCoef did   100 forward-backward iterations
 IWarn =    2
 Energies =   -706.450006816      -706.450014079      -706.450011959      -706.450013204      -706.450013074    
 Energies =   -706.450014034      -706.450013611    
 Point number   1 has energy  -0.7064500068D+03 and has been removed
 EnCoef did   100 forward-backward iterations
 IWarn =    2
 Energies =   -706.450014079      -706.450011959      -706.450013204      -706.450013074      -706.450014034    
 Energies =   -706.450013611    
 Point number   2 has energy  -0.7064500120D+03 and has been removed
 EnCoef did   100 forward-backward iterations
 IWarn =    2
 Energies =   -706.450014079      -706.450013204      -706.450013074      -706.450014034      -706.450013611    
 Point number   3 has energy  -0.7064500131D+03 and has been removed
 EnCoef did   100 forward-backward iterations
 IWarn =    2
 Energies =   -706.450014079      -706.450013204      -706.450014034      -706.450013611    
 Point number   2 has energy  -0.7064500132D+03 and has been removed
 EnCoef did   100 forward-backward iterations
 IWarn =    2
 Energies =   -706.450014079      -706.450014034      -706.450013611    
 Point number   2 has energy  -0.7064500140D+03 and has been removed
 IWarn =    0
 DidBck=T Rises=T En-DIIS coefs:    0.43959    0.00000    0.00000    0.00000    0.00000
                  En-DIIS coefs:    0.56041    0.00000    0.00000    0.00000    0.00000
 Iteration  1 RMS(Cart)=  0.00025964 RMS(Int)=  0.00000038
 Iteration  2 RMS(Cart)=  0.00000003 RMS(Int)=  0.00000038
 Iteration  1 RMS(Cart)=  0.00000000 RMS(Int)=  0.00000000
 ITry= 1 IFail=0 DXMaxC= 7.84D-04 DCOld= 1.00D+10 DXMaxT= 1.31D-01 DXLimC= 3.00D+00 Rises=F
 Variable       Old X    -DE/DX   Delta X   Delta X   Delta X     New X
                                 (Linear)    (Quad)   (Total)
    R1        2.28208   0.00000  -0.00005   0.00005   0.00000   2.28208
    R2        2.82885   0.00001   0.00006  -0.00002   0.00003   2.82889
    R3        5.48021   0.00302   0.00000   0.00000   0.00000   5.48021
    R4        3.02356  -0.03322   0.00000   0.00000   0.00000   3.02356
    R5        2.06061   0.00000   0.00005  -0.00006   0.00000   2.06061
    R6        2.06519   0.00000   0.00000  -0.00001  -0.00001   2.06518
    R7        2.08007   0.00000  -0.00005   0.00005   0.00000   2.08007
    R8        2.19825   0.00000   0.00001  -0.00001   0.00000   2.19825
    A1        2.21902   0.00001   0.00035  -0.00029   0.00006   2.21908
    A2        1.83389   0.00002  -0.00059   0.00093   0.00035   1.83423
    A3        2.04795   0.00002   0.00053  -0.00051   0.00001   2.04796
    A4        1.58823  -0.00002   0.00179  -0.00213  -0.00034   1.58789
    A5        1.99232  -0.00003  -0.00079   0.00071  -0.00008   1.99224
    A6        1.46788   0.00001  -0.00192   0.00194   0.00002   1.46790
    A7        1.95133   0.00000  -0.00046   0.00040  -0.00006   1.95127
    A8        1.91360   0.00001   0.00014  -0.00009   0.00004   1.91365
    A9        1.87042  -0.00001   0.00021  -0.00026  -0.00005   1.87037
   A10        1.92786   0.00000   0.00000  -0.00003  -0.00003   1.92783
   A11        1.89893   0.00000  -0.00020   0.00024   0.00004   1.89897
   A12        1.90013   0.00000   0.00034  -0.00028   0.00006   1.90020
   A13        3.09438   0.00000   0.00002   0.00004   0.00006   3.09444
   A14        2.96129   0.00001   0.00171  -0.00158   0.00013   2.96142
    D1       -2.70824   0.00000   0.00647  -0.00652  -0.00005  -2.70829
    D2       -0.56406   0.00000   0.00625  -0.00635  -0.00010  -0.56416
    D3        1.49564   0.00000   0.00685  -0.00688  -0.00002   1.49562
    D4       -0.79107   0.00000   0.00727  -0.00713   0.00014  -0.79093
    D5        1.35312   0.00000   0.00705  -0.00696   0.00009   1.35320
    D6       -2.87037   0.00000   0.00765  -0.00749   0.00016  -2.87021
    D7        0.67474   0.00000   0.00599  -0.00598   0.00001   0.67476
    D8        2.81893   0.00000   0.00577  -0.00581  -0.00004   2.81889
    D9       -1.40456   0.00000   0.00637  -0.00634   0.00003  -1.40452
         Item               Value     Threshold  Converged?
 Maximum Force            0.000030     0.000450     YES
 RMS     Force            0.000009     0.000300     YES
 Maximum Displacement     0.000784     0.001800     YES
 RMS     Displacement     0.000260     0.001200     YES
 Predicted change in Energy=-1.043638D-08
 Optimization completed.
    -- Stationary point found.
                           ----------------------------
                           !   Optimized Parameters   !
                           ! (Angstroms and Degrees)  !
 --------------------------                            --------------------------
 ! Name  Definition              Value          Derivative Info.                !
 --------------------------------------------------------------------------------
 ! R1    R(1,2)                  1.2076         -DE/DX =    0.0                 !
 ! R2    R(1,3)                  1.497          -DE/DX =    0.0                 !
 ! R3    R(1,7)                  2.9            -DE/DX =    0.003               !
 ! R4    R(1,8)                  1.6            -DE/DX =   -0.0332              !
 ! R5    R(3,4)                  1.0904         -DE/DX =    0.0                 !
 ! R6    R(3,5)                  1.0929         -DE/DX =    0.0                 !
 ! R7    R(3,6)                  1.1007         -DE/DX =    0.0                 !
 ! R8    R(8,9)                  1.1633         -DE/DX =    0.0                 !
 ! A1    A(2,1,3)              127.1407         -DE/DX =    0.0                 !
 ! A2    A(2,1,7)              105.0739         -DE/DX =    0.0                 !
 ! A3    A(2,1,8)              117.3391         -DE/DX =    0.0                 !
 ! A4    A(3,1,7)               90.9988         -DE/DX =    0.0                 !
 ! A5    A(3,1,8)              114.1514         -DE/DX =    0.0                 !
 ! A6    A(7,1,8)               84.1032         -DE/DX =    0.0                 !
 ! A7    A(1,3,4)              111.8029         -DE/DX =    0.0                 !
 ! A8    A(1,3,5)              109.6412         -DE/DX =    0.0                 !
 ! A9    A(1,3,6)              107.1671         -DE/DX =    0.0                 !
 ! A10   A(4,3,5)              110.4583         -DE/DX =    0.0                 !
 ! A11   A(4,3,6)              108.8007         -DE/DX =    0.0                 !
 ! A12   A(5,3,6)              108.8696         -DE/DX =    0.0                 !
 ! A13   L(1,8,9,6,-1)         177.2949         -DE/DX =    0.0                 !
 ! A14   L(1,8,9,6,-2)         169.6695         -DE/DX =    0.0                 !
 ! D1    D(2,1,3,4)           -155.1709         -DE/DX =    0.0                 !
 ! D2    D(2,1,3,5)            -32.3183         -DE/DX =    0.0                 !
 ! D3    D(2,1,3,6)             85.694          -DE/DX =    0.0                 !
 ! D4    D(7,1,3,4)            -45.3248         -DE/DX =    0.0                 !
 ! D5    D(7,1,3,5)             77.5278         -DE/DX =    0.0                 !
 ! D6    D(7,1,3,6)           -164.4599         -DE/DX =    0.0                 !
 ! D7    D(8,1,3,4)             38.6599         -DE/DX =    0.0                 !
 ! D8    D(8,1,3,5)            161.5126         -DE/DX =    0.0                 !
 ! D9    D(8,1,3,6)            -80.4751         -DE/DX =    0.0                 !
 --------------------------------------------------------------------------------
 Largest change from initial coordinates is atom    9       0.643 Angstoms.
 GradGradGradGradGradGradGradGradGradGradGradGradGradGradGradGradGradGrad

 Leave Link  103 at Wed Jan  8 02:15:49 2020, MaxMem=  4294967296 cpu:              68.5 elap:               7.0
 (Enter /home/cwagen/sw/g16/g16/l202.exe)
                          Input orientation:                          
 ---------------------------------------------------------------------
 Center     Atomic      Atomic             Coordinates (Angstroms)
 Number     Number       Type             X           Y           Z
 ---------------------------------------------------------------------
      1          6           0        0.021925   -0.591016   -0.339162
      2          8           0       -0.318980   -0.667682   -1.495129
      3          6           0       -0.412491   -1.470661    0.791507
      4          1           0       -0.328225   -0.964666    1.753747
      5          1           0       -1.439682   -1.803985    0.623872
      6          1           0        0.250980   -2.348957    0.793260
      7         17           0       -1.486950    1.635096    0.746067
      8          6           0        1.292765    0.322525   -0.006885
      9          7           0        2.298368    0.886364    0.148137
 ---------------------------------------------------------------------
                    Distance matrix (angstroms):
                    1          2          3          4          5
     1  C    0.000000
     2  O    1.207623   0.000000
     3  C    1.496965   2.425330   0.000000
     4  H    2.154643   3.262435   1.090430   0.000000
     5  H    2.129559   2.652796   1.092853   1.793436   0.000000
     6  H    2.103616   2.896250   1.100727   1.781650   1.784384
     7  Cl   2.900000   3.419050   3.286678   3.019408   3.441575
     8  C    1.600000   2.406886   2.600162   2.717406   3.519399
     9  N    2.757228   3.459174   3.649418   3.592114   4.630046
                    6          7          8          9
     6  H    0.000000
     7  Cl   4.346873   0.000000
     8  C    2.976972   3.164900   0.000000
     9  N    3.882691   3.904709   1.163264   0.000000
 Stoichiometry    C3H3ClNO(1-)
 Framework group  C1[X(C3H3ClNO)]
 Deg. of freedom    21
 Full point group                 C1      NOp   1
 RotChk:  IX=0 Diff= 2.38D-15
 Largest Abelian subgroup         C1      NOp   1
 Largest concise Abelian subgroup C1      NOp   1
                         Standard orientation:                         
 ---------------------------------------------------------------------
 Center     Atomic      Atomic             Coordinates (Angstroms)
 Number     Number       Type             X           Y           Z
 ---------------------------------------------------------------------
      1          6           0       -0.763116   -0.587354    0.192993
      2          8           0       -0.901434   -0.997855    1.320251
      3          6           0       -0.605394   -1.402366   -1.052712
      4          1           0       -0.082134   -0.850530   -1.834194
      5          1           0       -0.076180   -2.329864   -0.820317
      6          1           0       -1.616936   -1.649479   -1.409530
      7         17           0        2.001007    0.276252    0.038694
      8          6           0       -1.087882    0.956812   -0.071730
      9          7           0       -1.470291    2.044839   -0.223868
 ---------------------------------------------------------------------
 Rotational constants (GHZ):           2.9244510           1.9486592           1.5020475
 Leave Link  202 at Wed Jan  8 02:15:49 2020, MaxMem=  4294967296 cpu:               2.4 elap:               0.3
 (Enter /home/cwagen/sw/g16/g16/l601.exe)
 Copying SCF densities to generalized density rwf, IOpCl= 0 IROHF=0.

 **********************************************************************

            Population analysis using the SCF density.

 **********************************************************************

 Orbital symmetries:
       Occupied  (A) (A) (A) (A) (A) (A) (A) (A) (A) (A) (A) (A)
                 (A) (A) (A) (A) (A) (A) (A) (A) (A) (A) (A) (A)
                 (A) (A) (A)
       Virtual   (A) (A) (A) (A) (A) (A) (A) (A) (A) (A) (A) (A)
                 (A) (A) (A) (A) (A) (A) (A) (A) (A) (A) (A) (A)
                 (A) (A) (A) (A) (A) (A) (A) (A) (A) (A) (A) (A)
                 (A) (A) (A) (A) (A) (A) (A) (A) (A) (A) (A) (A)
                 (A) (A) (A) (A) (A) (A) (A) (A) (A) (A) (A) (A)
                 (A) (A) (A) (A) (A) (A) (A) (A) (A) (A) (A) (A)
                 (A) (A) (A) (A) (A) (A) (A) (A) (A) (A) (A) (A)
                 (A) (A) (A) (A) (A) (A) (A) (A) (A) (A) (A) (A)
                 (A)
 The electronic state is 1-A.
 Alpha  occ. eigenvalues -- -101.41765 -19.16125 -14.34096 -10.32075 -10.23275
 Alpha  occ. eigenvalues --  -10.18307  -9.33122  -7.08955  -7.08874  -7.08869
 Alpha  occ. eigenvalues --   -1.06276  -0.90270  -0.75144  -0.67114  -0.61326
 Alpha  occ. eigenvalues --   -0.48868  -0.44616  -0.44248  -0.39789  -0.37448
 Alpha  occ. eigenvalues --   -0.36919  -0.33763  -0.33532  -0.27668  -0.21660
 Alpha  occ. eigenvalues --   -0.21470  -0.21467
 Alpha virt. eigenvalues --   -0.04740   0.02342   0.03036   0.03972   0.05603
 Alpha virt. eigenvalues --    0.06719   0.07170   0.08691   0.09525   0.10204
 Alpha virt. eigenvalues --    0.10596   0.10770   0.12171   0.13480   0.13663
 Alpha virt. eigenvalues --    0.14186   0.15228   0.16944   0.18070   0.20721
 Alpha virt. eigenvalues --    0.23370   0.24254   0.24849   0.25553   0.26596
 Alpha virt. eigenvalues --    0.28249   0.29004   0.31391   0.32759   0.35773
 Alpha virt. eigenvalues --    0.37593   0.40525   0.47823   0.61203   0.63120
 Alpha virt. eigenvalues --    0.65651   0.66897   0.69090   0.69949   0.72088
 Alpha virt. eigenvalues --    0.75136   0.78439   0.79340   0.81714   0.83007
 Alpha virt. eigenvalues --    0.85116   0.89416   0.94745   0.97491   0.98488
 Alpha virt. eigenvalues --    0.99266   0.99907   1.01278   1.02294   1.03864
 Alpha virt. eigenvalues --    1.04271   1.08209   1.13723   1.15751   1.20652
 Alpha virt. eigenvalues --    1.28242   1.31226   1.34350   1.37054   1.42102
 Alpha virt. eigenvalues --    1.45108   1.53823   1.55355   1.60625   1.66349
 Alpha virt. eigenvalues --    1.70867   1.72922   1.81684   1.84713   1.92366
 Alpha virt. eigenvalues --    1.94043   1.96454   1.98442   2.07416   2.16523
 Alpha virt. eigenvalues --    2.23314   2.29191   2.36483   2.47198   2.58717
 Alpha virt. eigenvalues --    2.68935   2.75219   2.84531   2.95870   3.12569
 Alpha virt. eigenvalues --    3.23564   4.12590   4.17064   4.31097   4.35443
 Alpha virt. eigenvalues --    4.43191   4.65739
          Condensed to atoms (all electrons):
               1          2          3          4          5          6
     1  C    5.867230   0.629196  -0.011414  -0.106916  -0.092344   0.038510
     2  O    0.629196   8.062977  -0.118562   0.007887   0.002089  -0.006556
     3  C   -0.011414  -0.118562   6.050493   0.398131   0.399999   0.326731
     4  H   -0.106916   0.007887   0.398131   0.444069  -0.018734  -0.024322
     5  H   -0.092344   0.002089   0.399999  -0.018734   0.447123  -0.022287
     6  H    0.038510  -0.006556   0.326731  -0.024322  -0.022287   0.460259
     7  Cl   0.225327  -0.045838  -0.112754  -0.000268  -0.004421   0.003281
     8  C   -0.881559  -0.167055  -0.221224   0.038973   0.032550  -0.033446
     9  N   -0.047823  -0.005471  -0.024333   0.000823  -0.000016  -0.000958
               7          8          9
     1  C    0.225327  -0.881559  -0.047823
     2  O   -0.045838  -0.167055  -0.005471
     3  C   -0.112754  -0.221224  -0.024333
     4  H   -0.000268   0.038973   0.000823
     5  H   -0.004421   0.032550  -0.000016
     6  H    0.003281  -0.033446  -0.000958
     7  Cl  17.912771  -0.085862  -0.018712
     8  C   -0.085862   6.418101   0.575402
     9  N   -0.018712   0.575402   7.080932
 Mulliken charges:
               1
     1  C    0.379793
     2  O   -0.358666
     3  C   -0.687068
     4  H    0.260357
     5  H    0.256042
     6  H    0.258788
     7  Cl  -0.873523
     8  C    0.324120
     9  N   -0.559843
 Sum of Mulliken charges =  -1.00000
 Mulliken charges with hydrogens summed into heavy atoms:
               1
     1  C    0.379793
     2  O   -0.358666
     3  C    0.088119
     7  Cl  -0.873523
     8  C    0.324120
     9  N   -0.559843
 Electronic spatial extent (au):  <R**2>=            838.1313
 Charge=             -1.0000 electrons
 Dipole moment (field-independent basis, Debye):
    X=             -6.6498    Y=             -4.9516    Z=             -2.9996  Tot=              8.8168
 Quadrupole moment (field-independent basis, Debye-Ang):
   XX=            -67.4567   YY=            -54.9581   ZZ=            -48.3976
   XY=              3.1236   XZ=              1.7661   YZ=              4.9829
 Traceless Quadrupole moment (field-independent basis, Debye-Ang):
   XX=            -10.5193   YY=              1.9794   ZZ=              8.5399
   XY=              3.1236   XZ=              1.7661   YZ=              4.9829
 Octapole moment (field-independent basis, Debye-Ang**2):
  XXX=            -47.6655  YYY=            -33.9816  ZZZ=             -4.4231  XYY=              9.6239
  XXY=            -18.5679  XXZ=             -1.7229  XZZ=             -2.2539  YZZ=             -1.0626
  YYZ=             -1.3693  XYZ=             -5.4194
 Hexadecapole moment (field-independent basis, Debye-Ang**3):
 XXXX=           -727.1031 YYYY=           -445.3893 ZZZZ=           -187.0784 XXXY=             14.2401
 XXXZ=             -2.8870 YYYX=             36.9595 YYYZ=             11.8120 ZZZX=              1.1279
 ZZZY=              4.5135 XXYY=           -199.7463 XXZZ=           -141.4526 YYZZ=           -101.1227
 XXYZ=              6.4756 YYXZ=             -1.1295 ZZXY=             -0.1484
 N-N= 2.371119390160D+02 E-N=-2.152314134809D+03  KE= 7.024617790759D+02
 No NMR shielding tensors so no spin-rotation constants.
 Leave Link  601 at Wed Jan  8 02:15:51 2020, MaxMem=  4294967296 cpu:              19.1 elap:               1.8
 (Enter /home/cwagen/sw/g16/g16/l9999.exe)
 1\1\GINC-NODE006\FOpt\RB3LYP\6-31+G(d)\C3H3Cl1N1O1(1-)\CWAGEN\08-Jan-2
 020\0\\#p opt=modredundant b3lyp/6-31+g(d) scrf=(smd, solvent=tetrahyd
 rofuran)\\title\\-1,1\C,0.0219246172,-0.591016395,-0.3391618807\O,-0.3
 189796136,-0.6676815817,-1.4951293167\C,-0.4124911006,-1.4706608287,0.
 7915067921\H,-0.3282250333,-0.9646659674,1.7537466936\H,-1.4396823376,
 -1.8039850196,0.6238716628\H,0.2509797162,-2.348957019,0.7932597667\Cl
 ,-1.486950165,1.6350955872,0.7460672768\C,1.2927646348,0.3225250508,-0
 .0068853641\N,2.2983675618,0.8863644834,0.1481365596\\Version=AS64L-G1
 6RevA.03\State=1-A\HF=-706.4500136\RMSD=4.263e-09\RMSF=9.036e-03\Dipol
 e=0.9248201,-3.3418793,0.0948896\Quadrupole=-6.3541695,2.782623,3.5715
 465,3.185081,1.6915769,-5.4055335\PG=C01 [X(C3H3Cl1N1O1)]\\@


 THE LENGTH OF A MEETING IS PROPORTIONAL TO THE
 SQUARE OF THE PARTICIPANTS.
 Job cpu time:       0 days  2 hours 54 minutes 27.6 seconds.
 Elapsed time:       0 days  0 hours 15 minutes  2.4 seconds.
 File lengths (MBytes):  RWF=     37 Int=      0 D2E=      0 Chk=      4 Scr=      1
 Normal termination of Gaussian 16 at Wed Jan  8 02:15:52 2020.
