 Entering Gaussian System, Link 0=g16
 Input=scan_280_230.gjf
 Output=scan_280_230.out
 Initial command:
 /home/cwagen/sw/g16/g16/l1.exe "/scratch/users/cwagen/cwagen_scan_280_230/Gau-12191.inp" -scrdir="/scratch/users/cwagen/cwagen_scan_280_230/"
 Entering Link 1 = /home/cwagen/sw/g16/g16/l1.exe PID=     12192.
  
 Copyright (c) 1988,1990,1992,1993,1995,1998,2003,2009,2016,
            Gaussian, Inc.  All Rights Reserved.
  
 This is part of the Gaussian(R) 16 program.  It is based on
 the Gaussian(R) 09 system (copyright 2009, Gaussian, Inc.),
 the Gaussian(R) 03 system (copyright 2003, Gaussian, Inc.),
 the Gaussian(R) 98 system (copyright 1998, Gaussian, Inc.),
 the Gaussian(R) 94 system (copyright 1995, Gaussian, Inc.),
 the Gaussian 92(TM) system (copyright 1992, Gaussian, Inc.),
 the Gaussian 90(TM) system (copyright 1990, Gaussian, Inc.),
 the Gaussian 88(TM) system (copyright 1988, Gaussian, Inc.),
 the Gaussian 86(TM) system (copyright 1986, Carnegie Mellon
 University), and the Gaussian 82(TM) system (copyright 1983,
 Carnegie Mellon University). Gaussian is a federally registered
 trademark of Gaussian, Inc.
  
 This software contains proprietary and confidential information,
 including trade secrets, belonging to Gaussian, Inc.
  
 This software is provided under written license and may be
 used, copied, transmitted, or stored only in accord with that
 written license.
  
 The following legend is applicable only to US Government
 contracts under FAR:
  
                    RESTRICTED RIGHTS LEGEND
  
 Use, reproduction and disclosure by the US Government is
 subject to restrictions as set forth in subparagraphs (a)
 and (c) of the Commercial Computer Software - Restricted
 Rights clause in FAR 52.227-19.
  
 Gaussian, Inc.
 340 Quinnipiac St., Bldg. 40, Wallingford CT 06492
  
  
 ---------------------------------------------------------------
 Warning -- This program may not be used in any manner that
 competes with the business of Gaussian, Inc. or will provide
 assistance to any competitor of Gaussian, Inc.  The licensee
 of this program is prohibited from giving any competitor of
 Gaussian, Inc. access to this program.  By using this program,
 the user acknowledges that Gaussian, Inc. is engaged in the
 business of creating and licensing software in the field of
 computational chemistry and represents and warrants to the
 licensee that it is not a competitor of Gaussian, Inc. and that
 it will not use this program in any manner prohibited above.
 ---------------------------------------------------------------
  

 Cite this work as:
 Gaussian 16, Revision A.03,
 M. J. Frisch, G. W. Trucks, H. B. Schlegel, G. E. Scuseria, 
 M. A. Robb, J. R. Cheeseman, G. Scalmani, V. Barone, 
 G. A. Petersson, H. Nakatsuji, X. Li, M. Caricato, A. V. Marenich, 
 J. Bloino, B. G. Janesko, R. Gomperts, B. Mennucci, H. P. Hratchian, 
 J. V. Ortiz, A. F. Izmaylov, J. L. Sonnenberg, D. Williams-Young, 
 F. Ding, F. Lipparini, F. Egidi, J. Goings, B. Peng, A. Petrone, 
 T. Henderson, D. Ranasinghe, V. G. Zakrzewski, J. Gao, N. Rega, 
 G. Zheng, W. Liang, M. Hada, M. Ehara, K. Toyota, R. Fukuda, 
 J. Hasegawa, M. Ishida, T. Nakajima, Y. Honda, O. Kitao, H. Nakai, 
 T. Vreven, K. Throssell, J. A. Montgomery, Jr., J. E. Peralta, 
 F. Ogliaro, M. J. Bearpark, J. J. Heyd, E. N. Brothers, K. N. Kudin, 
 V. N. Staroverov, T. A. Keith, R. Kobayashi, J. Normand, 
 K. Raghavachari, A. P. Rendell, J. C. Burant, S. S. Iyengar, 
 J. Tomasi, M. Cossi, J. M. Millam, M. Klene, C. Adamo, R. Cammi, 
 J. W. Ochterski, R. L. Martin, K. Morokuma, O. Farkas, 
 J. B. Foresman, and D. J. Fox, Gaussian, Inc., Wallingford CT, 2016.
 
 ******************************************
 Gaussian 16:  AS64L-G16RevA.03 25-Dec-2016
                 8-Jan-2020 
 ******************************************
 %nprocshared=16
 Will use up to   16 processors via shared memory.
 %mem=32GB
 ----------------------------------------------------------------------
 #p opt=modredundant b3lyp/6-31+g(d) scrf=(smd, solvent=tetrahydrofuran
 )
 ----------------------------------------------------------------------
 1/18=120,19=15,26=3,38=1/1,3;
 2/9=110,12=2,17=6,18=5,40=1/2;
 3/5=1,6=6,7=11,11=2,25=1,30=1,70=32201,71=1,72=20,74=-5/1,2,3;
 4//1;
 5/5=2,38=5,53=20/2;
 6/7=2,8=2,9=2,10=2,28=1/1;
 7//1,2,3,16;
 1/18=20,19=15,26=3/3(2);
 2/9=110/2;
 99//99;
 2/9=110/2;
 3/5=1,6=6,7=11,11=2,25=1,30=1,70=32205,71=1,72=20,74=-5/1,2,3;
 4/5=5,16=3,69=1/1;
 5/5=2,38=5,53=20/2;
 7//1,2,3,16;
 1/18=20,19=15,26=3/3(-5);
 2/9=110/2;
 6/7=2,8=2,9=2,10=2,19=2,28=1/1;
 99/9=1/99;
 Leave Link    1 at Wed Jan  8 01:51:47 2020, MaxMem=  4294967296 cpu:              11.1 elap:               0.9
 (Enter /home/cwagen/sw/g16/g16/l101.exe)
 -----
 title
 -----
 Symbolic Z-matrix:
 Charge = -1 Multiplicity = 1
 6                    -0.19426  -0.292    -0.21291 
 8                    -0.25532  -0.66526  -1.45426 
 6                    -0.33095  -1.45422   0.81632 
 1                    -0.18039  -1.13044   1.85373 
 1                    -1.34067  -1.87301   0.71427 
 1                     0.39707  -2.23395   0.57058 
 17                   -1.87073   1.83475   0.49872 
 6                     1.93812   0.4547    0.21766 
 7                     3.07269   0.735     0.24796 
 
 Add virtual bond connecting atoms C8         and C1         Dist= 4.35D+00.
 Add virtual bond connecting atoms Cl7        and C1         Dist= 5.29D+00.
 The following ModRedundant input section has been read:
 B       1       7 F                                                           
 B       1       8 F                                                           
 
 ITRead=  0  0  0  0  0  0  0  0  0
 MicOpt= -1 -1 -1 -1 -1 -1 -1 -1 -1
 NAtoms=      9 NQM=        9 NQMF=       0 NMMI=      0 NMMIF=      0
                NMic=       0 NMicF=      0.
                    Isotopes and Nuclear Properties:
 (Nuclear quadrupole moments (NQMom) in fm**2, nuclear magnetic moments (NMagM)
  in nuclear magnetons)

  Atom         1           2           3           4           5           6           7           8           9
 IAtWgt=          12          16          12           1           1           1          35          12          14
 AtmWgt=  12.0000000  15.9949146  12.0000000   1.0078250   1.0078250   1.0078250  34.9688527  12.0000000  14.0030740
 NucSpn=           0           0           0           1           1           1           3           0           2
 AtZEff=   0.0000000   0.0000000   0.0000000   0.0000000   0.0000000   0.0000000   0.0000000   0.0000000   0.0000000
 NQMom=    0.0000000   0.0000000   0.0000000   0.0000000   0.0000000   0.0000000  -8.1650000   0.0000000   2.0440000
 NMagM=    0.0000000   0.0000000   0.0000000   2.7928460   2.7928460   2.7928460   0.8218740   0.0000000   0.4037610
 AtZNuc=   6.0000000   8.0000000   6.0000000   1.0000000   1.0000000   1.0000000  17.0000000   6.0000000   7.0000000
 Leave Link  101 at Wed Jan  8 01:51:48 2020, MaxMem=  4294967296 cpu:               7.0 elap:               0.8
 (Enter /home/cwagen/sw/g16/g16/l103.exe)

 GradGradGradGradGradGradGradGradGradGradGradGradGradGradGradGradGradGrad
 Berny optimization.
 Initialization pass.
                           ----------------------------
                           !    Initial Parameters    !
                           ! (Angstroms and Degrees)  !
 --------------------------                            --------------------------
 ! Name  Definition              Value          Derivative Info.                !
 --------------------------------------------------------------------------------
 ! R1    R(1,2)                  1.2977         estimate D2E/DX2                !
 ! R2    R(1,3)                  1.5584         estimate D2E/DX2                !
 ! R3    R(1,7)                  2.8            Frozen                          !
 ! R4    R(1,8)                  2.3            Frozen                          !
 ! R5    R(3,4)                  1.0971         estimate D2E/DX2                !
 ! R6    R(3,5)                  1.0979         estimate D2E/DX2                !
 ! R7    R(3,6)                  1.0947         estimate D2E/DX2                !
 ! R8    R(8,9)                  1.1691         estimate D2E/DX2                !
 ! A1    A(2,1,3)              114.4006         estimate D2E/DX2                !
 ! A2    A(2,1,7)              115.6846         estimate D2E/DX2                !
 ! A3    A(2,1,8)              108.426          estimate D2E/DX2                !
 ! A4    A(3,1,7)              110.248          estimate D2E/DX2                !
 ! A5    A(3,1,8)              101.5248         estimate D2E/DX2                !
 ! A6    A(7,1,8)              105.1256         estimate D2E/DX2                !
 ! A7    A(1,3,4)              113.1005         estimate D2E/DX2                !
 ! A8    A(1,3,5)              107.683          estimate D2E/DX2                !
 ! A9    A(1,3,6)              108.9421         estimate D2E/DX2                !
 ! A10   A(4,3,5)              109.0662         estimate D2E/DX2                !
 ! A11   A(4,3,6)              109.3417         estimate D2E/DX2                !
 ! A12   A(5,3,6)              108.6067         estimate D2E/DX2                !
 ! A13   L(1,8,9,6,-1)         177.311          estimate D2E/DX2                !
 ! A14   L(1,8,9,6,-2)         165.397          estimate D2E/DX2                !
 ! D1    D(2,1,3,4)            174.4714         estimate D2E/DX2                !
 ! D2    D(2,1,3,5)            -64.9488         estimate D2E/DX2                !
 ! D3    D(2,1,3,6)             52.6633         estimate D2E/DX2                !
 ! D4    D(7,1,3,4)            -53.1046         estimate D2E/DX2                !
 ! D5    D(7,1,3,5)             67.4752         estimate D2E/DX2                !
 ! D6    D(7,1,3,6)           -174.9127         estimate D2E/DX2                !
 ! D7    D(8,1,3,4)             57.938          estimate D2E/DX2                !
 ! D8    D(8,1,3,5)            178.5177         estimate D2E/DX2                !
 ! D9    D(8,1,3,6)            -63.8702         estimate D2E/DX2                !
 --------------------------------------------------------------------------------
 Trust Radius=3.00D-01 FncErr=1.00D-07 GrdErr=1.00D-06 EigMax=2.50D+02 EigMin=1.00D-04
 Number of steps in this run=     41 maximum allowed number of steps=    100.
 GradGradGradGradGradGradGradGradGradGradGradGradGradGradGradGradGradGrad

 Leave Link  103 at Wed Jan  8 01:51:48 2020, MaxMem=  4294967296 cpu:               0.9 elap:               0.2
 (Enter /home/cwagen/sw/g16/g16/l202.exe)
                          Input orientation:                          
 ---------------------------------------------------------------------
 Center     Atomic      Atomic             Coordinates (Angstroms)
 Number     Number       Type             X           Y           Z
 ---------------------------------------------------------------------
      1          6           0       -0.194263   -0.291999   -0.212908
      2          8           0       -0.255321   -0.665256   -1.454255
      3          6           0       -0.330945   -1.454221    0.816316
      4          1           0       -0.180394   -1.130438    1.853734
      5          1           0       -1.340665   -1.873010    0.714272
      6          1           0        0.397068   -2.233949    0.570583
      7         17           0       -1.870733    1.834745    0.498715
      8          6           0        1.938117    0.454704    0.217661
      9          7           0        3.072688    0.735002    0.247964
 ---------------------------------------------------------------------
                    Distance matrix (angstroms):
                    1          2          3          4          5
     1  C    0.000000
     2  O    1.297687   0.000000
     3  C    1.558443   2.404928   0.000000
     4  H    2.230287   3.341377   1.097150   0.000000
     5  H    2.161827   2.709087   1.097876   1.787740   0.000000
     6  H    2.175937   2.643176   1.094698   1.788205   1.780629
     7  Cl   2.800000   3.560008   3.645424   3.672279   3.751651
     8  C    2.300000   2.976707   3.025066   3.110868   4.051578
     9  N    3.455446   3.991731   4.086617   4.079327   5.147510
                    6          7          8          9
     6  H    0.000000
     7  Cl   4.658579   0.000000
     8  C    3.119013   4.060892   0.000000
     9  N    4.009700   5.070475   1.169075   0.000000
 Stoichiometry    C3H3ClNO(1-)
 Framework group  C1[X(C3H3ClNO)]
 Deg. of freedom    21
 Full point group                 C1      NOp   1
 Largest Abelian subgroup         C1      NOp   1
 Largest concise Abelian subgroup C1      NOp   1
                         Standard orientation:                         
 ---------------------------------------------------------------------
 Center     Atomic      Atomic             Coordinates (Angstroms)
 Number     Number       Type             X           Y           Z
 ---------------------------------------------------------------------
      1          6           0        0.154966    0.676232    0.206820
      2          8           0        0.326178    1.266373    1.349803
      3          6           0        0.355208    1.600922   -1.031565
      4          1           0        0.300817    1.061084   -1.985165
      5          1           0       -0.431781    2.366027   -1.007189
      6          1           0        1.327554    2.097306   -0.950887
      7         17           0       -2.211885   -0.796488   -0.056076
      8          6           0        1.848528   -0.852814   -0.082776
      9          7           0        2.806261   -1.523021   -0.065253
 ---------------------------------------------------------------------
 Rotational constants (GHZ):           2.7384759           1.3449952           1.0881126
 Leave Link  202 at Wed Jan  8 01:51:48 2020, MaxMem=  4294967296 cpu:               2.2 elap:               0.2
 (Enter /home/cwagen/sw/g16/g16/l301.exe)
 Standard basis: 6-31+G(d) (6D, 7F)
 Ernie: Thresh=  0.10000D-02 Tol=  0.10000D-05 Strict=F.
 There are   124 symmetry adapted cartesian basis functions of A   symmetry.
 There are   124 symmetry adapted basis functions of A   symmetry.
   124 basis functions,   228 primitive gaussians,   124 cartesian basis functions
    27 alpha electrons       27 beta electrons
       nuclear repulsion energy       214.2995212494 Hartrees.
 IExCor=  402 DFT=T Ex+Corr=B3LYP ExCW=0 ScaHFX=  0.200000
 ScaDFX=  0.800000  0.720000  1.000000  0.810000 ScalE2=  1.000000  1.000000
 IRadAn=      5 IRanWt=     -1 IRanGd=            0 ICorTp=0 IEmpDi=  4
 NAtoms=    9 NActive=    9 NUniq=    9 SFac= 1.00D+00 NAtFMM=   60 NAOKFM=F Big=F
 Integral buffers will be    131072 words long.
 Raffenetti 2 integral format.
 Two-electron integral symmetry is turned on.
 ------------------------------------------------------------------------------
 Polarizable Continuum Model (PCM)
 =================================
 Model                : PCM.
 Atomic radii         : SMD-Coulomb.
 Polarization charges : Total charges.
 Charge compensation  : None.
 Solution method      : On-the-fly selection.
 Cavity type          : VdW (van der Waals Surface) (Alpha=1.000).
 Cavity algorithm     : GePol (No added spheres)
                        Default sphere list used, NSphG=    9.
                        Lebedev-Laikov grids with approx.  5.0 points / Ang**2.
                        Smoothing algorithm: York/Karplus (Gamma=1.0000).
                        Polarization charges: spherical gaussians, with
                                              point-specific exponents (IZeta= 3).
                        Self-potential: point-specific (ISelfS= 7).
                        Self-field    : sphere-specific E.n sum rule (ISelfD= 2).
 1st derivatives      : Analytical E(r).r(x)/FMM algorithm (CHGder, D1EAlg=3).
                        Cavity 1st derivative terms included.
 Solvent              : TetraHydroFuran, Eps=   7.425700 Eps(inf)=   1.974025
 ------------------------------------------------------------------------------
 Spheres list:
 ISph  on   Nord     Re0    Alpha      Xe            Ye            Ze
    1   C      1    1.8500  1.000      0.154966      0.676232      0.206820
    2   O      2    2.2940  1.000      0.326178      1.266373      1.349803
    3   C      3    1.8500  1.000      0.355208      1.600922     -1.031565
    4   H      4    1.2000  1.000      0.300817      1.061084     -1.985165
    5   H      5    1.2000  1.000     -0.431781      2.366027     -1.007189
    6   H      6    1.2000  1.000      1.327554      2.097306     -0.950887
    7  Cl      7    2.3800  1.000     -2.211885     -0.796488     -0.056076
    8   C      8    1.8500  1.000      1.848528     -0.852814     -0.082776
    9   N      9    1.8900  1.000      2.806261     -1.523021     -0.065253
 ------------------------------------------------------------------------------
 GePol: Number of generator spheres                  =       9
 GePol: Total number of spheres                      =       9
 GePol: Number of exposed spheres                    =       9 (100.00%)
 GePol: Number of points                             =    1316
 GePol: Average weight of points                     =       0.14
 GePol: Minimum weight of points                     =   0.20D-05
 GePol: Maximum weight of points                     =    0.18138
 GePol: Number of points with low weight             =      24
 GePol: Fraction of low-weight points (<1% of avg)   =       1.82%
 GePol: Cavity surface area                          =    179.705 Ang**2
 GePol: Cavity volume                                =    159.205 Ang**3
 ------------------------------------------------------------------------------
 Atomic radii for non-electrostatic terms: SMD-CDS.
 ------------------------------------------------------------------------------
 PCM non-electrostatic energy =         0.0007991912 Hartrees.
 Nuclear repulsion after PCM non-electrostatic terms =      214.3003204406 Hartrees.
 Leave Link  301 at Wed Jan  8 01:51:49 2020, MaxMem=  4294967296 cpu:               2.3 elap:               0.2
 (Enter /home/cwagen/sw/g16/g16/l302.exe)
 NPDir=0 NMtPBC=     1 NCelOv=     1 NCel=       1 NClECP=     1 NCelD=      1
         NCelK=      1 NCelE2=     1 NClLst=     1 CellRange=     0.0.
 One-electron integrals computed using PRISM.
 One-electron integral symmetry used in STVInt
 NBasis=   124 RedAO= T EigKep=  1.81D-04  NBF=   124
 NBsUse=   124 1.00D-06 EigRej= -1.00D+00 NBFU=   124
 Precomputing XC quadrature grid using
 IXCGrd= 4 IRadAn=           5 IRanWt=          -1 IRanGd=           0 AccXCQ= 0.00D+00.
 Generated NRdTot=       0 NPtTot=           0 NUsed=           0 NTot=          32
 NSgBfM=   123   123   123   123   123 MxSgAt=     9 MxSgA2=     9.
 Leave Link  302 at Wed Jan  8 01:51:51 2020, MaxMem=  4294967296 cpu:              29.6 elap:               2.5
 (Enter /home/cwagen/sw/g16/g16/l303.exe)
 DipDrv:  MaxL=1.
 Leave Link  303 at Wed Jan  8 01:51:52 2020, MaxMem=  4294967296 cpu:               2.8 elap:               0.4
 (Enter /home/cwagen/sw/g16/g16/l401.exe)
 ExpMin= 4.38D-02 ExpMax= 2.52D+04 ExpMxC= 3.78D+03 IAcc=3 IRadAn=         5 AccDes= 0.00D+00
 Harris functional with IExCor=  402 and IRadAn=       5 diagonalized for initial guess.
 HarFok:  IExCor=  402 AccDes= 0.00D+00 IRadAn=         5 IDoV= 1 UseB2=F ITyADJ=14
 ICtDFT=  3500011 ScaDFX=  1.000000  1.000000  1.000000  1.000000
 FoFCou: FMM=F IPFlag=           0 FMFlag=      100000 FMFlg1=           0
         NFxFlg=           0 DoJE=T BraDBF=F KetDBF=T FulRan=T
         wScrn=  0.000000 ICntrl=       500 IOpCl=  0 I1Cent=   200000004 NGrid=           0
         NMat0=    1 NMatS0=      1 NMatT0=    0 NMatD0=    1 NMtDS0=    0 NMtDT0=    0
 Petite list used in FoFCou.
 Harris En= -706.334056651141    
 JPrj=0 DoOrth=F DoCkMO=F.
 Leave Link  401 at Wed Jan  8 01:51:53 2020, MaxMem=  4294967296 cpu:              24.2 elap:               1.9
 (Enter /home/cwagen/sw/g16/g16/l502.exe)
 Keep R1 ints in memory in canonical form, NReq=45236517.
 FoFCou: FMM=F IPFlag=           0 FMFlag=           0 FMFlg1=           0
         NFxFlg=           0 DoJE=F BraDBF=F KetDBF=F FulRan=T
         wScrn=  0.000000 ICntrl=       600 IOpCl=  0 I1Cent=           0 NGrid=           0
         NMat0=    1 NMatS0=   7750 NMatT0=    0 NMatD0=    1 NMtDS0=    0 NMtDT0=    0
 Symmetry not used in FoFCou.
 Two-electron integral symmetry not used.
 Closed shell SCF:
 Using DIIS extrapolation, IDIIS=  1040.
 NGot=  4294967296 LenX=  4264898079 LenY=  4264882262
 Requested convergence on RMS density matrix=1.00D-08 within 128 cycles.
 Requested convergence on MAX density matrix=1.00D-06.
 Requested convergence on             energy=1.00D-06.
 No special actions if energy rises.

 Cycle   1  Pass 1  IDiag  1:
 Inv3:  Mode=1 IEnd=     5195568.
 Iteration    1 A*A^-1 deviation from unit magnitude is 4.66D-15 for   1307.
 Iteration    1 A*A^-1 deviation from orthogonality  is 2.39D-15 for   1315    280.
 Iteration    1 A^-1*A deviation from unit magnitude is 5.11D-15 for   1310.
 Iteration    1 A^-1*A deviation from orthogonality  is 1.89D-15 for   1316    281.
 E= -706.168325534455    
 DIIS: error= 2.54D-02 at cycle   1 NSaved=   1.
 NSaved= 1 IEnMin= 1 EnMin= -706.168325534455     IErMin= 1 ErrMin= 2.54D-02
 ErrMax= 2.54D-02  0.00D+00 EMaxC= 1.00D-01 BMatC= 1.94D-01 BMatP= 1.94D-01
 IDIUse=3 WtCom= 7.46D-01 WtEn= 2.54D-01
 Coeff-Com:  0.100D+01
 Coeff-En:   0.100D+01
 Coeff:      0.100D+01
 Gap=     0.072 Goal=   None    Shift=    0.000
 GapD=    0.072 DampG=0.500 DampE=0.500 DampFc=0.2500 IDamp=-1.
 Damping current iteration by 2.50D-01
 RMSDP=8.57D-03 MaxDP=1.91D-01              OVMax= 2.64D-01

 Cycle   2  Pass 1  IDiag  1:
 E= -706.220669319959     Delta-E=       -0.052343785504 Rises=F Damp=T
 DIIS: error= 1.84D-02 at cycle   2 NSaved=   2.
 NSaved= 2 IEnMin= 2 EnMin= -706.220669319959     IErMin= 2 ErrMin= 1.84D-02
 ErrMax= 1.84D-02  0.00D+00 EMaxC= 1.00D-01 BMatC= 3.01D-02 BMatP= 1.94D-01
 IDIUse=3 WtCom= 8.16D-01 WtEn= 1.84D-01
 Coeff-Com: -0.191D+00 0.119D+01
 Coeff-En:   0.152D+00 0.848D+00
 Coeff:     -0.128D+00 0.113D+01
 Gap=     0.118 Goal=   None    Shift=    0.000
 RMSDP=3.07D-03 MaxDP=5.52D-02 DE=-5.23D-02 OVMax= 2.68D-01

 Cycle   3  Pass 1  IDiag  1:
 E= -706.287051628828     Delta-E=       -0.066382308869 Rises=F Damp=F
 DIIS: error= 1.89D-02 at cycle   3 NSaved=   3.
 NSaved= 3 IEnMin= 3 EnMin= -706.287051628828     IErMin= 2 ErrMin= 1.84D-02
 ErrMax= 1.89D-02  0.00D+00 EMaxC= 1.00D-01 BMatC= 6.31D-02 BMatP= 3.01D-02
 IDIUse=2 WtCom= 0.00D+00 WtEn= 1.00D+00
 EnCoef did     6 forward-backward iterations
 Coeff-En:   0.141D-01 0.116D+00 0.870D+00
 Coeff:      0.141D-01 0.116D+00 0.870D+00
 Gap=     0.150 Goal=   None    Shift=    0.000
 RMSDP=6.25D-03 MaxDP=1.90D-01 DE=-6.64D-02 OVMax= 4.10D-01

 Cycle   4  Pass 1  IDiag  1:
 E= -705.885848039098     Delta-E=        0.401203589730 Rises=F Damp=F
 DIIS: error= 4.47D-02 at cycle   4 NSaved=   4.
 NSaved= 4 IEnMin= 3 EnMin= -706.287051628828     IErMin= 2 ErrMin= 1.84D-02
 ErrMax= 4.47D-02  0.00D+00 EMaxC= 1.00D-01 BMatC= 5.29D-01 BMatP= 3.01D-02
 IDIUse=2 WtCom= 0.00D+00 WtEn= 1.00D+00
 Coeff-En:   0.000D+00 0.000D+00 0.818D+00 0.182D+00
 Coeff:      0.000D+00 0.000D+00 0.818D+00 0.182D+00
 Gap=     0.141 Goal=   None    Shift=    0.000
 RMSDP=3.50D-03 MaxDP=1.09D-01 DE= 4.01D-01 OVMax= 1.75D-01

 Cycle   5  Pass 1  IDiag  1:
 E= -706.314534518998     Delta-E=       -0.428686479900 Rises=F Damp=F
 DIIS: error= 1.26D-02 at cycle   5 NSaved=   5.
 NSaved= 5 IEnMin= 5 EnMin= -706.314534518998     IErMin= 5 ErrMin= 1.26D-02
 ErrMax= 1.26D-02  0.00D+00 EMaxC= 1.00D-01 BMatC= 3.42D-02 BMatP= 3.01D-02
 IDIUse=2 WtCom= 0.00D+00 WtEn= 1.00D+00
 Coeff-En:   0.000D+00 0.000D+00 0.392D+00 0.000D+00 0.608D+00
 Coeff:      0.000D+00 0.000D+00 0.392D+00 0.000D+00 0.608D+00
 Gap=     0.112 Goal=   None    Shift=    0.000
 RMSDP=1.94D-03 MaxDP=4.92D-02 DE=-4.29D-01 OVMax= 1.00D-01

 Cycle   6  Pass 1  IDiag  1:
 E= -706.345454832149     Delta-E=       -0.030920313151 Rises=F Damp=F
 DIIS: error= 2.96D-03 at cycle   6 NSaved=   6.
 NSaved= 6 IEnMin= 6 EnMin= -706.345454832149     IErMin= 6 ErrMin= 2.96D-03
 ErrMax= 2.96D-03  0.00D+00 EMaxC= 1.00D-01 BMatC= 2.62D-03 BMatP= 3.01D-02
 IDIUse=3 WtCom= 9.70D-01 WtEn= 2.96D-02
 Coeff-Com: -0.357D-01 0.490D-01 0.228D+00-0.296D-01 0.439D+00 0.349D+00
 Coeff-En:   0.000D+00 0.000D+00 0.000D+00 0.000D+00 0.752D-01 0.925D+00
 Coeff:     -0.347D-01 0.475D-01 0.221D+00-0.288D-01 0.429D+00 0.366D+00
 Gap=     0.123 Goal=   None    Shift=    0.000
 RMSDP=7.73D-04 MaxDP=2.13D-02 DE=-3.09D-02 OVMax= 4.52D-02

 Cycle   7  Pass 1  IDiag  1:
 E= -706.348691372627     Delta-E=       -0.003236540478 Rises=F Damp=F
 DIIS: error= 9.66D-04 at cycle   7 NSaved=   7.
 NSaved= 7 IEnMin= 7 EnMin= -706.348691372627     IErMin= 7 ErrMin= 9.66D-04
 ErrMax= 9.66D-04  0.00D+00 EMaxC= 1.00D-01 BMatC= 2.44D-04 BMatP= 2.62D-03
 IDIUse=3 WtCom= 9.90D-01 WtEn= 9.66D-03
 Coeff-Com: -0.301D-01 0.474D-01 0.975D-01-0.279D-01 0.221D+00 0.239D+00
 Coeff-Com:  0.453D+00
 Coeff-En:   0.000D+00 0.000D+00 0.000D+00 0.000D+00 0.000D+00 0.609D-01
 Coeff-En:   0.939D+00
 Coeff:     -0.298D-01 0.470D-01 0.966D-01-0.276D-01 0.219D+00 0.237D+00
 Coeff:      0.458D+00
 Gap=     0.121 Goal=   None    Shift=    0.000
 RMSDP=1.70D-04 MaxDP=5.05D-03 DE=-3.24D-03 OVMax= 9.67D-03

 Cycle   8  Pass 1  IDiag  1:
 E= -706.348960141525     Delta-E=       -0.000268768899 Rises=F Damp=F
 DIIS: error= 2.89D-04 at cycle   8 NSaved=   8.
 NSaved= 8 IEnMin= 8 EnMin= -706.348960141525     IErMin= 8 ErrMin= 2.89D-04
 ErrMax= 2.89D-04  0.00D+00 EMaxC= 1.00D-01 BMatC= 1.62D-05 BMatP= 2.44D-04
 IDIUse=3 WtCom= 9.97D-01 WtEn= 2.89D-03
 Coeff-Com:  0.103D-02-0.258D-02 0.862D-02-0.431D-02 0.266D-01 0.905D-01
 Coeff-Com:  0.209D+00 0.671D+00
 Coeff-En:   0.000D+00 0.000D+00 0.000D+00 0.000D+00 0.000D+00 0.000D+00
 Coeff-En:   0.000D+00 0.100D+01
 Coeff:      0.103D-02-0.257D-02 0.860D-02-0.430D-02 0.266D-01 0.902D-01
 Coeff:      0.209D+00 0.672D+00
 Gap=     0.121 Goal=   None    Shift=    0.000
 RMSDP=4.01D-05 MaxDP=8.74D-04 DE=-2.69D-04 OVMax= 2.22D-03

 Cycle   9  Pass 1  IDiag  1:
 E= -706.348973932932     Delta-E=       -0.000013791407 Rises=F Damp=F
 DIIS: error= 7.53D-05 at cycle   9 NSaved=   9.
 NSaved= 9 IEnMin= 9 EnMin= -706.348973932932     IErMin= 9 ErrMin= 7.53D-05
 ErrMax= 7.53D-05  0.00D+00 EMaxC= 1.00D-01 BMatC= 2.03D-06 BMatP= 1.62D-05
 IDIUse=1 WtCom= 1.00D+00 WtEn= 0.00D+00
 Coeff-Com:  0.284D-02-0.454D-02-0.186D-02-0.489D-03-0.789D-03 0.391D-01
 Coeff-Com:  0.886D-01 0.409D+00 0.468D+00
 Coeff:      0.284D-02-0.454D-02-0.186D-02-0.489D-03-0.789D-03 0.391D-01
 Coeff:      0.886D-01 0.409D+00 0.468D+00
 Gap=     0.121 Goal=   None    Shift=    0.000
 RMSDP=1.87D-05 MaxDP=5.29D-04 DE=-1.38D-05 OVMax= 8.99D-04

 Cycle  10  Pass 1  IDiag  1:
 E= -706.348976604741     Delta-E=       -0.000002671808 Rises=F Damp=F
 DIIS: error= 6.62D-06 at cycle  10 NSaved=  10.
 NSaved=10 IEnMin=10 EnMin= -706.348976604741     IErMin=10 ErrMin= 6.62D-06
 ErrMax= 6.62D-06  0.00D+00 EMaxC= 1.00D-01 BMatC= 1.30D-08 BMatP= 2.03D-06
 IDIUse=1 WtCom= 1.00D+00 WtEn= 0.00D+00
 Coeff-Com:  0.583D-03-0.855D-03-0.115D-02 0.154D-03-0.188D-02 0.436D-02
 Coeff-Com:  0.716D-02 0.496D-01 0.882D-01 0.854D+00
 Coeff:      0.583D-03-0.855D-03-0.115D-02 0.154D-03-0.188D-02 0.436D-02
 Coeff:      0.716D-02 0.496D-01 0.882D-01 0.854D+00
 Gap=     0.120 Goal=   None    Shift=    0.000
 RMSDP=2.37D-06 MaxDP=7.18D-05 DE=-2.67D-06 OVMax= 7.84D-05

 Cycle  11  Pass 1  IDiag  1:
 E= -706.348976621818     Delta-E=       -0.000000017077 Rises=F Damp=F
 DIIS: error= 2.36D-06 at cycle  11 NSaved=  11.
 NSaved=11 IEnMin=11 EnMin= -706.348976621818     IErMin=11 ErrMin= 2.36D-06
 ErrMax= 2.36D-06  0.00D+00 EMaxC= 1.00D-01 BMatC= 1.27D-09 BMatP= 1.30D-08
 IDIUse=1 WtCom= 1.00D+00 WtEn= 0.00D+00
 Coeff-Com: -0.727D-04 0.111D-03-0.100D-03 0.217D-04-0.833D-04-0.790D-03
 Coeff-Com: -0.175D-02-0.868D-02-0.102D-01 0.126D+00 0.896D+00
 Coeff:     -0.727D-04 0.111D-03-0.100D-03 0.217D-04-0.833D-04-0.790D-03
 Coeff:     -0.175D-02-0.868D-02-0.102D-01 0.126D+00 0.896D+00
 Gap=     0.120 Goal=   None    Shift=    0.000
 RMSDP=4.91D-07 MaxDP=8.19D-06 DE=-1.71D-08 OVMax= 1.63D-05

 Cycle  12  Pass 1  IDiag  1:
 E= -706.348976623260     Delta-E=       -0.000000001443 Rises=F Damp=F
 DIIS: error= 3.60D-07 at cycle  12 NSaved=  12.
 NSaved=12 IEnMin=12 EnMin= -706.348976623260     IErMin=12 ErrMin= 3.60D-07
 ErrMax= 3.60D-07  0.00D+00 EMaxC= 1.00D-01 BMatC= 4.59D-11 BMatP= 1.27D-09
 IDIUse=1 WtCom= 1.00D+00 WtEn= 0.00D+00
 Coeff-Com: -0.350D-04 0.511D-04-0.151D-05-0.236D-06 0.128D-04-0.228D-03
 Coeff-Com: -0.426D-03-0.193D-02-0.315D-02-0.959D-02 0.130D+00 0.885D+00
 Coeff:     -0.350D-04 0.511D-04-0.151D-05-0.236D-06 0.128D-04-0.228D-03
 Coeff:     -0.426D-03-0.193D-02-0.315D-02-0.959D-02 0.130D+00 0.885D+00
 Gap=     0.120 Goal=   None    Shift=    0.000
 RMSDP=1.17D-07 MaxDP=3.27D-06 DE=-1.44D-09 OVMax= 5.23D-06

 Cycle  13  Pass 1  IDiag  1:
 E= -706.348976623317     Delta-E=       -0.000000000057 Rises=F Damp=F
 DIIS: error= 1.41D-07 at cycle  13 NSaved=  13.
 NSaved=13 IEnMin=13 EnMin= -706.348976623317     IErMin=13 ErrMin= 1.41D-07
 ErrMax= 1.41D-07  0.00D+00 EMaxC= 1.00D-01 BMatC= 4.24D-12 BMatP= 4.59D-11
 IDIUse=1 WtCom= 1.00D+00 WtEn= 0.00D+00
 Coeff-Com: -0.653D-05 0.784D-05 0.200D-05 0.480D-06 0.606D-05-0.302D-04
 Coeff-Com: -0.898D-04-0.326D-03-0.777D-03-0.108D-01 0.212D-02 0.305D+00
 Coeff-Com:  0.705D+00
 Coeff:     -0.653D-05 0.784D-05 0.200D-05 0.480D-06 0.606D-05-0.302D-04
 Coeff:     -0.898D-04-0.326D-03-0.777D-03-0.108D-01 0.212D-02 0.305D+00
 Coeff:      0.705D+00
 Gap=     0.120 Goal=   None    Shift=    0.000
 RMSDP=3.04D-08 MaxDP=9.51D-07 DE=-5.72D-11 OVMax= 1.22D-06

 Cycle  14  Pass 1  IDiag  1:
 E= -706.348976623324     Delta-E=       -0.000000000006 Rises=F Damp=F
 DIIS: error= 3.00D-08 at cycle  14 NSaved=  14.
 NSaved=14 IEnMin=14 EnMin= -706.348976623324     IErMin=14 ErrMin= 3.00D-08
 ErrMax= 3.00D-08  0.00D+00 EMaxC= 1.00D-01 BMatC= 3.89D-13 BMatP= 4.24D-12
 IDIUse=1 WtCom= 1.00D+00 WtEn= 0.00D+00
 Coeff-Com:  0.175D-05-0.287D-05 0.353D-07 0.422D-07-0.110D-05 0.176D-04
 Coeff-Com:  0.161D-04 0.155D-03 0.427D-04-0.296D-02-0.164D-01 0.761D-02
 Coeff-Com:  0.256D+00 0.755D+00
 Coeff:      0.175D-05-0.287D-05 0.353D-07 0.422D-07-0.110D-05 0.176D-04
 Coeff:      0.161D-04 0.155D-03 0.427D-04-0.296D-02-0.164D-01 0.761D-02
 Coeff:      0.256D+00 0.755D+00
 Gap=     0.120 Goal=   None    Shift=    0.000
 RMSDP=1.27D-08 MaxDP=2.47D-07 DE=-6.25D-12 OVMax= 4.54D-07

 Cycle  15  Pass 1  IDiag  1:
 E= -706.348976623322     Delta-E=        0.000000000001 Rises=F Damp=F
 DIIS: error= 1.11D-08 at cycle  15 NSaved=  15.
 NSaved=15 IEnMin=14 EnMin= -706.348976623324     IErMin=15 ErrMin= 1.11D-08
 ErrMax= 1.11D-08  0.00D+00 EMaxC= 1.00D-01 BMatC= 4.24D-14 BMatP= 3.89D-13
 IDIUse=1 WtCom= 1.00D+00 WtEn= 0.00D+00
 Coeff-Com:  0.926D-06-0.134D-05 0.569D-06-0.108D-06 0.725D-06 0.545D-05
 Coeff-Com:  0.805D-05 0.366D-04-0.248D-04-0.123D-03-0.401D-02-0.160D-01
 Coeff-Com:  0.170D-01 0.209D+00 0.795D+00
 Coeff:      0.926D-06-0.134D-05 0.569D-06-0.108D-06 0.725D-06 0.545D-05
 Coeff:      0.805D-05 0.366D-04-0.248D-04-0.123D-03-0.401D-02-0.160D-01
 Coeff:      0.170D-01 0.209D+00 0.795D+00
 Gap=     0.120 Goal=   None    Shift=    0.000
 RMSDP=3.65D-09 MaxDP=1.31D-07 DE= 1.36D-12 OVMax= 1.37D-07

 Error on total polarization charges =  0.02403
 SCF Done:  E(RB3LYP) =  -706.348976623     A.U. after   15 cycles
            NFock= 15  Conv=0.36D-08     -V/T= 2.0064
 KE= 7.018262453276D+02 PE=-2.105556245605D+03 EE= 4.830807032132D+02
 SMD-CDS (non-electrostatic) energy       (kcal/mol) =       0.50
 (included in total energy above)
 Leave Link  502 at Wed Jan  8 01:52:38 2020, MaxMem=  4294967296 cpu:             578.8 elap:              44.8
 (Enter /home/cwagen/sw/g16/g16/l601.exe)
 Copying SCF densities to generalized density rwf, IOpCl= 0 IROHF=0.

 **********************************************************************

            Population analysis using the SCF density.

 **********************************************************************

 Orbital symmetries:
       Occupied  (A) (A) (A) (A) (A) (A) (A) (A) (A) (A) (A) (A)
                 (A) (A) (A) (A) (A) (A) (A) (A) (A) (A) (A) (A)
                 (A) (A) (A)
       Virtual   (A) (A) (A) (A) (A) (A) (A) (A) (A) (A) (A) (A)
                 (A) (A) (A) (A) (A) (A) (A) (A) (A) (A) (A) (A)
                 (A) (A) (A) (A) (A) (A) (A) (A) (A) (A) (A) (A)
                 (A) (A) (A) (A) (A) (A) (A) (A) (A) (A) (A) (A)
                 (A) (A) (A) (A) (A) (A) (A) (A) (A) (A) (A) (A)
                 (A) (A) (A) (A) (A) (A) (A) (A) (A) (A) (A) (A)
                 (A) (A) (A) (A) (A) (A) (A) (A) (A) (A) (A) (A)
                 (A) (A) (A) (A) (A) (A) (A) (A) (A) (A) (A) (A)
                 (A)
 The electronic state is 1-A.
 Alpha  occ. eigenvalues -- -101.46189 -19.20561 -14.30218 -10.36461 -10.21274
 Alpha  occ. eigenvalues --  -10.18479  -9.37416  -7.13491  -7.13055  -7.13051
 Alpha  occ. eigenvalues --   -1.04215  -0.86133  -0.74409  -0.70569  -0.55357
 Alpha  occ. eigenvalues --   -0.45400  -0.44322  -0.43952  -0.39079  -0.36671
 Alpha  occ. eigenvalues --   -0.35868  -0.30495  -0.30427  -0.27631  -0.25212
 Alpha  occ. eigenvalues --   -0.24470  -0.24450
 Alpha virt. eigenvalues --   -0.12400  -0.03625   0.03055   0.04494   0.04781
 Alpha virt. eigenvalues --    0.05392   0.06717   0.07722   0.08627   0.09263
 Alpha virt. eigenvalues --    0.10032   0.10208   0.10963   0.11810   0.13128
 Alpha virt. eigenvalues --    0.14047   0.14917   0.16300   0.16628   0.19902
 Alpha virt. eigenvalues --    0.22176   0.23150   0.24317   0.24850   0.25347
 Alpha virt. eigenvalues --    0.26316   0.27593   0.28131   0.30561   0.32498
 Alpha virt. eigenvalues --    0.34307   0.36543   0.40007   0.57464   0.62267
 Alpha virt. eigenvalues --    0.64784   0.65597   0.66672   0.67956   0.70333
 Alpha virt. eigenvalues --    0.71662   0.74455   0.74971   0.78702   0.79277
 Alpha virt. eigenvalues --    0.83368   0.85475   0.93390   0.95446   0.95998
 Alpha virt. eigenvalues --    0.96298   0.97137   0.97814   0.99401   1.01929
 Alpha virt. eigenvalues --    1.02383   1.07364   1.13352   1.16081   1.18383
 Alpha virt. eigenvalues --    1.25354   1.28868   1.30557   1.33171   1.43643
 Alpha virt. eigenvalues --    1.46309   1.49180   1.55710   1.57177   1.57651
 Alpha virt. eigenvalues --    1.60306   1.64566   1.74132   1.79178   1.83244
 Alpha virt. eigenvalues --    1.87467   1.95663   2.00141   2.00590   2.11060
 Alpha virt. eigenvalues --    2.18762   2.23117   2.26875   2.47392   2.49606
 Alpha virt. eigenvalues --    2.51778   2.63842   2.64411   2.70440   2.93192
 Alpha virt. eigenvalues --    3.07971   4.00573   4.14227   4.22583   4.26534
 Alpha virt. eigenvalues --    4.36983   4.43332
          Condensed to atoms (all electrons):
               1          2          3          4          5          6
     1  C    4.985400   0.528823   0.117186  -0.054043  -0.041442  -0.003236
     2  O    0.528823   7.949078  -0.127250   0.007424  -0.002846  -0.010565
     3  C    0.117186  -0.127250   5.708474   0.375206   0.365153   0.364872
     4  H   -0.054043   0.007424   0.375206   0.445549  -0.021666  -0.024916
     5  H   -0.041442  -0.002846   0.365153  -0.021666   0.442810  -0.022584
     6  H   -0.003236  -0.010565   0.364872  -0.024916  -0.022584   0.431081
     7  Cl   0.118587  -0.026608  -0.043945   0.002414  -0.001862   0.000913
     8  C   -0.013220  -0.078580  -0.103518   0.007536   0.013175  -0.017163
     9  N   -0.006155  -0.000878  -0.002757  -0.000490  -0.000068   0.000267
               7          8          9
     1  C    0.118587  -0.013220  -0.006155
     2  O   -0.026608  -0.078580  -0.000878
     3  C   -0.043945  -0.103518  -0.002757
     4  H    0.002414   0.007536  -0.000490
     5  H   -0.001862   0.013175  -0.000068
     6  H    0.000913  -0.017163   0.000267
     7  Cl  17.643848  -0.042065  -0.001742
     8  C   -0.042065   5.633789   0.644681
     9  N   -0.001742   0.644681   6.962687
 Mulliken charges:
               1
     1  C    0.368099
     2  O   -0.238598
     3  C   -0.653423
     4  H    0.262986
     5  H    0.269329
     6  H    0.281331
     7  Cl  -0.649542
     8  C   -0.044635
     9  N   -0.595546
 Sum of Mulliken charges =  -1.00000
 Mulliken charges with hydrogens summed into heavy atoms:
               1
     1  C    0.368099
     2  O   -0.238598
     3  C    0.160222
     7  Cl  -0.649542
     8  C   -0.044635
     9  N   -0.595546
 Electronic spatial extent (au):  <R**2>=           1075.1296
 Charge=             -1.0000 electrons
 Dipole moment (field-independent basis, Debye):
    X=              0.0636    Y=              7.8574    Z=             -2.6433  Tot=              8.2903
 Quadrupole moment (field-independent basis, Debye-Ang):
   XX=            -82.1582   YY=            -51.8743   ZZ=            -47.6036
   XY=              6.7200   XZ=             -0.9289   YZ=             -5.2838
 Traceless Quadrupole moment (field-independent basis, Debye-Ang):
   XX=            -21.6128   YY=              8.6710   ZZ=             12.9418
   XY=              6.7200   XZ=             -0.9289   YZ=             -5.2838
 Octapole moment (field-independent basis, Debye-Ang**2):
  XXX=            -31.7382  YYY=             34.3270  ZZZ=             -4.1845  XYY=            -14.7912
  XXY=             52.4367  XXZ=              2.7234  XZZ=             -0.9511  YZZ=              4.0093
  YYZ=             -5.9095  XYZ=             -2.3354
 Hexadecapole moment (field-independent basis, Debye-Ang**3):
 XXXX=          -1224.3382 YYYY=           -431.9842 ZZZZ=           -179.3810 XXXY=             98.6883
 XXXZ=              4.1242 YYYX=             43.2593 YYYZ=            -11.9688 ZZZX=             -0.7486
 ZZZY=             -5.9190 XXYY=           -291.4274 XXZZ=           -193.6942 YYZZ=           -102.7707
 XXYZ=             -4.3870 YYXZ=             -0.4418 ZZXY=              4.1108
 N-N= 2.143003204406D+02 E-N=-2.105556244061D+03  KE= 7.018262453276D+02
 No NMR shielding tensors so no spin-rotation constants.
 Leave Link  601 at Wed Jan  8 01:52:40 2020, MaxMem=  4294967296 cpu:              16.2 elap:               1.4
 (Enter /home/cwagen/sw/g16/g16/l701.exe)
 ... and contract with generalized density number  0.
 Compute integral first derivatives.
 D1PCM: PCM CHGder 1st derivatives, ID1Alg=3 FixD1E=F DoIter=F DoCFld=F I1PDM=0.
 GePol: Maximum number of non-zero 1st derivatives   =     409
 Leave Link  701 at Wed Jan  8 01:52:45 2020, MaxMem=  4294967296 cpu:              63.3 elap:               5.3
 (Enter /home/cwagen/sw/g16/g16/l702.exe)
 L702 exits ... SP integral derivatives will be done elsewhere.
 Leave Link  702 at Wed Jan  8 01:52:45 2020, MaxMem=  4294967296 cpu:               1.1 elap:               0.1
 (Enter /home/cwagen/sw/g16/g16/l703.exe)
 Integral derivatives from FoFJK, PRISM(SPDF).
 Compute integral first derivatives, UseDBF=F ICtDFT=           0.
 Calling FoFJK, ICntrl=      2127 FMM=F ISym2X=0 I1Cent= 0 IOpClX= 0 NMat=1 NMatS=1 NMatT=0.
 FoFJK:  IHMeth= 1 ICntrl=    2127 DoSepK=F KAlg= 0 I1Cent=           0 FoldK=F
 IRaf=         0 NMat=       1 IRICut=       1 DoRegI=T DoRafI=F ISym2E= 0 IDoP0=0 IntGTp=1.
 FoFCou: FMM=F IPFlag=           0 FMFlag=      100000 FMFlg1=         800
         NFxFlg=           0 DoJE=F BraDBF=F KetDBF=F FulRan=T
         wScrn=  0.000000 ICntrl=      2127 IOpCl=  0 I1Cent=           0 NGrid=           0
         NMat0=    1 NMatS0=      1 NMatT0=    0 NMatD0=    1 NMtDS0=    0 NMtDT0=    0
 Symmetry not used in FoFCou.
 Leave Link  703 at Wed Jan  8 01:52:48 2020, MaxMem=  4294967296 cpu:              36.3 elap:               2.9
 (Enter /home/cwagen/sw/g16/g16/l716.exe)
 Dipole        = 2.50111520D-02 3.09132280D+00-1.03996450D+00
 ***** Axes restored to original set *****
 -------------------------------------------------------------------
 Center     Atomic                   Forces (Hartrees/Bohr)
 Number     Number              X              Y              Z
 -------------------------------------------------------------------
      1        6           0.019237320   -0.089254591   -0.128571146
      2        8           0.001722703    0.071919489    0.132876916
      3        6          -0.008794223    0.025274373    0.015932317
      4        1          -0.000436212    0.001922871   -0.004787301
      5        1           0.000584766    0.003388172   -0.001527171
      6        1           0.002678837    0.005887656   -0.005079884
      7       17           0.012829263   -0.015800913   -0.004592230
      8        6          -0.035221020   -0.004819022   -0.005325098
      9        7           0.007398566    0.001481966    0.001073598
 -------------------------------------------------------------------
 Cartesian Forces:  Max     0.132876916 RMS     0.043274645
 Leave Link  716 at Wed Jan  8 01:52:48 2020, MaxMem=  4294967296 cpu:               1.2 elap:               0.1
 (Enter /home/cwagen/sw/g16/g16/l103.exe)

 GradGradGradGradGradGradGradGradGradGradGradGradGradGradGradGradGradGrad
 Berny optimization.
 FormGI is forming the generalized inverse of G from B-inverse, IUseBI=4.
 Internal  Forces:  Max     0.147888050 RMS     0.030209529
 Search for a local minimum.
 Step number   1 out of a maximum of   41
 All quantities printed in internal units (Hartrees-Bohrs-Radians)
 RMS Force = .30565D-01 SwitMx=.10000D-02 MixMth= 1
 Mixed Optimization -- RFO/linear search
 Second derivative matrix not updated -- first step.
 ITU=  0
     Eigenvalues ---    0.00230   0.04746   0.04746   0.05330   0.05908
     Eigenvalues ---    0.07453   0.10176   0.16000   0.16000   0.16000
     Eigenvalues ---    0.25000   0.25000   0.25000   0.26946   0.33918
     Eigenvalues ---    0.33999   0.34275   0.67840   1.220341000.00000
     Eigenvalues --- 1000.000001000.000001000.000001000.000001000.00000
     Eigenvalues --- 1000.000001000.000001000.000001000.000001000.00000
     Eigenvalues --- 1000.00000
 RFO step:  Lambda=-4.94225392D-02 EMin= 2.30000000D-03
 Linear search not attempted -- first point.
 Maximum step size (   0.300) exceeded in Quadratic search.
    -- Step size scaled by   0.928
 Iteration  1 RMS(Cart)=  0.06486543 RMS(Int)=  0.00604617
 Iteration  2 RMS(Cart)=  0.00719764 RMS(Int)=  0.00206010
 Iteration  3 RMS(Cart)=  0.00005778 RMS(Int)=  0.00205958
 Iteration  4 RMS(Cart)=  0.00000059 RMS(Int)=  0.00205958
 Iteration  1 RMS(Cart)=  0.00000000 RMS(Int)=  0.00000000
 ITry= 1 IFail=0 DXMaxC= 1.70D-01 DCOld= 1.00D+10 DXMaxT= 3.00D-01 DXLimC= 3.00D+00 Rises=F
 Variable       Old X    -DE/DX   Delta X   Delta X   Delta X     New X
                                 (Linear)    (Quad)   (Total)
    R1        2.45227  -0.14789   0.00000  -0.18852  -0.18852   2.26376
    R2        2.94503  -0.02369   0.00000  -0.06892  -0.06892   2.87611
    R3        5.29123  -0.02083   0.00000   0.00000   0.00000   5.29123
    R4        4.34637  -0.02765   0.00000   0.00000   0.00000   4.34637
    R5        2.07331  -0.00403   0.00000  -0.00960  -0.00960   2.06371
    R6        2.07468  -0.00168   0.00000  -0.00401  -0.00401   2.07067
    R7        2.06868  -0.00135   0.00000  -0.00320  -0.00320   2.06548
    R8        2.20923   0.00757   0.00000   0.00553   0.00553   2.21476
    A1        1.99667   0.05442   0.00000   0.17887   0.17635   2.17302
    A2        2.01908  -0.02215   0.00000  -0.07073  -0.06872   1.95036
    A3        1.89239  -0.01182   0.00000  -0.00626  -0.01409   1.87830
    A4        1.92419  -0.01946   0.00000  -0.07165  -0.07041   1.85378
    A5        1.77194   0.00424   0.00000   0.01562   0.01000   1.78194
    A6        1.83479  -0.00697   0.00000  -0.05262  -0.05359   1.78120
    A7        1.97398  -0.00211   0.00000  -0.00997  -0.01021   1.96377
    A8        1.87942  -0.00225   0.00000  -0.00806  -0.00820   1.87123
    A9        1.90140  -0.01039   0.00000  -0.04739  -0.04778   1.85362
   A10        1.90356   0.00295   0.00000   0.01545   0.01543   1.91900
   A11        1.90837   0.00594   0.00000   0.02286   0.02237   1.93074
   A12        1.89554   0.00613   0.00000   0.02845   0.02815   1.92369
   A13        3.09466  -0.00116   0.00000  -0.01114  -0.01114   3.08352
   A14        2.88672   0.00124   0.00000   0.01191   0.01191   2.89863
    D1        3.04510   0.00403   0.00000   0.02641   0.02885   3.07395
    D2       -1.13357   0.00487   0.00000   0.03404   0.03627  -1.09730
    D3        0.91915   0.00530   0.00000   0.03778   0.04005   0.95919
    D4       -0.92685   0.00361   0.00000   0.02069   0.02010  -0.90675
    D5        1.17766   0.00445   0.00000   0.02832   0.02751   1.20518
    D6       -3.05280   0.00488   0.00000   0.03206   0.03129  -3.02151
    D7        1.01121  -0.00924   0.00000  -0.05694  -0.05839   0.95281
    D8        3.11572  -0.00840   0.00000  -0.04931  -0.05098   3.06474
    D9       -1.11475  -0.00797   0.00000  -0.04557  -0.04720  -1.16194
         Item               Value     Threshold  Converged?
 Maximum Force            0.147888     0.000450     NO 
 RMS     Force            0.030565     0.000300     NO 
 Maximum Displacement     0.170014     0.001800     NO 
 RMS     Displacement     0.063742     0.001200     NO 
 Predicted change in Energy=-2.721785D-02
 Lowest energy point so far.  Saving SCF results.
 GradGradGradGradGradGradGradGradGradGradGradGradGradGradGradGradGradGrad

 Leave Link  103 at Wed Jan  8 01:52:54 2020, MaxMem=  4294967296 cpu:              69.5 elap:               5.8
 (Enter /home/cwagen/sw/g16/g16/l202.exe)
                          Input orientation:                          
 ---------------------------------------------------------------------
 Center     Atomic      Atomic             Coordinates (Angstroms)
 Number     Number       Type             X           Y           Z
 ---------------------------------------------------------------------
      1          6           0       -0.179865   -0.381967   -0.253078
      2          8           0       -0.242924   -0.586683   -1.431698
      3          6           0       -0.341154   -1.451544    0.817615
      4          1           0       -0.180696   -1.062161    1.825213
      5          1           0       -1.358249   -1.849248    0.728053
      6          1           0        0.390493   -2.229346    0.584421
      7         17           0       -1.821725    1.750769    0.518762
      8          6           0        1.919986    0.440193    0.199339
      9          7           0        3.049687    0.745565    0.263457
 ---------------------------------------------------------------------
                    Distance matrix (angstroms):
                    1          2          3          4          5
     1  C    0.000000
     2  O    1.197928   0.000000
     3  C    1.521971   2.411855   0.000000
     4  H    2.186769   3.292024   1.092071   0.000000
     5  H    2.122292   2.739078   1.095752   1.791619   0.000000
     6  H    2.107018   2.676620   1.093006   1.796702   1.795328
     7  Cl   2.800000   3.429372   3.540651   3.508898   3.635757
     8  C    2.300000   2.897056   3.012256   3.051786   4.033349
     9  N    3.459500   3.935698   4.078257   4.017751   5.136030
                    6          7          8          9
     6  H    0.000000
     7  Cl   4.554067   0.000000
     8  C    3.100656   3.977441   0.000000
     9  N    4.003052   4.980589   1.172002   0.000000
 Stoichiometry    C3H3ClNO(1-)
 Framework group  C1[X(C3H3ClNO)]
 Deg. of freedom    21
 Full point group                 C1      NOp   1
 RotChk:  IX=0 Diff= 4.89D-02
 Largest Abelian subgroup         C1      NOp   1
 Largest concise Abelian subgroup C1      NOp   1
                         Standard orientation:                         
 ---------------------------------------------------------------------
 Center     Atomic      Atomic             Coordinates (Angstroms)
 Number     Number       Type             X           Y           Z
 ---------------------------------------------------------------------
      1          6           0        0.161156    0.749931    0.238434
      2          8           0        0.262880    1.175827    1.353466
      3          6           0        0.262662    1.598250   -1.021109
      4          1           0        0.207965    1.000503   -1.933428
      5          1           0       -0.563687    2.317380   -0.995191
      6          1           0        1.220544    2.121152   -0.960305
      7         17           0       -2.132119   -0.827804   -0.064292
      8          6           0        1.845068   -0.784659   -0.076957
      9          7           0        2.809263   -1.450589   -0.098291
 ---------------------------------------------------------------------
 Rotational constants (GHZ):           2.8184079           1.3951064           1.1336743
 Leave Link  202 at Wed Jan  8 01:52:54 2020, MaxMem=  4294967296 cpu:               2.0 elap:               0.2
 (Enter /home/cwagen/sw/g16/g16/l301.exe)
 Standard basis: 6-31+G(d) (6D, 7F)
 Ernie: Thresh=  0.10000D-02 Tol=  0.10000D-05 Strict=F.
 There are   124 symmetry adapted cartesian basis functions of A   symmetry.
 There are   124 symmetry adapted basis functions of A   symmetry.
   124 basis functions,   228 primitive gaussians,   124 cartesian basis functions
    27 alpha electrons       27 beta electrons
       nuclear repulsion energy       218.6121711328 Hartrees.
 IExCor=  402 DFT=T Ex+Corr=B3LYP ExCW=0 ScaHFX=  0.200000
 ScaDFX=  0.800000  0.720000  1.000000  0.810000 ScalE2=  1.000000  1.000000
 IRadAn=      5 IRanWt=     -1 IRanGd=            0 ICorTp=0 IEmpDi=  4
 NAtoms=    9 NActive=    9 NUniq=    9 SFac= 1.00D+00 NAtFMM=   60 NAOKFM=F Big=F
 Integral buffers will be    131072 words long.
 Raffenetti 2 integral format.
 Two-electron integral symmetry is turned on.
 ------------------------------------------------------------------------------
 Polarizable Continuum Model (PCM)
 =================================
 Model                : PCM.
 Atomic radii         : SMD-Coulomb.
 Polarization charges : Total charges.
 Charge compensation  : None.
 Solution method      : On-the-fly selection.
 Cavity type          : VdW (van der Waals Surface) (Alpha=1.000).
 Cavity algorithm     : GePol (No added spheres)
                        Default sphere list used, NSphG=    9.
                        Lebedev-Laikov grids with approx.  5.0 points / Ang**2.
                        Smoothing algorithm: York/Karplus (Gamma=1.0000).
                        Polarization charges: spherical gaussians, with
                                              point-specific exponents (IZeta= 3).
                        Self-potential: point-specific (ISelfS= 7).
                        Self-field    : sphere-specific E.n sum rule (ISelfD= 2).
 1st derivatives      : Analytical E(r).r(x)/FMM algorithm (CHGder, D1EAlg=3).
                        Cavity 1st derivative terms included.
 Solvent              : TetraHydroFuran, Eps=   7.425700 Eps(inf)=   1.974025
 ------------------------------------------------------------------------------
 Spheres list:
 ISph  on   Nord     Re0    Alpha      Xe            Ye            Ze
    1   C      1    1.8500  1.000      0.161156      0.749931      0.238434
    2   O      2    2.2940  1.000      0.262880      1.175827      1.353466
    3   C      3    1.8500  1.000      0.262662      1.598250     -1.021109
    4   H      4    1.2000  1.000      0.207965      1.000503     -1.933428
    5   H      5    1.2000  1.000     -0.563687      2.317380     -0.995191
    6   H      6    1.2000  1.000      1.220544      2.121152     -0.960305
    7  Cl      7    2.3800  1.000     -2.132119     -0.827804     -0.064292
    8   C      8    1.8500  1.000      1.845068     -0.784659     -0.076957
    9   N      9    1.8900  1.000      2.809263     -1.450589     -0.098291
 ------------------------------------------------------------------------------
 GePol: Number of generator spheres                  =       9
 GePol: Total number of spheres                      =       9
 GePol: Number of exposed spheres                    =       9 (100.00%)
 GePol: Number of points                             =    1312
 GePol: Average weight of points                     =       0.13
 GePol: Minimum weight of points                     =   0.26D-08
 GePol: Maximum weight of points                     =    0.18138
 GePol: Number of points with low weight             =      35
 GePol: Fraction of low-weight points (<1% of avg)   =       2.67%
 GePol: Cavity surface area                          =    176.404 Ang**2
 GePol: Cavity volume                                =    157.161 Ang**3
 ------------------------------------------------------------------------------
 Atomic radii for non-electrostatic terms: SMD-CDS.
 ------------------------------------------------------------------------------
 PCM non-electrostatic energy =         0.0006106520 Hartrees.
 Nuclear repulsion after PCM non-electrostatic terms =      218.6127817849 Hartrees.
 Leave Link  301 at Wed Jan  8 01:52:55 2020, MaxMem=  4294967296 cpu:               2.2 elap:               0.2
 (Enter /home/cwagen/sw/g16/g16/l302.exe)
 NPDir=0 NMtPBC=     1 NCelOv=     1 NCel=       1 NClECP=     1 NCelD=      1
         NCelK=      1 NCelE2=     1 NClLst=     1 CellRange=     0.0.
 One-electron integrals computed using PRISM.
 One-electron integral symmetry used in STVInt
 NBasis=   124 RedAO= T EigKep=  1.53D-04  NBF=   124
 NBsUse=   124 1.00D-06 EigRej= -1.00D+00 NBFU=   124
 Precomputing XC quadrature grid using
 IXCGrd= 4 IRadAn=           5 IRanWt=          -1 IRanGd=           0 AccXCQ= 0.00D+00.
 Generated NRdTot=       0 NPtTot=           0 NUsed=           0 NTot=          32
 NSgBfM=   124   124   124   124   124 MxSgAt=     9 MxSgA2=     9.
 Leave Link  302 at Wed Jan  8 01:52:57 2020, MaxMem=  4294967296 cpu:              26.0 elap:               2.2
 (Enter /home/cwagen/sw/g16/g16/l303.exe)
 DipDrv:  MaxL=1.
 Leave Link  303 at Wed Jan  8 01:53:00 2020, MaxMem=  4294967296 cpu:               3.7 elap:               2.8
 (Enter /home/cwagen/sw/g16/g16/l401.exe)
 Initial guess from the checkpoint file:  "/scratch/users/cwagen/cwagen_scan_280_230/Gau-12192.chk"
 B after Tr=     0.000000    0.000000    0.000000
         Rot=    0.999872   -0.007681   -0.001225   -0.013953 Ang=  -1.83 deg.
 Guess basis will be translated and rotated to current coordinates.
 JPrj=2 DoOrth=T DoCkMO=T.
 Generating alternative initial guess.
 ExpMin= 4.38D-02 ExpMax= 2.52D+04 ExpMxC= 3.78D+03 IAcc=2 IRadAn=         4 AccDes= 0.00D+00
 Harris functional with IExCor=  402 and IRadAn=       4 diagonalized for initial guess.
 HarFok:  IExCor=  402 AccDes= 0.00D+00 IRadAn=         4 IDoV= 1 UseB2=F ITyADJ=14
 ICtDFT=  3500011 ScaDFX=  1.000000  1.000000  1.000000  1.000000
 FoFCou: FMM=F IPFlag=           0 FMFlag=      100000 FMFlg1=           0
         NFxFlg=           0 DoJE=T BraDBF=F KetDBF=T FulRan=T
         wScrn=  0.000000 ICntrl=       500 IOpCl=  0 I1Cent=   200000004 NGrid=           0
         NMat0=    1 NMatS0=      1 NMatT0=    0 NMatD0=    1 NMtDS0=    0 NMtDT0=    0
 Petite list used in FoFCou.
 Harris En= -706.364766172083    
 Leave Link  401 at Wed Jan  8 01:53:03 2020, MaxMem=  4294967296 cpu:              40.8 elap:               3.3
 (Enter /home/cwagen/sw/g16/g16/l502.exe)
 Keep R1 ints in memory in canonical form, NReq=45236517.
 FoFCou: FMM=F IPFlag=           0 FMFlag=           0 FMFlg1=           0
         NFxFlg=           0 DoJE=F BraDBF=F KetDBF=F FulRan=T
         wScrn=  0.000000 ICntrl=       600 IOpCl=  0 I1Cent=           0 NGrid=           0
         NMat0=    1 NMatS0=   7750 NMatT0=    0 NMatD0=    1 NMtDS0=    0 NMtDT0=    0
 Symmetry not used in FoFCou.
 Two-electron integral symmetry not used.
 Closed shell SCF:
 Using DIIS extrapolation, IDIIS=  1040.
 NGot=  4294967296 LenX=  4264898079 LenY=  4264882262
 Requested convergence on RMS density matrix=1.00D-08 within 128 cycles.
 Requested convergence on MAX density matrix=1.00D-06.
 Requested convergence on             energy=1.00D-06.
 No special actions if energy rises.

 Cycle   1  Pass 1  IDiag  1:
 Inv3:  Mode=1 IEnd=     5164032.
 Iteration    1 A*A^-1 deviation from unit magnitude is 5.77D-15 for   1308.
 Iteration    1 A*A^-1 deviation from orthogonality  is 1.39D-15 for   1295   1293.
 Iteration    1 A^-1*A deviation from unit magnitude is 5.77D-15 for   1308.
 Iteration    1 A^-1*A deviation from orthogonality  is 1.44D-15 for    591    245.
 E= -706.367321148159    
 DIIS: error= 6.72D-03 at cycle   1 NSaved=   1.
 NSaved= 1 IEnMin= 1 EnMin= -706.367321148159     IErMin= 1 ErrMin= 6.72D-03
 ErrMax= 6.72D-03  0.00D+00 EMaxC= 1.00D-01 BMatC= 1.06D-02 BMatP= 1.06D-02
 IDIUse=3 WtCom= 9.33D-01 WtEn= 6.72D-02
 Coeff-Com:  0.100D+01
 Coeff-En:   0.100D+01
 Coeff:      0.100D+01
 Gap=     0.585 Goal=   None    Shift=    0.000
 GapD=    0.585 DampG=2.000 DampE=1.000 DampFc=2.0000 IDamp=-1.
 RMSDP=1.82D-03 MaxDP=3.23D-02              OVMax= 4.24D-02

 Cycle   2  Pass 1  IDiag  1:
 E= -706.383600280188     Delta-E=       -0.016279132029 Rises=F Damp=F
 DIIS: error= 1.72D-03 at cycle   2 NSaved=   2.
 NSaved= 2 IEnMin= 2 EnMin= -706.383600280188     IErMin= 2 ErrMin= 1.72D-03
 ErrMax= 1.72D-03  0.00D+00 EMaxC= 1.00D-01 BMatC= 8.99D-04 BMatP= 1.06D-02
 IDIUse=3 WtCom= 9.83D-01 WtEn= 1.72D-02
 Coeff-Com:  0.106D+00 0.894D+00
 Coeff-En:   0.000D+00 0.100D+01
 Coeff:      0.104D+00 0.896D+00
 Gap=     0.144 Goal=   None    Shift=    0.000
 RMSDP=5.49D-04 MaxDP=1.66D-02 DE=-1.63D-02 OVMax= 2.82D-02

 Cycle   3  Pass 1  IDiag  1:
 E= -706.382589353633     Delta-E=        0.001010926554 Rises=F Damp=F
 DIIS: error= 2.91D-03 at cycle   3 NSaved=   3.
 NSaved= 3 IEnMin= 2 EnMin= -706.383600280188     IErMin= 2 ErrMin= 1.72D-03
 ErrMax= 2.91D-03  0.00D+00 EMaxC= 1.00D-01 BMatC= 2.12D-03 BMatP= 8.99D-04
 IDIUse=3 WtCom= 1.56D-01 WtEn= 8.44D-01
 Coeff-Com: -0.117D-01 0.618D+00 0.394D+00
 Coeff-En:   0.000D+00 0.672D+00 0.328D+00
 Coeff:     -0.183D-02 0.664D+00 0.338D+00
 Gap=     0.138 Goal=   None    Shift=    0.000
 RMSDP=3.53D-04 MaxDP=1.12D-02 DE= 1.01D-03 OVMax= 1.59D-02

 Cycle   4  Pass 1  IDiag  1:
 E= -706.384342762615     Delta-E=       -0.001753408982 Rises=F Damp=F
 DIIS: error= 7.14D-04 at cycle   4 NSaved=   4.
 NSaved= 4 IEnMin= 4 EnMin= -706.384342762615     IErMin= 4 ErrMin= 7.14D-04
 ErrMax= 7.14D-04  0.00D+00 EMaxC= 1.00D-01 BMatC= 7.54D-05 BMatP= 8.99D-04
 IDIUse=3 WtCom= 9.93D-01 WtEn= 7.14D-03
 Coeff-Com: -0.220D-01 0.258D+00 0.193D+00 0.571D+00
 Coeff-En:   0.000D+00 0.000D+00 0.000D+00 0.100D+01
 Coeff:     -0.218D-01 0.256D+00 0.192D+00 0.574D+00
 Gap=     0.136 Goal=   None    Shift=    0.000
 RMSDP=1.21D-04 MaxDP=2.36D-03 DE=-1.75D-03 OVMax= 3.15D-03

 Cycle   5  Pass 1  IDiag  1:
 E= -706.384400313671     Delta-E=       -0.000057551056 Rises=F Damp=F
 DIIS: error= 2.11D-04 at cycle   5 NSaved=   5.
 NSaved= 5 IEnMin= 5 EnMin= -706.384400313671     IErMin= 5 ErrMin= 2.11D-04
 ErrMax= 2.11D-04  0.00D+00 EMaxC= 1.00D-01 BMatC= 1.28D-05 BMatP= 7.54D-05
 IDIUse=3 WtCom= 9.98D-01 WtEn= 2.11D-03
 Coeff-Com: -0.728D-02 0.817D-01 0.787D-01 0.321D+00 0.526D+00
 Coeff-En:   0.000D+00 0.000D+00 0.000D+00 0.134D+00 0.866D+00
 Coeff:     -0.727D-02 0.815D-01 0.785D-01 0.320D+00 0.527D+00
 Gap=     0.138 Goal=   None    Shift=    0.000
 RMSDP=6.52D-05 MaxDP=1.80D-03 DE=-5.76D-05 OVMax= 2.35D-03

 Cycle   6  Pass 1  IDiag  1:
 E= -706.384415379224     Delta-E=       -0.000015065553 Rises=F Damp=F
 DIIS: error= 9.33D-05 at cycle   6 NSaved=   6.
 NSaved= 6 IEnMin= 6 EnMin= -706.384415379224     IErMin= 6 ErrMin= 9.33D-05
 ErrMax= 9.33D-05  0.00D+00 EMaxC= 1.00D-01 BMatC= 1.76D-06 BMatP= 1.28D-05
 IDIUse=1 WtCom= 1.00D+00 WtEn= 0.00D+00
 Coeff-Com: -0.227D-02 0.162D-01 0.230D-01 0.122D+00 0.319D+00 0.522D+00
 Coeff:     -0.227D-02 0.162D-01 0.230D-01 0.122D+00 0.319D+00 0.522D+00
 Gap=     0.137 Goal=   None    Shift=    0.000
 RMSDP=1.73D-05 MaxDP=5.47D-04 DE=-1.51D-05 OVMax= 7.05D-04

 Cycle   7  Pass 1  IDiag  1:
 E= -706.384417262378     Delta-E=       -0.000001883153 Rises=F Damp=F
 DIIS: error= 2.98D-05 at cycle   7 NSaved=   7.
 NSaved= 7 IEnMin= 7 EnMin= -706.384417262378     IErMin= 7 ErrMin= 2.98D-05
 ErrMax= 2.98D-05  0.00D+00 EMaxC= 1.00D-01 BMatC= 1.47D-07 BMatP= 1.76D-06
 IDIUse=1 WtCom= 1.00D+00 WtEn= 0.00D+00
 Coeff-Com: -0.575D-03 0.587D-03 0.484D-02 0.394D-01 0.144D+00 0.288D+00
 Coeff-Com:  0.524D+00
 Coeff:     -0.575D-03 0.587D-03 0.484D-02 0.394D-01 0.144D+00 0.288D+00
 Coeff:      0.524D+00
 Gap=     0.137 Goal=   None    Shift=    0.000
 RMSDP=4.62D-06 MaxDP=9.81D-05 DE=-1.88D-06 OVMax= 1.75D-04

 Cycle   8  Pass 1  IDiag  1:
 E= -706.384417375516     Delta-E=       -0.000000113138 Rises=F Damp=F
 DIIS: error= 1.80D-05 at cycle   8 NSaved=   8.
 NSaved= 8 IEnMin= 8 EnMin= -706.384417375516     IErMin= 8 ErrMin= 1.80D-05
 ErrMax= 1.80D-05  0.00D+00 EMaxC= 1.00D-01 BMatC= 4.66D-08 BMatP= 1.47D-07
 IDIUse=1 WtCom= 1.00D+00 WtEn= 0.00D+00
 Coeff-Com:  0.942D-04-0.289D-02-0.170D-02 0.226D-02 0.389D-01 0.830D-01
 Coeff-Com:  0.370D+00 0.510D+00
 Coeff:      0.942D-04-0.289D-02-0.170D-02 0.226D-02 0.389D-01 0.830D-01
 Coeff:      0.370D+00 0.510D+00
 Gap=     0.137 Goal=   None    Shift=    0.000
 RMSDP=1.94D-06 MaxDP=4.02D-05 DE=-1.13D-07 OVMax= 7.47D-05

 Cycle   9  Pass 1  IDiag  1:
 E= -706.384417413956     Delta-E=       -0.000000038440 Rises=F Damp=F
 DIIS: error= 3.98D-06 at cycle   9 NSaved=   9.
 NSaved= 9 IEnMin= 9 EnMin= -706.384417413956     IErMin= 9 ErrMin= 3.98D-06
 ErrMax= 3.98D-06  0.00D+00 EMaxC= 1.00D-01 BMatC= 4.15D-09 BMatP= 4.66D-08
 IDIUse=1 WtCom= 1.00D+00 WtEn= 0.00D+00
 Coeff-Com:  0.102D-03-0.174D-02-0.176D-02-0.289D-02 0.901D-02 0.134D-01
 Coeff-Com:  0.162D+00 0.293D+00 0.529D+00
 Coeff:      0.102D-03-0.174D-02-0.176D-02-0.289D-02 0.901D-02 0.134D-01
 Coeff:      0.162D+00 0.293D+00 0.529D+00
 Gap=     0.137 Goal=   None    Shift=    0.000
 RMSDP=9.46D-07 MaxDP=2.59D-05 DE=-3.84D-08 OVMax= 4.56D-05

 Cycle  10  Pass 1  IDiag  1:
 E= -706.384417419091     Delta-E=       -0.000000005135 Rises=F Damp=F
 DIIS: error= 8.77D-07 at cycle  10 NSaved=  10.
 NSaved=10 IEnMin=10 EnMin= -706.384417419091     IErMin=10 ErrMin= 8.77D-07
 ErrMax= 8.77D-07  0.00D+00 EMaxC= 1.00D-01 BMatC= 2.36D-10 BMatP= 4.15D-09
 IDIUse=1 WtCom= 1.00D+00 WtEn= 0.00D+00
 Coeff-Com:  0.325D-04-0.284D-03-0.583D-03-0.136D-02-0.773D-03-0.720D-02
 Coeff-Com:  0.119D-01 0.466D-01 0.196D+00 0.756D+00
 Coeff:      0.325D-04-0.284D-03-0.583D-03-0.136D-02-0.773D-03-0.720D-02
 Coeff:      0.119D-01 0.466D-01 0.196D+00 0.756D+00
 Gap=     0.137 Goal=   None    Shift=    0.000
 RMSDP=1.87D-07 MaxDP=3.65D-06 DE=-5.13D-09 OVMax= 7.80D-06

 Cycle  11  Pass 1  IDiag  1:
 E= -706.384417419374     Delta-E=       -0.000000000284 Rises=F Damp=F
 DIIS: error= 2.17D-07 at cycle  11 NSaved=  11.
 NSaved=11 IEnMin=11 EnMin= -706.384417419374     IErMin=11 ErrMin= 2.17D-07
 ErrMax= 2.17D-07  0.00D+00 EMaxC= 1.00D-01 BMatC= 5.19D-12 BMatP= 2.36D-10
 IDIUse=1 WtCom= 1.00D+00 WtEn= 0.00D+00
 Coeff-Com:  0.608D-05-0.154D-04-0.110D-03-0.342D-03-0.646D-03-0.300D-02
 Coeff-Com: -0.373D-02 0.314D-02 0.394D-01 0.244D+00 0.721D+00
 Coeff:      0.608D-05-0.154D-04-0.110D-03-0.342D-03-0.646D-03-0.300D-02
 Coeff:     -0.373D-02 0.314D-02 0.394D-01 0.244D+00 0.721D+00
 Gap=     0.137 Goal=   None    Shift=    0.000
 RMSDP=7.13D-08 MaxDP=2.62D-06 DE=-2.84D-10 OVMax= 1.08D-06

 Cycle  12  Pass 1  IDiag  1:
 E= -706.384417419377     Delta-E=       -0.000000000003 Rises=F Damp=F
 DIIS: error= 4.52D-08 at cycle  12 NSaved=  12.
 NSaved=12 IEnMin=12 EnMin= -706.384417419377     IErMin=12 ErrMin= 4.52D-08
 ErrMax= 4.52D-08  0.00D+00 EMaxC= 1.00D-01 BMatC= 8.89D-13 BMatP= 5.19D-12
 IDIUse=1 WtCom= 1.00D+00 WtEn= 0.00D+00
 Coeff-Com:  0.750D-06 0.106D-04-0.579D-05-0.637D-04-0.216D-03-0.739D-03
 Coeff-Com: -0.244D-02-0.125D-02 0.430D-02 0.546D-01 0.324D+00 0.622D+00
 Coeff:      0.750D-06 0.106D-04-0.579D-05-0.637D-04-0.216D-03-0.739D-03
 Coeff:     -0.244D-02-0.125D-02 0.430D-02 0.546D-01 0.324D+00 0.622D+00
 Gap=     0.137 Goal=   None    Shift=    0.000
 RMSDP=9.40D-09 MaxDP=2.21D-07 DE=-2.96D-12 OVMax= 2.75D-07

 Error on total polarization charges =  0.02517
 SCF Done:  E(RB3LYP) =  -706.384417419     A.U. after   12 cycles
            NFock= 12  Conv=0.94D-08     -V/T= 2.0060
 KE= 7.021522484843D+02 PE=-2.114404535076D+03 EE= 4.872550873879D+02
 SMD-CDS (non-electrostatic) energy       (kcal/mol) =       0.38
 (included in total energy above)
 Leave Link  502 at Wed Jan  8 01:53:41 2020, MaxMem=  4294967296 cpu:             518.9 elap:              38.6
 (Enter /home/cwagen/sw/g16/g16/l701.exe)
 ... and contract with generalized density number  0.
 Compute integral first derivatives.
 D1PCM: PCM CHGder 1st derivatives, ID1Alg=3 FixD1E=F DoIter=F DoCFld=F I1PDM=0.
 GePol: Maximum number of non-zero 1st derivatives   =     408
 Leave Link  701 at Wed Jan  8 01:53:47 2020, MaxMem=  4294967296 cpu:              67.3 elap:               5.5
 (Enter /home/cwagen/sw/g16/g16/l702.exe)
 L702 exits ... SP integral derivatives will be done elsewhere.
 Leave Link  702 at Wed Jan  8 01:53:47 2020, MaxMem=  4294967296 cpu:               1.1 elap:               0.2
 (Enter /home/cwagen/sw/g16/g16/l703.exe)
 Integral derivatives from FoFJK, PRISM(SPDF).
 Compute integral first derivatives, UseDBF=F ICtDFT=           0.
 Calling FoFJK, ICntrl=      2127 FMM=F ISym2X=0 I1Cent= 0 IOpClX= 0 NMat=1 NMatS=1 NMatT=0.
 FoFJK:  IHMeth= 1 ICntrl=    2127 DoSepK=F KAlg= 0 I1Cent=           0 FoldK=F
 IRaf=         0 NMat=       1 IRICut=       1 DoRegI=T DoRafI=F ISym2E= 0 IDoP0=0 IntGTp=1.
 FoFCou: FMM=F IPFlag=           0 FMFlag=      100000 FMFlg1=         800
         NFxFlg=           0 DoJE=F BraDBF=F KetDBF=F FulRan=T
         wScrn=  0.000000 ICntrl=      2127 IOpCl=  0 I1Cent=           0 NGrid=           0
         NMat0=    1 NMatS0=      1 NMatT0=    0 NMatD0=    1 NMtDS0=    0 NMtDT0=    0
 Symmetry not used in FoFCou.
 Leave Link  703 at Wed Jan  8 01:53:51 2020, MaxMem=  4294967296 cpu:              37.0 elap:               3.1
 (Enter /home/cwagen/sw/g16/g16/l716.exe)
 Dipole        = 8.19981197D-02 3.56997945D+00-8.43172923D-01
 ***** Axes restored to original set *****
 -------------------------------------------------------------------
 Center     Atomic                   Forces (Hartrees/Bohr)
 Number     Number              X              Y              Z
 -------------------------------------------------------------------
      1        6           0.020127744   -0.040707428   -0.049634432
      2        8          -0.003388942    0.032885975    0.049111528
      3        6          -0.006304709    0.022335059    0.010880642
      4        1           0.000122968    0.000065366   -0.002187971
      5        1           0.000118371    0.000759706   -0.000718219
      6        1           0.002014211    0.001422555   -0.001885839
      7       17           0.009916526   -0.012127630   -0.003399706
      8        6          -0.024979329   -0.005357774   -0.002668870
      9        7           0.002373161    0.000724172    0.000502866
 -------------------------------------------------------------------
 Cartesian Forces:  Max     0.049634432 RMS     0.018882124
 Leave Link  716 at Wed Jan  8 01:53:51 2020, MaxMem=  4294967296 cpu:               1.1 elap:               0.1
 (Enter /home/cwagen/sw/g16/g16/l103.exe)

 GradGradGradGradGradGradGradGradGradGradGradGradGradGradGradGradGradGrad
 Berny optimization.
 Using GEDIIS/GDIIS optimizer.
 FormGI is forming the generalized inverse of G from B-inverse, IUseBI=4.
 Internal  Forces:  Max     0.053756897 RMS     0.014096744
 Search for a local minimum.
 Step number   2 out of a maximum of   41
 All quantities printed in internal units (Hartrees-Bohrs-Radians)
 RMS Force = .13632D-01 SwitMx=.10000D-02 MixMth= 1
 Mixed Optimization -- RFO/linear search
 Update second derivatives using D2CorX and points    1    2
 DE= -3.54D-02 DEPred=-2.72D-02 R= 1.30D+00
 TightC=F SS=  1.41D+00  RLast= 3.21D-01 DXNew= 5.0454D-01 9.6173D-01
 Trust test= 1.30D+00 RLast= 3.21D-01 DXMaxT set to 5.05D-01
 ITU=  1  0
 Use linear search instead of GDIIS.
     Eigenvalues ---    0.00230   0.04745   0.04751   0.05524   0.05812
     Eigenvalues ---    0.06166   0.08990   0.15971   0.16000   0.16027
     Eigenvalues ---    0.18718   0.25000   0.25200   0.26914   0.33921
     Eigenvalues ---    0.33993   0.34286   0.64092   1.220261000.00000
     Eigenvalues --- 1000.000001000.000001000.000001000.000001000.00000
     Eigenvalues --- 1000.000001000.000001000.000001000.000001000.00000
     Eigenvalues --- 1000.00000
 RFO step:  Lambda=-2.67602477D-03 EMin= 2.29993292D-03
 Quartic linear search produced a step of  0.60621.
 Iteration  1 RMS(Cart)=  0.06831263 RMS(Int)=  0.00706782
 Iteration  2 RMS(Cart)=  0.00650131 RMS(Int)=  0.00345620
 Iteration  3 RMS(Cart)=  0.00005010 RMS(Int)=  0.00345593
 Iteration  4 RMS(Cart)=  0.00000072 RMS(Int)=  0.00345593
 Iteration  1 RMS(Cart)=  0.00000000 RMS(Int)=  0.00000000
 ITry= 1 IFail=0 DXMaxC= 1.72D-01 DCOld= 1.00D+10 DXMaxT= 5.05D-01 DXLimC= 3.00D+00 Rises=F
 Variable       Old X    -DE/DX   Delta X   Delta X   Delta X     New X
                                 (Linear)    (Quad)   (Total)
    R1        2.26376  -0.05376  -0.11428   0.01271  -0.10157   2.16219
    R2        2.87611  -0.01257  -0.04178  -0.00606  -0.04784   2.82827
    R3        5.29123  -0.01600   0.00000   0.00000   0.00000   5.29123
    R4        4.34637  -0.02269   0.00000   0.00000   0.00000   4.34637
    R5        2.06371  -0.00200  -0.00582  -0.00071  -0.00653   2.05719
    R6        2.07067  -0.00035  -0.00243   0.00199  -0.00044   2.07023
    R7        2.06548   0.00076  -0.00194   0.00642   0.00449   2.06997
    R8        2.21476   0.00249   0.00335  -0.00042   0.00293   2.21769
    A1        2.17302   0.03868   0.10691   0.07900   0.18200   2.35503
    A2        1.95036  -0.01418  -0.04166  -0.03056  -0.06709   1.88327
    A3        1.87830  -0.00729  -0.00854   0.01360  -0.00701   1.87128
    A4        1.85378  -0.01564  -0.04268  -0.04641  -0.08562   1.76816
    A5        1.78194  -0.00354   0.00606  -0.01983  -0.02432   1.75763
    A6        1.78120  -0.00419  -0.03249  -0.00757  -0.04330   1.73790
    A7        1.96377  -0.00046  -0.00619   0.00931   0.00297   1.96673
    A8        1.87123  -0.00052  -0.00497   0.00631   0.00124   1.87247
    A9        1.85362  -0.00414  -0.02896   0.01879  -0.01043   1.84319
   A10        1.91900   0.00109   0.00936  -0.00611   0.00322   1.92222
   A11        1.93074   0.00174   0.01356  -0.01189   0.00137   1.93211
   A12        1.92369   0.00214   0.01706  -0.01567   0.00120   1.92489
   A13        3.08352   0.00028  -0.00675   0.04053   0.03377   3.11729
   A14        2.89863   0.00076   0.00722  -0.00941  -0.00219   2.89644
    D1        3.07395   0.00449   0.01749   0.01201   0.03285   3.10680
    D2       -1.09730   0.00521   0.02199   0.01432   0.03953  -1.05778
    D3        0.95919   0.00535   0.02428   0.00877   0.03629   0.99548
    D4       -0.90675   0.00258   0.01218  -0.01157  -0.00129  -0.90805
    D5        1.20518   0.00330   0.01668  -0.00925   0.00538   1.21056
    D6       -3.02151   0.00344   0.01897  -0.01481   0.00215  -3.01936
    D7        0.95281  -0.00812  -0.03540  -0.04145  -0.07805   0.87476
    D8        3.06474  -0.00740  -0.03090  -0.03914  -0.07138   2.99337
    D9       -1.16194  -0.00726  -0.02861  -0.04470  -0.07461  -1.23656
         Item               Value     Threshold  Converged?
 Maximum Force            0.053757     0.000450     NO 
 RMS     Force            0.013632     0.000300     NO 
 Maximum Displacement     0.171665     0.001800     NO 
 RMS     Displacement     0.068731     0.001200     NO 
 Predicted change in Energy=-1.260816D-02
 Lowest energy point so far.  Saving SCF results.
 GradGradGradGradGradGradGradGradGradGradGradGradGradGradGradGradGradGrad

 Leave Link  103 at Wed Jan  8 01:53:57 2020, MaxMem=  4294967296 cpu:              72.7 elap:               5.9
 (Enter /home/cwagen/sw/g16/g16/l202.exe)
                          Input orientation:                          
 ---------------------------------------------------------------------
 Center     Atomic      Atomic             Coordinates (Angstroms)
 Number     Number       Type             X           Y           Z
 ---------------------------------------------------------------------
      1          6           0       -0.165394   -0.459478   -0.309112
      2          8           0       -0.236517   -0.517370   -1.449611
      3          6           0       -0.342145   -1.435207    0.811910
      4          1           0       -0.151377   -0.992404    1.787931
      5          1           0       -1.371547   -1.806549    0.760960
      6          1           0        0.364932   -2.247116    0.610162
      7         17           0       -1.782201    1.659927    0.547659
      8          6           0        1.903208    0.407013    0.200870
      9          7           0        3.016594    0.766761    0.291313
 ---------------------------------------------------------------------
                    Distance matrix (angstroms):
                    1          2          3          4          5
     1  C    0.000000
     2  O    1.144180   0.000000
     3  C    1.496656   2.442961   0.000000
     4  H    2.163746   3.273314   1.088617   0.000000
     5  H    2.101062   2.799446   1.095518   1.790619   0.000000
     6  H    2.078932   2.756161   1.095379   1.796669   1.797832
     7  Cl   2.800000   3.334493   3.423952   3.351525   3.497226
     8  C    2.300000   2.856045   2.967955   2.949313   3.992189
     9  N    3.462545   3.906730   4.049792   3.920532   5.108647
                    6          7          8          9
     6  H    0.000000
     7  Cl   4.458596   0.000000
     8  C    3.094869   3.907978   0.000000
     9  N    4.026963   4.887934   1.173554   0.000000
 Stoichiometry    C3H3ClNO(1-)
 Framework group  C1[X(C3H3ClNO)]
 Deg. of freedom    21
 Full point group                 C1      NOp   1
 RotChk:  IX=0 Diff= 6.10D-02
 Largest Abelian subgroup         C1      NOp   1
 Largest concise Abelian subgroup C1      NOp   1
                         Standard orientation:                         
 ---------------------------------------------------------------------
 Center     Atomic      Atomic             Coordinates (Angstroms)
 Number     Number       Type             X           Y           Z
 ---------------------------------------------------------------------
      1          6           0        0.163448    0.820643    0.264527
      2          8           0        0.208390    1.135055    1.363742
      3          6           0        0.178394    1.546788   -1.044086
      4          1           0        0.151755    0.872806   -1.898558
      5          1           0       -0.694139    2.209078   -1.058822
      6          1           0        1.102124    2.135498   -1.043908
      7         17           0       -2.057162   -0.853393   -0.061809
      8          6           0        1.848079   -0.707825   -0.075774
      9          7           0        2.800766   -1.392541   -0.103700
 ---------------------------------------------------------------------
 Rotational constants (GHZ):           2.8764185           1.4395014           1.1797080
 Leave Link  202 at Wed Jan  8 01:53:57 2020, MaxMem=  4294967296 cpu:               2.0 elap:               0.2
 (Enter /home/cwagen/sw/g16/g16/l301.exe)
 Standard basis: 6-31+G(d) (6D, 7F)
 Ernie: Thresh=  0.10000D-02 Tol=  0.10000D-05 Strict=F.
 There are   124 symmetry adapted cartesian basis functions of A   symmetry.
 There are   124 symmetry adapted basis functions of A   symmetry.
   124 basis functions,   228 primitive gaussians,   124 cartesian basis functions
    27 alpha electrons       27 beta electrons
       nuclear repulsion energy       221.8778558812 Hartrees.
 IExCor=  402 DFT=T Ex+Corr=B3LYP ExCW=0 ScaHFX=  0.200000
 ScaDFX=  0.800000  0.720000  1.000000  0.810000 ScalE2=  1.000000  1.000000
 IRadAn=      5 IRanWt=     -1 IRanGd=            0 ICorTp=0 IEmpDi=  4
 NAtoms=    9 NActive=    9 NUniq=    9 SFac= 1.00D+00 NAtFMM=   60 NAOKFM=F Big=F
 Integral buffers will be    131072 words long.
 Raffenetti 2 integral format.
 Two-electron integral symmetry is turned on.
 ------------------------------------------------------------------------------
 Polarizable Continuum Model (PCM)
 =================================
 Model                : PCM.
 Atomic radii         : SMD-Coulomb.
 Polarization charges : Total charges.
 Charge compensation  : None.
 Solution method      : On-the-fly selection.
 Cavity type          : VdW (van der Waals Surface) (Alpha=1.000).
 Cavity algorithm     : GePol (No added spheres)
                        Default sphere list used, NSphG=    9.
                        Lebedev-Laikov grids with approx.  5.0 points / Ang**2.
                        Smoothing algorithm: York/Karplus (Gamma=1.0000).
                        Polarization charges: spherical gaussians, with
                                              point-specific exponents (IZeta= 3).
                        Self-potential: point-specific (ISelfS= 7).
                        Self-field    : sphere-specific E.n sum rule (ISelfD= 2).
 1st derivatives      : Analytical E(r).r(x)/FMM algorithm (CHGder, D1EAlg=3).
                        Cavity 1st derivative terms included.
 Solvent              : TetraHydroFuran, Eps=   7.425700 Eps(inf)=   1.974025
 ------------------------------------------------------------------------------
 Spheres list:
 ISph  on   Nord     Re0    Alpha      Xe            Ye            Ze
    1   C      1    1.8500  1.000      0.163448      0.820643      0.264527
    2   O      2    2.2940  1.000      0.208390      1.135055      1.363742
    3   C      3    1.8500  1.000      0.178394      1.546788     -1.044086
    4   H      4    1.2000  1.000      0.151755      0.872806     -1.898558
    5   H      5    1.2000  1.000     -0.694139      2.209078     -1.058822
    6   H      6    1.2000  1.000      1.102124      2.135498     -1.043908
    7  Cl      7    2.3800  1.000     -2.057162     -0.853393     -0.061809
    8   C      8    1.8500  1.000      1.848079     -0.707825     -0.075774
    9   N      9    1.8900  1.000      2.800766     -1.392541     -0.103700
 ------------------------------------------------------------------------------
 GePol: Number of generator spheres                  =       9
 GePol: Total number of spheres                      =       9
 GePol: Number of exposed spheres                    =       9 (100.00%)
 GePol: Number of points                             =    1289
 GePol: Average weight of points                     =       0.14
 GePol: Minimum weight of points                     =   0.65D-08
 GePol: Maximum weight of points                     =    0.18138
 GePol: Number of points with low weight             =      28
 GePol: Fraction of low-weight points (<1% of avg)   =       2.17%
 GePol: Cavity surface area                          =    174.502 Ang**2
 GePol: Cavity volume                                =    156.083 Ang**3
 ------------------------------------------------------------------------------
 Atomic radii for non-electrostatic terms: SMD-CDS.
 ------------------------------------------------------------------------------
 PCM non-electrostatic energy =         0.0005710981 Hartrees.
[...]
 Using GEDIIS/GDIIS optimizer.
 FormGI is forming the generalized inverse of G from B-inverse, IUseBI=4.
 Internal  Forces:  Max     0.019102677 RMS     0.003461284
 Search for a local minimum.
 Step number  12 out of a maximum of   41
 All quantities printed in internal units (Hartrees-Bohrs-Radians)
 RMS Force = .11369D-04 SwitMx=.10000D-02 MixMth= 2
 Mixed Optimization -- En-DIIS/RFO-DIIS
 Swapping is turned off.
 Update second derivatives using D2CorX and points    4    5    6    7    8
                                                      9   10   11   12
 DE=  3.58D-08 DEPred=-1.71D-07 R=-2.09D-01
 Trust test=-2.09D-01 RLast= 3.60D-03 DXMaxT set to 5.48D-01
 ITU= -1  0  1  1  1  1  1  1  1  1  1  0
     Eigenvalues ---    0.00238   0.01095   0.02287   0.02643   0.04693
     Eigenvalues ---    0.05715   0.06154   0.12808   0.15940   0.16110
     Eigenvalues ---    0.16843   0.22699   0.24825   0.28626   0.33926
     Eigenvalues ---    0.34061   0.34596   1.13360   1.219551000.00000
     Eigenvalues --- 1000.000001000.000001000.000001000.000001000.00000
     Eigenvalues --- 1000.000001000.000001000.000001000.000001000.00000
     Eigenvalues --- 1000.00000
 En-DIIS/RFO-DIIS/Sim-DIIS IScMMF=       -3 using points:    12   11   10    9    8    7    6    5
 RFO step:  Lambda=-4.12044796D-07.
 NNeg= 0 NGDIIS= 8 SimSw=  2.50D-03 Rises=F DC=  3.58D-08 SmlDif=  1.00D-05
 NRisDI= 0 DoIntr=F SqrtH=F CThrHd= 10.0 CDAdj=  3.0
 RMS Error=  0.1802879221D-03 NUsed= 8 OKEnD=F EnDIS=F
 InvSVX:  RCond= 1.82D-10 Info=           0 Equed=N FErr=  1.17D-10 BErr=  5.16D-17
 DIIS inversion failure, remove point   8.
 InvSVX:  RCond= 5.42D-10 Info=           0 Equed=N FErr=  1.09D-11 BErr=  7.17D-17
 DIIS inversion failure, remove point   7.
 InvSVX:  RCond= 4.56D-09 Info=           0 Equed=N FErr=  1.10D-12 BErr=  1.00D-16
 DIIS inversion failure, remove point   6.
 InvSVX:  RCond= 5.75D-09 Info=           0 Equed=N FErr=  8.91D-13 BErr=  1.04D-16
 DIIS inversion failure, remove point   5.
 InvSVX:  RCond= 9.44D-09 Info=           0 Equed=N FErr=  7.15D-13 BErr=  1.12D-16
 DIIS inversion failure, remove point   4.
 InvSVX:  RCond= 6.36D-08 Info=           0 Equed=N FErr=  8.26D-14 BErr=  5.88D-17
 DIIS inversion failure, remove point   3.
 InvSVX:  RCond= 3.24D-06 Info=           0 Equed=N FErr=  1.52D-15 BErr=  9.14D-17
 RFO-DIIS uses    2 points instead of    8
 DidBck=F Rises=F RFO-DIIS coefs:    1.21609   -0.21609    0.00000    0.00000    0.00000
                  RFO-DIIS coefs:    0.00000    0.00000    0.00000
 Iteration  1 RMS(Cart)=  0.00045000 RMS(Int)=  0.00000008
 Iteration  2 RMS(Cart)=  0.00000008 RMS(Int)=  0.00000001
 Iteration  1 RMS(Cart)=  0.00000000 RMS(Int)=  0.00000000
 ITry= 1 IFail=0 DXMaxC= 1.58D-03 DCOld= 1.00D+10 DXMaxT= 5.48D-01 DXLimC= 3.00D+00 Rises=F
 Variable       Old X    -DE/DX   Delta X   Delta X   Delta X     New X
                                 (Linear)    (Quad)   (Total)
    R1        2.18177   0.00001   0.00000   0.00002   0.00002   2.18179
    R2        2.77525   0.00001   0.00000   0.00006   0.00006   2.77531
    R3        5.29123  -0.00255   0.00000   0.00000   0.00000   5.29123
    R4        4.34637  -0.01910   0.00000   0.00000   0.00000   4.34637
    R5        2.05343   0.00000   0.00000   0.00000   0.00000   2.05343
    R6        2.07018   0.00000   0.00001  -0.00001   0.00000   2.07018
    R7        2.07565   0.00000  -0.00001   0.00000  -0.00001   2.07564
    R8        2.21746   0.00000   0.00000  -0.00001  -0.00001   2.21745
    A1        2.53727  -0.00004  -0.00007  -0.00019  -0.00026   2.53700
    A2        1.77534   0.00003  -0.00006   0.00015   0.00009   1.77542
    A3        1.91299   0.00002   0.00013   0.00009   0.00022   1.91321
    A4        1.61469  -0.00001   0.00020  -0.00011   0.00010   1.61479
    A5        1.73717   0.00001   0.00001   0.00011   0.00011   1.73729
    A6        1.69622  -0.00001  -0.00043  -0.00006  -0.00049   1.69573
    A7        1.93629   0.00000  -0.00002   0.00002   0.00000   1.93630
    A8        1.88029   0.00000  -0.00002  -0.00002  -0.00004   1.88025
    A9        1.85454   0.00000   0.00002   0.00002   0.00004   1.85458
   A10        1.93873   0.00000   0.00001   0.00001   0.00002   1.93876
   A11        1.92189   0.00000   0.00001  -0.00005  -0.00003   1.92186
   A12        1.93000   0.00000  -0.00001   0.00001   0.00000   1.93000
   A13        3.16036   0.00002  -0.00011   0.00050   0.00039   3.16075
   A14        3.06540   0.00000   0.00004  -0.00017  -0.00013   3.06527
    D1       -2.85728   0.00000   0.00014   0.00002   0.00016  -2.85711
    D2       -0.73175   0.00000   0.00013   0.00004   0.00017  -0.73158
    D3        1.33706   0.00000   0.00012   0.00005   0.00018   1.33724
    D4       -0.85146   0.00001   0.00030  -0.00001   0.00029  -0.85116
    D5        1.27407   0.00001   0.00029   0.00001   0.00030   1.27437
    D6       -2.94030   0.00001   0.00028   0.00002   0.00031  -2.94000
    D7        0.85409  -0.00001  -0.00009  -0.00008  -0.00018   0.85392
    D8        2.97962  -0.00001  -0.00010  -0.00007  -0.00017   2.97945
    D9       -1.23475  -0.00001  -0.00011  -0.00005  -0.00016  -1.23492
         Item               Value     Threshold  Converged?
 Maximum Force            0.000035     0.000450     YES
 RMS     Force            0.000011     0.000300     YES
 Maximum Displacement     0.001580     0.001800     YES
 RMS     Displacement     0.000450     0.001200     YES
 Predicted change in Energy=-2.032665D-08
 Optimization completed.
    -- Stationary point found.
                           ----------------------------
                           !   Optimized Parameters   !
                           ! (Angstroms and Degrees)  !
 --------------------------                            --------------------------
 ! Name  Definition              Value          Derivative Info.                !
 --------------------------------------------------------------------------------
 ! R1    R(1,2)                  1.1545         -DE/DX =    0.0                 !
 ! R2    R(1,3)                  1.4686         -DE/DX =    0.0                 !
 ! R3    R(1,7)                  2.8            -DE/DX =   -0.0025              !
 ! R4    R(1,8)                  2.3            -DE/DX =   -0.0191              !
 ! R5    R(3,4)                  1.0866         -DE/DX =    0.0                 !
 ! R6    R(3,5)                  1.0955         -DE/DX =    0.0                 !
 ! R7    R(3,6)                  1.0984         -DE/DX =    0.0                 !
 ! R8    R(8,9)                  1.1734         -DE/DX =    0.0                 !
 ! A1    A(2,1,3)              145.3748         -DE/DX =    0.0                 !
 ! A2    A(2,1,7)              101.7193         -DE/DX =    0.0                 !
 ! A3    A(2,1,8)              109.6065         -DE/DX =    0.0                 !
 ! A4    A(3,1,7)               92.5152         -DE/DX =    0.0                 !
 ! A5    A(3,1,8)               99.5326         -DE/DX =    0.0                 !
 ! A6    A(7,1,8)               97.1863         -DE/DX =    0.0                 !
 ! A7    A(1,3,4)              110.9413         -DE/DX =    0.0                 !
 ! A8    A(1,3,5)              107.7327         -DE/DX =    0.0                 !
 ! A9    A(1,3,6)              106.2573         -DE/DX =    0.0                 !
 ! A10   A(4,3,5)              111.0812         -DE/DX =    0.0                 !
 ! A11   A(4,3,6)              110.1164         -DE/DX =    0.0                 !
 ! A12   A(5,3,6)              110.5808         -DE/DX =    0.0                 !
 ! A13   L(1,8,9,6,-1)         181.0754         -DE/DX =    0.0                 !
 ! A14   L(1,8,9,6,-2)         175.6343         -DE/DX =    0.0                 !
 ! D1    D(2,1,3,4)           -163.7098         -DE/DX =    0.0                 !
 ! D2    D(2,1,3,5)            -41.9261         -DE/DX =    0.0                 !
 ! D3    D(2,1,3,6)             76.6081         -DE/DX =    0.0                 !
 ! D4    D(7,1,3,4)            -48.7849         -DE/DX =    0.0                 !
 ! D5    D(7,1,3,5)             72.9988         -DE/DX =    0.0                 !
 ! D6    D(7,1,3,6)           -168.467          -DE/DX =    0.0                 !
 ! D7    D(8,1,3,4)             48.9359         -DE/DX =    0.0                 !
 ! D8    D(8,1,3,5)            170.7196         -DE/DX =    0.0                 !
 ! D9    D(8,1,3,6)            -70.7462         -DE/DX =    0.0                 !
 --------------------------------------------------------------------------------
 Largest change from initial coordinates is atom    4       0.220 Angstoms.
 GradGradGradGradGradGradGradGradGradGradGradGradGradGradGradGradGradGrad

 Leave Link  103 at Wed Jan  8 02:02:03 2020, MaxMem=  4294967296 cpu:              53.1 elap:               4.5
 (Enter /home/cwagen/sw/g16/g16/l202.exe)
                          Input orientation:                          
 ---------------------------------------------------------------------
 Center     Atomic      Atomic             Coordinates (Angstroms)
 Number     Number       Type             X           Y           Z
 ---------------------------------------------------------------------
      1          6           0       -0.127328   -0.559213   -0.386406
      2          8           0       -0.308839   -0.448004   -1.521153
      3          6           0       -0.345545   -1.403397    0.795337
      4          1           0       -0.168326   -0.844313    1.710094
      5          1           0       -1.375102   -1.775437    0.754107
      6          1           0        0.368657   -2.234097    0.715939
      7         17           0       -1.705485    1.509743    0.647443
      8          6           0        1.918414    0.338997    0.159635
      9          7           0        2.979107    0.791298    0.377088
 ---------------------------------------------------------------------
                    Distance matrix (angstroms):
                    1          2          3          4          5
     1  C    0.000000
     2  O    1.154541   0.000000
     3  C    1.468599   2.506042   0.000000
     4  H    2.116194   3.258491   1.086629   0.000000
     5  H    2.082526   2.841796   1.095492   1.799225   0.000000
     6  H    2.065527   2.941719   1.098385   1.791143   1.803475
     7  Cl   2.800000   3.238240   3.218337   3.005605   3.303473
     8  C    2.300000   2.899151   2.926698   2.856332   3.958722
     9  N    3.472282   3.993718   4.005612   3.789257   5.068473
                    6          7          8          9
     6  H    0.000000
     7  Cl   4.280548   0.000000
     8  C    3.054838   3.839433   0.000000
     9  N    4.010273   4.747068   1.173428   0.000000
 Stoichiometry    C3H3ClNO(1-)
 Framework group  C1[X(C3H3ClNO)]
 Deg. of freedom    21
 Full point group                 C1      NOp   1
 RotChk:  IX=2 Diff= 1.07D-15
 Largest Abelian subgroup         C1      NOp   1
 Largest concise Abelian subgroup C1      NOp   1
                         Standard orientation:                         
 ---------------------------------------------------------------------
 Center     Atomic      Atomic             Coordinates (Angstroms)
 Number     Number       Type             X           Y           Z
 ---------------------------------------------------------------------
      1          6           0        0.162104    0.927168    0.238542
      2          8           0        0.065562    1.234952    1.347105
      3          6           0        0.029489    1.371409   -1.154959
      4          1           0       -0.007080    0.521941   -1.831590
      5          1           0       -0.883175    1.972918   -1.227989
      6          1           0        0.914856    1.985765   -1.367428
      7         17           0       -1.925172   -0.920847   -0.022461
      8          6           0        1.897507   -0.563242   -0.000318
      9          7           0        2.806318   -1.302550   -0.066797
 ---------------------------------------------------------------------
 Rotational constants (GHZ):           2.8915888           1.4999314           1.2385732
 Leave Link  202 at Wed Jan  8 02:02:03 2020, MaxMem=  4294967296 cpu:               2.2 elap:               0.2
 (Enter /home/cwagen/sw/g16/g16/l601.exe)
 Copying SCF densities to generalized density rwf, IOpCl= 0 IROHF=0.

 **********************************************************************

            Population analysis using the SCF density.

 **********************************************************************

 Orbital symmetries:
       Occupied  (A) (A) (A) (A) (A) (A) (A) (A) (A) (A) (A) (A)
                 (A) (A) (A) (A) (A) (A) (A) (A) (A) (A) (A) (A)
                 (A) (A) (A)
       Virtual   (A) (A) (A) (A) (A) (A) (A) (A) (A) (A) (A) (A)
                 (A) (A) (A) (A) (A) (A) (A) (A) (A) (A) (A) (A)
                 (A) (A) (A) (A) (A) (A) (A) (A) (A) (A) (A) (A)
                 (A) (A) (A) (A) (A) (A) (A) (A) (A) (A) (A) (A)
                 (A) (A) (A) (A) (A) (A) (A) (A) (A) (A) (A) (A)
                 (A) (A) (A) (A) (A) (A) (A) (A) (A) (A) (A) (A)
                 (A) (A) (A) (A) (A) (A) (A) (A) (A) (A) (A) (A)
                 (A) (A) (A) (A) (A) (A) (A) (A) (A) (A) (A) (A)
                 (A)
 The electronic state is 1-A.
 Alpha  occ. eigenvalues -- -101.42678 -19.23755 -14.29288 -10.36943 -10.21876
 Alpha  occ. eigenvalues --  -10.16928  -9.34030  -7.09902  -7.09763  -7.09757
 Alpha  occ. eigenvalues --   -1.14374  -0.85037  -0.78441  -0.67977  -0.56244
 Alpha  occ. eigenvalues --   -0.49449  -0.49111  -0.48099  -0.41072  -0.40790
 Alpha  occ. eigenvalues --   -0.37438  -0.29620  -0.29572  -0.27452  -0.22700
 Alpha  occ. eigenvalues --   -0.22228  -0.22207
 Alpha virt. eigenvalues --   -0.05669  -0.02584   0.02435   0.04822   0.04898
 Alpha virt. eigenvalues --    0.05524   0.06971   0.07660   0.08759   0.09919
 Alpha virt. eigenvalues --    0.09997   0.10382   0.10898   0.12629   0.13436
 Alpha virt. eigenvalues --    0.13842   0.13970   0.16505   0.17099   0.19893
 Alpha virt. eigenvalues --    0.21861   0.23197   0.24333   0.24922   0.25419
 Alpha virt. eigenvalues --    0.26114   0.28430   0.28725   0.31642   0.33795
 Alpha virt. eigenvalues --    0.36313   0.40642   0.48573   0.58401   0.62046
 Alpha virt. eigenvalues --    0.64662   0.65493   0.67139   0.68807   0.72250
 Alpha virt. eigenvalues --    0.73821   0.75372   0.78220   0.80318   0.82396
 Alpha virt. eigenvalues --    0.84907   0.86434   0.93806   0.97037   0.98200
 Alpha virt. eigenvalues --    0.98858   0.99078   1.00472   1.00738   1.02600
 Alpha virt. eigenvalues --    1.03392   1.07146   1.15087   1.17443   1.24003
 Alpha virt. eigenvalues --    1.24693   1.27617   1.27914   1.37157   1.41730
 Alpha virt. eigenvalues --    1.46387   1.51197   1.57025   1.58050   1.59229
 Alpha virt. eigenvalues --    1.59801   1.61734   1.77808   1.81353   1.83447
 Alpha virt. eigenvalues --    1.86151   2.00144   2.00644   2.01515   2.11910
 Alpha virt. eigenvalues --    2.23226   2.24368   2.36372   2.52588   2.61791
 Alpha virt. eigenvalues --    2.64173   2.65272   2.69589   2.93371   3.08658
 Alpha virt. eigenvalues --    3.19171   4.04052   4.20676   4.25094   4.33659
 Alpha virt. eigenvalues --    4.42103   4.49945
          Condensed to atoms (all electrons):
               1          2          3          4          5          6
     1  C    5.234142   0.526002  -0.113116  -0.071667  -0.078715   0.003214
     2  O    0.526002   7.792329  -0.035059   0.005966   0.001288  -0.004515
     3  C   -0.113116  -0.035059   5.848322   0.405444   0.381211   0.337123
     4  H   -0.071667   0.005966   0.405444   0.395041  -0.017737  -0.020441
     5  H   -0.078715   0.001288   0.381211  -0.017737   0.429969  -0.021126
     6  H    0.003214  -0.004515   0.337123  -0.020441  -0.021126   0.429529
     7  Cl   0.195351  -0.054166  -0.092005  -0.005736  -0.004884   0.004578
     8  C   -0.176035  -0.063631  -0.094709  -0.000765   0.022752  -0.020842
     9  N   -0.008201   0.000811  -0.002422  -0.000149  -0.000146  -0.000306
               7          8          9
     1  C    0.195351  -0.176035  -0.008201
     2  O   -0.054166  -0.063631   0.000811
     3  C   -0.092005  -0.094709  -0.002422
     4  H   -0.005736  -0.000765  -0.000149
     5  H   -0.004884   0.022752  -0.000146
     6  H    0.004578  -0.020842  -0.000306
     7  Cl  17.859898  -0.072800  -0.004234
     8  C   -0.072800   5.878981   0.645552
     9  N   -0.004234   0.645552   7.000016
 Mulliken charges:
               1
     1  C    0.489026
     2  O   -0.169026
     3  C   -0.634789
     4  H    0.310043
     5  H    0.287387
     6  H    0.292786
     7  Cl  -0.826003
     8  C   -0.118503
     9  N   -0.630921
 Sum of Mulliken charges =  -1.00000
 Mulliken charges with hydrogens summed into heavy atoms:
               1
     1  C    0.489026
     2  O   -0.169026
     3  C    0.255428
     7  Cl  -0.826003
     8  C   -0.118503
     9  N   -0.630921
 Electronic spatial extent (au):  <R**2>=            977.8797
 Charge=             -1.0000 electrons
 Dipole moment (field-independent basis, Debye):
    X=              0.0818    Y=             10.0554    Z=             -2.6286  Tot=             10.3936
 Quadrupole moment (field-independent basis, Debye-Ang):
   XX=            -84.5109   YY=            -51.1776   ZZ=            -45.3946
   XY=              3.3090   XZ=              0.3132   YZ=             -4.4324
 Traceless Quadrupole moment (field-independent basis, Debye-Ang):
   XX=            -24.1499   YY=              9.1835   ZZ=             14.9664
   XY=              3.3090   XZ=              0.3132   YZ=             -4.4324
 Octapole moment (field-independent basis, Debye-Ang**2):
  XXX=            -38.2651  YYY=             37.5347  ZZZ=             -3.4579  XYY=             -8.5332
  XXY=             54.2629  XXZ=              2.5375  XZZ=             -0.5208  YZZ=              7.4689
  YYZ=             -4.9161  XYZ=             -0.9378
 Hexadecapole moment (field-independent basis, Debye-Ang**3):
 XXXX=          -1151.3893 YYYY=           -389.7220 ZZZZ=           -182.7177 XXXY=             71.3970
 XXXZ=              5.4483 YYYX=             20.8570 YYYZ=             -8.8560 ZZZX=              0.2372
 ZZZY=             -3.6035 XXYY=           -265.2842 XXZZ=           -179.9968 YYZZ=            -93.7042
 XXYZ=             -4.4640 YYXZ=              0.8337 ZZXY=              1.6517
 N-N= 2.243560053101D+02 E-N=-2.126114026490D+03  KE= 7.023833264810D+02
 No NMR shielding tensors so no spin-rotation constants.
 Leave Link  601 at Wed Jan  8 02:02:05 2020, MaxMem=  4294967296 cpu:              14.3 elap:               1.2
 (Enter /home/cwagen/sw/g16/g16/l9999.exe)
 1\1\GINC-NODE041\FOpt\RB3LYP\6-31+G(d)\C3H3Cl1N1O1(1-)\CWAGEN\08-Jan-2
 020\0\\#p opt=modredundant b3lyp/6-31+g(d) scrf=(smd, solvent=tetrahyd
 rofuran)\\title\\-1,1\C,-0.1273276538,-0.5592127474,-0.3864062909\O,-0
 .308839205,-0.4480043053,-1.5211531317\C,-0.345544928,-1.4033968598,0.
 7953367663\H,-0.1683264402,-0.8443127181,1.7100937675\H,-1.3751024766,
 -1.7754367115,0.7541068932\H,0.3686567325,-2.2340967491,0.7159390334\C
 l,-1.7054845138,1.5097427981,0.6474427502\C,1.9184139473,0.3389968286,
 0.1596347806\N,2.9791072775,0.7912982946,0.3770881012\\Version=AS64L-G
 16RevA.03\State=1-A\HF=-706.4014171\RMSD=3.278e-09\RMSF=5.206e-03\Dipo
 le=-0.9073326,-3.9755769,-0.3044564\Quadrupole=-17.6907857,9.0728597,8
 .6179259,3.5854785,0.5747891,-3.9254608\PG=C01 [X(C3H3Cl1N1O1)]\\@


 IT IS BETTER TO THINK YOU ARE HALF DRY THAN TO KNOW YOU
 ARE ALL WET.  -- SNOOPY
 Job cpu time:       0 days  2 hours 10 minutes 42.8 seconds.
 Elapsed time:       0 days  0 hours 10 minutes 16.8 seconds.
 File lengths (MBytes):  RWF=     40 Int=      0 D2E=      0 Chk=      4 Scr=      1
 Normal termination of Gaussian 16 at Wed Jan  8 02:02:05 2020.
