 Entering Gaussian System, Link 0=g16
 Input=scan_250_280.gjf
 Output=scan_250_280.out
 Initial command:
 /home/cwagen/sw/g16/g16/l1.exe "/scratch/users/cwagen/cwagen_scan_250_280/Gau-39178.inp" -scrdir="/scratch/users/cwagen/cwagen_scan_250_280/"
 Entering Link 1 = /home/cwagen/sw/g16/g16/l1.exe PID=     39179.
  
 Copyright (c) 1988,1990,1992,1993,1995,1998,2003,2009,2016,
            Gaussian, Inc.  All Rights Reserved.
  
 This is part of the Gaussian(R) 16 program.  It is based on
 the Gaussian(R) 09 system (copyright 2009, Gaussian, Inc.),
 the Gaussian(R) 03 system (copyright 2003, Gaussian, Inc.),
 the Gaussian(R) 98 system (copyright 1998, Gaussian, Inc.),
 the Gaussian(R) 94 system (copyright 1995, Gaussian, Inc.),
 the Gaussian 92(TM) system (copyright 1992, Gaussian, Inc.),
 the Gaussian 90(TM) system (copyright 1990, Gaussian, Inc.),
 the Gaussian 88(TM) system (copyright 1988, Gaussian, Inc.),
 the Gaussian 86(TM) system (copyright 1986, Carnegie Mellon
 University), and the Gaussian 82(TM) system (copyright 1983,
 Carnegie Mellon University). Gaussian is a federally registered
 trademark of Gaussian, Inc.
  
 This software contains proprietary and confidential information,
 including trade secrets, belonging to Gaussian, Inc.
  
 This software is provided under written license and may be
 used, copied, transmitted, or stored only in accord with that
 written license.
  
 The following legend is applicable only to US Government
 contracts under FAR:
  
                    RESTRICTED RIGHTS LEGEND
  
 Use, reproduction and disclosure by the US Government is
 subject to restrictions as set forth in subparagraphs (a)
 and (c) of the Commercial Computer Software - Restricted
 Rights clause in FAR 52.227-19.
  
 Gaussian, Inc.
 340 Quinnipiac St., Bldg. 40, Wallingford CT 06492
  
  
 ---------------------------------------------------------------
 Warning -- This program may not be used in any manner that
 competes with the business of Gaussian, Inc. or will provide
 assistance to any competitor of Gaussian, Inc.  The licensee
 of this program is prohibited from giving any competitor of
 Gaussian, Inc. access to this program.  By using this program,
 the user acknowledges that Gaussian, Inc. is engaged in the
 business of creating and licensing software in the field of
 computational chemistry and represents and warrants to the
 licensee that it is not a competitor of Gaussian, Inc. and that
 it will not use this program in any manner prohibited above.
 ---------------------------------------------------------------
  

 Cite this work as:
 Gaussian 16, Revision A.03,
 M. J. Frisch, G. W. Trucks, H. B. Schlegel, G. E. Scuseria, 
 M. A. Robb, J. R. Cheeseman, G. Scalmani, V. Barone, 
 G. A. Petersson, H. Nakatsuji, X. Li, M. Caricato, A. V. Marenich, 
 J. Bloino, B. G. Janesko, R. Gomperts, B. Mennucci, H. P. Hratchian, 
 J. V. Ortiz, A. F. Izmaylov, J. L. Sonnenberg, D. Williams-Young, 
 F. Ding, F. Lipparini, F. Egidi, J. Goings, B. Peng, A. Petrone, 
 T. Henderson, D. Ranasinghe, V. G. Zakrzewski, J. Gao, N. Rega, 
 G. Zheng, W. Liang, M. Hada, M. Ehara, K. Toyota, R. Fukuda, 
 J. Hasegawa, M. Ishida, T. Nakajima, Y. Honda, O. Kitao, H. Nakai, 
 T. Vreven, K. Throssell, J. A. Montgomery, Jr., J. E. Peralta, 
 F. Ogliaro, M. J. Bearpark, J. J. Heyd, E. N. Brothers, K. N. Kudin, 
 V. N. Staroverov, T. A. Keith, R. Kobayashi, J. Normand, 
 K. Raghavachari, A. P. Rendell, J. C. Burant, S. S. Iyengar, 
 J. Tomasi, M. Cossi, J. M. Millam, M. Klene, C. Adamo, R. Cammi, 
 J. W. Ochterski, R. L. Martin, K. Morokuma, O. Farkas, 
 J. B. Foresman, and D. J. Fox, Gaussian, Inc., Wallingford CT, 2016.
 
 ******************************************
 Gaussian 16:  AS64L-G16RevA.03 25-Dec-2016
                 8-Jan-2020 
 ******************************************
 %nprocshared=16
 Will use up to   16 processors via shared memory.
 %mem=32GB
 ----------------------------------------------------------------------
 #p opt=modredundant b3lyp/6-31+g(d) scrf=(smd, solvent=tetrahydrofuran
 )
 ----------------------------------------------------------------------
 1/18=120,19=15,26=3,38=1/1,3;
 2/9=110,12=2,17=6,18=5,40=1/2;
 3/5=1,6=6,7=11,11=2,25=1,30=1,70=32201,71=1,72=20,74=-5/1,2,3;
 4//1;
 5/5=2,38=5,53=20/2;
 6/7=2,8=2,9=2,10=2,28=1/1;
 7//1,2,3,16;
 1/18=20,19=15,26=3/3(2);
 2/9=110/2;
 99//99;
 2/9=110/2;
 3/5=1,6=6,7=11,11=2,25=1,30=1,70=32205,71=1,72=20,74=-5/1,2,3;
 4/5=5,16=3,69=1/1;
 5/5=2,38=5,53=20/2;
 7//1,2,3,16;
 1/18=20,19=15,26=3/3(-5);
 2/9=110/2;
 6/7=2,8=2,9=2,10=2,19=2,28=1/1;
 99/9=1/99;
 Leave Link    1 at Wed Jan  8 01:20:31 2020, MaxMem=  4294967296 cpu:               1.6 elap:               0.1
 (Enter /home/cwagen/sw/g16/g16/l101.exe)
 -----
 title
 -----
 Symbolic Z-matrix:
 Charge = -1 Multiplicity = 1
 6                    -0.19426  -0.292    -0.21291 
 8                    -0.25532  -0.66526  -1.45426 
 6                    -0.33095  -1.45422   0.81632 
 1                    -0.18039  -1.13044   1.85373 
 1                    -1.34067  -1.87301   0.71427 
 1                     0.39707  -2.23395   0.57058 
 17                   -1.69111   1.60688   0.42247 
 6                     2.40168   0.61703   0.31126 
 7                     3.53625   0.89733   0.34157 
 
 Add virtual bond connecting atoms Cl7        and C1         Dist= 4.72D+00.
 Add virtual bond connecting atoms C8         and C1         Dist= 5.29D+00.
 The following ModRedundant input section has been read:
 B       1       7 F                                                           
 B       1       8 F                                                           
 
 ITRead=  0  0  0  0  0  0  0  0  0
 MicOpt= -1 -1 -1 -1 -1 -1 -1 -1 -1
 NAtoms=      9 NQM=        9 NQMF=       0 NMMI=      0 NMMIF=      0
                NMic=       0 NMicF=      0.
                    Isotopes and Nuclear Properties:
 (Nuclear quadrupole moments (NQMom) in fm**2, nuclear magnetic moments (NMagM)
  in nuclear magnetons)

  Atom         1           2           3           4           5           6           7           8           9
 IAtWgt=          12          16          12           1           1           1          35          12          14
 AtmWgt=  12.0000000  15.9949146  12.0000000   1.0078250   1.0078250   1.0078250  34.9688527  12.0000000  14.0030740
 NucSpn=           0           0           0           1           1           1           3           0           2
 AtZEff=   0.0000000   0.0000000   0.0000000   0.0000000   0.0000000   0.0000000   0.0000000   0.0000000   0.0000000
 NQMom=    0.0000000   0.0000000   0.0000000   0.0000000   0.0000000   0.0000000  -8.1650000   0.0000000   2.0440000
 NMagM=    0.0000000   0.0000000   0.0000000   2.7928460   2.7928460   2.7928460   0.8218740   0.0000000   0.4037610
 AtZNuc=   6.0000000   8.0000000   6.0000000   1.0000000   1.0000000   1.0000000  17.0000000   6.0000000   7.0000000
 Leave Link  101 at Wed Jan  8 01:20:32 2020, MaxMem=  4294967296 cpu:               7.5 elap:               0.6
 (Enter /home/cwagen/sw/g16/g16/l103.exe)

 GradGradGradGradGradGradGradGradGradGradGradGradGradGradGradGradGradGrad
 Berny optimization.
 Initialization pass.
                           ----------------------------
                           !    Initial Parameters    !
                           ! (Angstroms and Degrees)  !
 --------------------------                            --------------------------
 ! Name  Definition              Value          Derivative Info.                !
 --------------------------------------------------------------------------------
 ! R1    R(1,2)                  1.2977         estimate D2E/DX2                !
 ! R2    R(1,3)                  1.5584         estimate D2E/DX2                !
 ! R3    R(1,7)                  2.5            Frozen                          !
 ! R4    R(1,8)                  2.8            Frozen                          !
 ! R5    R(3,4)                  1.0971         estimate D2E/DX2                !
 ! R6    R(3,5)                  1.0979         estimate D2E/DX2                !
 ! R7    R(3,6)                  1.0947         estimate D2E/DX2                !
 ! R8    R(8,9)                  1.1691         estimate D2E/DX2                !
 ! A1    A(2,1,3)              114.4006         estimate D2E/DX2                !
 ! A2    A(2,1,7)              115.6846         estimate D2E/DX2                !
 ! A3    A(2,1,8)              108.426          estimate D2E/DX2                !
 ! A4    A(3,1,7)              110.248          estimate D2E/DX2                !
 ! A5    A(3,1,8)              101.5248         estimate D2E/DX2                !
 ! A6    A(7,1,8)              105.1256         estimate D2E/DX2                !
 ! A7    A(1,3,4)              113.1005         estimate D2E/DX2                !
 ! A8    A(1,3,5)              107.683          estimate D2E/DX2                !
 ! A9    A(1,3,6)              108.9421         estimate D2E/DX2                !
 ! A10   A(4,3,5)              109.0662         estimate D2E/DX2                !
 ! A11   A(4,3,6)              109.3417         estimate D2E/DX2                !
 ! A12   A(5,3,6)              108.6067         estimate D2E/DX2                !
 ! A13   L(1,8,9,6,-1)         177.1066         estimate D2E/DX2                !
 ! A14   L(1,8,9,6,-2)         163.8302         estimate D2E/DX2                !
 ! D1    D(2,1,3,4)            174.4714         estimate D2E/DX2                !
 ! D2    D(2,1,3,5)            -64.9488         estimate D2E/DX2                !
 ! D3    D(2,1,3,6)             52.6633         estimate D2E/DX2                !
 ! D4    D(7,1,3,4)            -53.1046         estimate D2E/DX2                !
 ! D5    D(7,1,3,5)             67.4752         estimate D2E/DX2                !
 ! D6    D(7,1,3,6)           -174.9127         estimate D2E/DX2                !
 ! D7    D(8,1,3,4)             57.938          estimate D2E/DX2                !
 ! D8    D(8,1,3,5)            178.5177         estimate D2E/DX2                !
 ! D9    D(8,1,3,6)            -63.8702         estimate D2E/DX2                !
 --------------------------------------------------------------------------------
 Trust Radius=3.00D-01 FncErr=1.00D-07 GrdErr=1.00D-06 EigMax=2.50D+02 EigMin=1.00D-04
 Number of steps in this run=     41 maximum allowed number of steps=    100.
 GradGradGradGradGradGradGradGradGradGradGradGradGradGradGradGradGradGrad

 Leave Link  103 at Wed Jan  8 01:20:32 2020, MaxMem=  4294967296 cpu:               1.0 elap:               0.1
 (Enter /home/cwagen/sw/g16/g16/l202.exe)
                          Input orientation:                          
 ---------------------------------------------------------------------
 Center     Atomic      Atomic             Coordinates (Angstroms)
 Number     Number       Type             X           Y           Z
 ---------------------------------------------------------------------
      1          6           0       -0.194263   -0.291999   -0.212908
      2          8           0       -0.255321   -0.665256   -1.454255
      3          6           0       -0.330945   -1.454221    0.816316
      4          1           0       -0.180394   -1.130438    1.853734
      5          1           0       -1.340665   -1.873010    0.714272
      6          1           0        0.397068   -2.233949    0.570583
      7         17           0       -1.691111    1.606880    0.422470
      8          6           0        2.401678    0.617030    0.311263
      9          7           0        3.536249    0.897328    0.341566
 ---------------------------------------------------------------------
                    Distance matrix (angstroms):
                    1          2          3          4          5
     1  C    0.000000
     2  O    1.297687   0.000000
     3  C    1.558443   2.404928   0.000000
     4  H    2.230287   3.341377   1.097150   0.000000
     5  H    2.161827   2.709087   1.097876   1.787740   0.000000
     6  H    2.175937   2.643176   1.094698   1.788205   1.780629
     7  Cl   2.500000   3.278138   3.372759   3.438560   3.509643
     8  C    2.800000   3.438162   3.465889   3.478499   4.513075
     9  N    3.954575   4.476902   4.550864   4.495767   5.621208
                    6          7          8          9
     6  H    0.000000
     7  Cl   4.374288   0.000000
     8  C    3.494824   4.212255   0.000000
     9  N    4.439798   5.275917   1.169075   0.000000
 Stoichiometry    C3H3ClNO(1-)
 Framework group  C1[X(C3H3ClNO)]
 Deg. of freedom    21
 Full point group                 C1      NOp   1
 Largest Abelian subgroup         C1      NOp   1
 Largest concise Abelian subgroup C1      NOp   1
                         Standard orientation:                         
 ---------------------------------------------------------------------
 Center     Atomic      Atomic             Coordinates (Angstroms)
 Number     Number       Type             X           Y           Z
 ---------------------------------------------------------------------
      1          6           0       -0.211724    0.676968    0.206627
      2          8           0       -0.235489    1.293293    1.348367
      3          6           0       -0.234961    1.619404   -1.034347
      4          1           0       -0.117206    1.083257   -1.984303
      5          1           0       -1.198993    2.144733   -1.036137
      6          1           0        0.565721    2.359114   -0.933839
      7         17           0       -1.886877   -1.158194   -0.069138
      8          6           0        2.282971   -0.562060   -0.078511
      9          7           0        3.384796   -0.950003   -0.031418
 ---------------------------------------------------------------------
 Rotational constants (GHZ):           2.7101705           1.2655314           1.0315622
 Leave Link  202 at Wed Jan  8 01:20:32 2020, MaxMem=  4294967296 cpu:               2.2 elap:               0.2
 (Enter /home/cwagen/sw/g16/g16/l301.exe)
 Standard basis: 6-31+G(d) (6D, 7F)
 Ernie: Thresh=  0.10000D-02 Tol=  0.10000D-05 Strict=F.
 There are   124 symmetry adapted cartesian basis functions of A   symmetry.
 There are   124 symmetry adapted basis functions of A   symmetry.
   124 basis functions,   228 primitive gaussians,   124 cartesian basis functions
    27 alpha electrons       27 beta electrons
       nuclear repulsion energy       212.9159656823 Hartrees.
 IExCor=  402 DFT=T Ex+Corr=B3LYP ExCW=0 ScaHFX=  0.200000
 ScaDFX=  0.800000  0.720000  1.000000  0.810000 ScalE2=  1.000000  1.000000
 IRadAn=      5 IRanWt=     -1 IRanGd=            0 ICorTp=0 IEmpDi=  4
 NAtoms=    9 NActive=    9 NUniq=    9 SFac= 1.00D+00 NAtFMM=   60 NAOKFM=F Big=F
 Integral buffers will be    131072 words long.
 Raffenetti 2 integral format.
 Two-electron integral symmetry is turned on.
 ------------------------------------------------------------------------------
 Polarizable Continuum Model (PCM)
 =================================
 Model                : PCM.
 Atomic radii         : SMD-Coulomb.
 Polarization charges : Total charges.
 Charge compensation  : None.
 Solution method      : On-the-fly selection.
 Cavity type          : VdW (van der Waals Surface) (Alpha=1.000).
 Cavity algorithm     : GePol (No added spheres)
                        Default sphere list used, NSphG=    9.
                        Lebedev-Laikov grids with approx.  5.0 points / Ang**2.
                        Smoothing algorithm: York/Karplus (Gamma=1.0000).
                        Polarization charges: spherical gaussians, with
                                              point-specific exponents (IZeta= 3).
                        Self-potential: point-specific (ISelfS= 7).
                        Self-field    : sphere-specific E.n sum rule (ISelfD= 2).
 1st derivatives      : Analytical E(r).r(x)/FMM algorithm (CHGder, D1EAlg=3).
                        Cavity 1st derivative terms included.
 Solvent              : TetraHydroFuran, Eps=   7.425700 Eps(inf)=   1.974025
 ------------------------------------------------------------------------------
 Spheres list:
 ISph  on   Nord     Re0    Alpha      Xe            Ye            Ze
    1   C      1    1.8500  1.000     -0.211724      0.676968      0.206627
    2   O      2    2.2940  1.000     -0.235489      1.293293      1.348367
    3   C      3    1.8500  1.000     -0.234961      1.619404     -1.034347
    4   H      4    1.2000  1.000     -0.117206      1.083257     -1.984303
    5   H      5    1.2000  1.000     -1.198993      2.144733     -1.036137
    6   H      6    1.2000  1.000      0.565721      2.359114     -0.933839
    7  Cl      7    2.3800  1.000     -1.886877     -1.158194     -0.069138
    8   C      8    1.8500  1.000      2.282971     -0.562060     -0.078511
    9   N      9    1.8900  1.000      3.384796     -0.950003     -0.031418
 ------------------------------------------------------------------------------
 GePol: Number of generator spheres                  =       9
 GePol: Total number of spheres                      =       9
 GePol: Number of exposed spheres                    =       9 (100.00%)
 GePol: Number of points                             =    1344
 GePol: Average weight of points                     =       0.14
 GePol: Minimum weight of points                     =   0.26D-10
 GePol: Maximum weight of points                     =    0.18138
 GePol: Number of points with low weight             =      30
 GePol: Fraction of low-weight points (<1% of avg)   =       2.23%
 GePol: Cavity surface area                          =    181.804 Ang**2
 GePol: Cavity volume                                =    159.322 Ang**3
 ------------------------------------------------------------------------------
 Atomic radii for non-electrostatic terms: SMD-CDS.
 ------------------------------------------------------------------------------
 PCM non-electrostatic energy =         0.0011467433 Hartrees.
 Nuclear repulsion after PCM non-electrostatic terms =      212.9171124256 Hartrees.
 Leave Link  301 at Wed Jan  8 01:20:32 2020, MaxMem=  4294967296 cpu:               2.3 elap:               0.2
 (Enter /home/cwagen/sw/g16/g16/l302.exe)
 NPDir=0 NMtPBC=     1 NCelOv=     1 NCel=       1 NClECP=     1 NCelD=      1
         NCelK=      1 NCelE2=     1 NClLst=     1 CellRange=     0.0.
 One-electron integrals computed using PRISM.
 One-electron integral symmetry used in STVInt
 NBasis=   124 RedAO= T EigKep=  2.00D-04  NBF=   124
 NBsUse=   124 1.00D-06 EigRej= -1.00D+00 NBFU=   124
 Precomputing XC quadrature grid using
 IXCGrd= 4 IRadAn=           5 IRanWt=          -1 IRanGd=           0 AccXCQ= 0.00D+00.
 Generated NRdTot=       0 NPtTot=           0 NUsed=           0 NTot=          32
 NSgBfM=   124   124   124   124   124 MxSgAt=     9 MxSgA2=     9.
 Leave Link  302 at Wed Jan  8 01:20:34 2020, MaxMem=  4294967296 cpu:              26.1 elap:               2.0
 (Enter /home/cwagen/sw/g16/g16/l303.exe)
 DipDrv:  MaxL=1.
 Leave Link  303 at Wed Jan  8 01:20:35 2020, MaxMem=  4294967296 cpu:               3.7 elap:               0.4
 (Enter /home/cwagen/sw/g16/g16/l401.exe)
 ExpMin= 4.38D-02 ExpMax= 2.52D+04 ExpMxC= 3.78D+03 IAcc=3 IRadAn=         5 AccDes= 0.00D+00
 Harris functional with IExCor=  402 and IRadAn=       5 diagonalized for initial guess.
 HarFok:  IExCor=  402 AccDes= 0.00D+00 IRadAn=         5 IDoV= 1 UseB2=F ITyADJ=14
 ICtDFT=  3500011 ScaDFX=  1.000000  1.000000  1.000000  1.000000
 FoFCou: FMM=F IPFlag=           0 FMFlag=      100000 FMFlg1=           0
         NFxFlg=           0 DoJE=T BraDBF=F KetDBF=T FulRan=T
         wScrn=  0.000000 ICntrl=       500 IOpCl=  0 I1Cent=   200000004 NGrid=           0
         NMat0=    1 NMatS0=      1 NMatT0=    0 NMatD0=    1 NMtDS0=    0 NMtDT0=    0
 Petite list used in FoFCou.
 Harris En= -706.343383539900    
 JPrj=0 DoOrth=F DoCkMO=F.
 Leave Link  401 at Wed Jan  8 01:20:37 2020, MaxMem=  4294967296 cpu:              27.3 elap:               2.2
 (Enter /home/cwagen/sw/g16/g16/l502.exe)
 Keep R1 ints in memory in canonical form, NReq=45236517.
 FoFCou: FMM=F IPFlag=           0 FMFlag=           0 FMFlg1=           0
         NFxFlg=           0 DoJE=F BraDBF=F KetDBF=F FulRan=T
         wScrn=  0.000000 ICntrl=       600 IOpCl=  0 I1Cent=           0 NGrid=           0
         NMat0=    1 NMatS0=   7750 NMatT0=    0 NMatD0=    1 NMtDS0=    0 NMtDT0=    0
 Symmetry not used in FoFCou.
 Two-electron integral symmetry not used.
 Closed shell SCF:
 Using DIIS extrapolation, IDIIS=  1040.
 NGot=  4294967296 LenX=  4264898079 LenY=  4264882262
 Requested convergence on RMS density matrix=1.00D-08 within 128 cycles.
 Requested convergence on MAX density matrix=1.00D-06.
 Requested convergence on             energy=1.00D-06.
 No special actions if energy rises.

 Cycle   1  Pass 1  IDiag  1:
 Inv3:  Mode=1 IEnd=     5419008.
 Iteration    1 A*A^-1 deviation from unit magnitude is 4.00D-15 for   1335.
 Iteration    1 A*A^-1 deviation from orthogonality  is 1.28D-15 for    635    181.
 Iteration    1 A^-1*A deviation from unit magnitude is 4.66D-15 for   1335.
 Iteration    1 A^-1*A deviation from orthogonality  is 1.05D-15 for    398     99.
 E= -706.150653517509    
 DIIS: error= 2.66D-02 at cycle   1 NSaved=   1.
 NSaved= 1 IEnMin= 1 EnMin= -706.150653517509     IErMin= 1 ErrMin= 2.66D-02
 ErrMax= 2.66D-02  0.00D+00 EMaxC= 1.00D-01 BMatC= 1.99D-01 BMatP= 1.99D-01
 IDIUse=3 WtCom= 7.34D-01 WtEn= 2.66D-01
 Coeff-Com:  0.100D+01
 Coeff-En:   0.100D+01
 Coeff:      0.100D+01
 Gap=     0.123 Goal=   None    Shift=    0.000
 GapD=    0.123 DampG=1.000 DampE=0.500 DampFc=0.5000 IDamp=-1.
 Damping current iteration by 5.00D-01
 RMSDP=1.17D-02 MaxDP=2.92D-01              OVMax= 4.18D-01

 Cycle   2  Pass 1  IDiag  1:
 E= -706.087236970609     Delta-E=        0.063416546900 Rises=F Damp=T
 DIIS: error= 2.01D-02 at cycle   2 NSaved=   2.
 NSaved= 2 IEnMin= 1 EnMin= -706.150653517509     IErMin= 2 ErrMin= 2.01D-02
 ErrMax= 2.01D-02  0.00D+00 EMaxC= 1.00D-01 BMatC= 1.04D-01 BMatP= 1.99D-01
 IDIUse=3 WtCom= 7.99D-01 WtEn= 2.01D-01
 Coeff-Com:  0.402D+00 0.598D+00
 Coeff-En:   0.594D+00 0.406D+00
 Coeff:      0.440D+00 0.560D+00
 Gap=     0.084 Goal=   None    Shift=    0.000
 RMSDP=4.04D-03 MaxDP=9.53D-02 DE= 6.34D-02 OVMax= 3.71D-01

 Cycle   3  Pass 1  IDiag  1:
 E= -706.304410050837     Delta-E=       -0.217173080228 Rises=F Damp=F
 DIIS: error= 1.15D-02 at cycle   3 NSaved=   3.
 NSaved= 3 IEnMin= 3 EnMin= -706.304410050837     IErMin= 3 ErrMin= 1.15D-02
 ErrMax= 1.15D-02  0.00D+00 EMaxC= 1.00D-01 BMatC= 4.25D-02 BMatP= 1.04D-01
 IDIUse=3 WtCom= 8.85D-01 WtEn= 1.15D-01
 Coeff-Com:  0.166D+00 0.380D+00 0.453D+00
 Coeff-En:   0.000D+00 0.000D+00 0.100D+01
 Coeff:      0.147D+00 0.337D+00 0.516D+00
 Gap=     0.132 Goal=   None    Shift=    0.000
 RMSDP=2.05D-03 MaxDP=4.97D-02 DE=-2.17D-01 OVMax= 6.89D-02

 Cycle   4  Pass 1  IDiag  1:
 E= -706.336327796646     Delta-E=       -0.031917745810 Rises=F Damp=F
 DIIS: error= 7.53D-03 at cycle   4 NSaved=   4.
 NSaved= 4 IEnMin= 4 EnMin= -706.336327796646     IErMin= 4 ErrMin= 7.53D-03
 ErrMax= 7.53D-03  0.00D+00 EMaxC= 1.00D-01 BMatC= 9.80D-03 BMatP= 4.25D-02
 IDIUse=3 WtCom= 9.25D-01 WtEn= 7.53D-02
 Coeff-Com:  0.435D-01 0.103D+00 0.331D+00 0.523D+00
 Coeff-En:   0.000D+00 0.000D+00 0.205D+00 0.795D+00
 Coeff:      0.402D-01 0.949D-01 0.321D+00 0.544D+00
 Gap=     0.114 Goal=   None    Shift=    0.000
 RMSDP=1.05D-03 MaxDP=2.79D-02 DE=-3.19D-02 OVMax= 5.34D-02

 Cycle   5  Pass 1  IDiag  1:
 E= -706.343032880615     Delta-E=       -0.006705083968 Rises=F Damp=F
 DIIS: error= 3.36D-03 at cycle   5 NSaved=   5.
 NSaved= 5 IEnMin= 5 EnMin= -706.343032880615     IErMin= 5 ErrMin= 3.36D-03
 ErrMax= 3.36D-03  0.00D+00 EMaxC= 1.00D-01 BMatC= 2.07D-03 BMatP= 9.80D-03
 IDIUse=3 WtCom= 9.66D-01 WtEn= 3.36D-02
 Coeff-Com:  0.164D-03 0.178D-01 0.148D+00 0.383D+00 0.452D+00
 Coeff-En:   0.000D+00 0.000D+00 0.000D+00 0.217D+00 0.783D+00
 Coeff:      0.159D-03 0.172D-01 0.143D+00 0.377D+00 0.463D+00
 Gap=     0.122 Goal=   None    Shift=    0.000
 RMSDP=4.70D-04 MaxDP=1.13D-02 DE=-6.71D-03 OVMax= 2.90D-02

 Cycle   6  Pass 1  IDiag  1:
 E= -706.344941814776     Delta-E=       -0.001908934161 Rises=F Damp=F
 DIIS: error= 8.01D-04 at cycle   6 NSaved=   6.
 NSaved= 6 IEnMin= 6 EnMin= -706.344941814776     IErMin= 6 ErrMin= 8.01D-04
 ErrMax= 8.01D-04  0.00D+00 EMaxC= 1.00D-01 BMatC= 1.61D-04 BMatP= 2.07D-03
 IDIUse=3 WtCom= 9.92D-01 WtEn= 8.01D-03
 Coeff-Com: -0.152D-02 0.562D-02 0.687D-01 0.192D+00 0.297D+00 0.438D+00
 Coeff-En:   0.000D+00 0.000D+00 0.000D+00 0.000D+00 0.579D-01 0.942D+00
 Coeff:     -0.151D-02 0.557D-02 0.682D-01 0.190D+00 0.295D+00 0.442D+00
 Gap=     0.123 Goal=   None    Shift=    0.000
 RMSDP=1.52D-04 MaxDP=5.65D-03 DE=-1.91D-03 OVMax= 8.77D-03

 Cycle   7  Pass 1  IDiag  1:
 E= -706.345121048501     Delta-E=       -0.000179233725 Rises=F Damp=F
 DIIS: error= 2.17D-04 at cycle   7 NSaved=   7.
 NSaved= 7 IEnMin= 7 EnMin= -706.345121048501     IErMin= 7 ErrMin= 2.17D-04
 ErrMax= 2.17D-04  0.00D+00 EMaxC= 1.00D-01 BMatC= 7.70D-06 BMatP= 1.61D-04
 IDIUse=3 WtCom= 9.98D-01 WtEn= 2.17D-03
 Coeff-Com: -0.719D-03-0.129D-02 0.118D-01 0.365D-01 0.795D-01 0.216D+00
 Coeff-Com:  0.658D+00
 Coeff-En:   0.000D+00 0.000D+00 0.000D+00 0.000D+00 0.000D+00 0.000D+00
 Coeff-En:   0.100D+01
 Coeff:     -0.718D-03-0.128D-02 0.117D-01 0.364D-01 0.793D-01 0.215D+00
 Coeff:      0.659D+00
 Gap=     0.122 Goal=   None    Shift=    0.000
 RMSDP=4.12D-05 MaxDP=9.51D-04 DE=-1.79D-04 OVMax= 1.66D-03

 Cycle   8  Pass 1  IDiag  1:
 E= -706.345129092660     Delta-E=       -0.000008044159 Rises=F Damp=F
 DIIS: error= 8.88D-05 at cycle   8 NSaved=   8.
 NSaved= 8 IEnMin= 8 EnMin= -706.345129092660     IErMin= 8 ErrMin= 8.88D-05
 ErrMax= 8.88D-05  0.00D+00 EMaxC= 1.00D-01 BMatC= 1.11D-06 BMatP= 7.70D-06
 IDIUse=1 WtCom= 1.00D+00 WtEn= 0.00D+00
 Coeff-Com: -0.132D-03-0.843D-03 0.521D-03 0.219D-02 0.154D-01 0.667D-01
 Coeff-Com:  0.354D+00 0.562D+00
 Coeff:     -0.132D-03-0.843D-03 0.521D-03 0.219D-02 0.154D-01 0.667D-01
 Coeff:      0.354D+00 0.562D+00
 Gap=     0.123 Goal=   None    Shift=    0.000
 RMSDP=1.54D-05 MaxDP=3.46D-04 DE=-8.04D-06 OVMax= 8.12D-04

 Cycle   9  Pass 1  IDiag  1:
 E= -706.345130239181     Delta-E=       -0.000001146521 Rises=F Damp=F
 DIIS: error= 3.35D-05 at cycle   9 NSaved=   9.
 NSaved= 9 IEnMin= 9 EnMin= -706.345130239181     IErMin= 9 ErrMin= 3.35D-05
 ErrMax= 3.35D-05  0.00D+00 EMaxC= 1.00D-01 BMatC= 2.05D-07 BMatP= 1.11D-06
 IDIUse=1 WtCom= 1.00D+00 WtEn= 0.00D+00
 Coeff-Com:  0.319D-04-0.456D-03-0.126D-02-0.358D-02 0.385D-03 0.160D-01
 Coeff-Com:  0.152D+00 0.361D+00 0.475D+00
 Coeff:      0.319D-04-0.456D-03-0.126D-02-0.358D-02 0.385D-03 0.160D-01
 Coeff:      0.152D+00 0.361D+00 0.475D+00
 Gap=     0.122 Goal=   None    Shift=    0.000
 RMSDP=5.33D-06 MaxDP=1.54D-04 DE=-1.15D-06 OVMax= 2.94D-04

 Cycle  10  Pass 1  IDiag  1:
 E= -706.345130461968     Delta-E=       -0.000000222787 Rises=F Damp=F
 DIIS: error= 8.65D-06 at cycle  10 NSaved=  10.
 NSaved=10 IEnMin=10 EnMin= -706.345130461968     IErMin=10 ErrMin= 8.65D-06
 ErrMax= 8.65D-06  0.00D+00 EMaxC= 1.00D-01 BMatC= 2.92D-08 BMatP= 2.05D-07
 IDIUse=1 WtCom= 1.00D+00 WtEn= 0.00D+00
 Coeff-Com:  0.300D-04-0.898D-04-0.638D-03-0.195D-02-0.162D-02-0.467D-02
 Coeff-Com:  0.824D-02 0.990D-01 0.298D+00 0.604D+00
 Coeff:      0.300D-04-0.898D-04-0.638D-03-0.195D-02-0.162D-02-0.467D-02
 Coeff:      0.824D-02 0.990D-01 0.298D+00 0.604D+00
 Gap=     0.122 Goal=   None    Shift=    0.000
 RMSDP=1.69D-06 MaxDP=3.64D-05 DE=-2.23D-07 OVMax= 9.60D-05

 Cycle  11  Pass 1  IDiag  1:
 E= -706.345130496477     Delta-E=       -0.000000034510 Rises=F Damp=F
 DIIS: error= 1.63D-06 at cycle  11 NSaved=  11.
 NSaved=11 IEnMin=11 EnMin= -706.345130496477     IErMin=11 ErrMin= 1.63D-06
 ErrMax= 1.63D-06  0.00D+00 EMaxC= 1.00D-01 BMatC= 6.26D-10 BMatP= 2.92D-08
 IDIUse=1 WtCom= 1.00D+00 WtEn= 0.00D+00
 Coeff-Com: -0.269D-05 0.292D-04-0.559D-04-0.189D-03-0.249D-03-0.240D-02
 Coeff-Com: -0.148D-01-0.122D-01 0.201D-02 0.719D-01 0.956D+00
 Coeff:     -0.269D-05 0.292D-04-0.559D-04-0.189D-03-0.249D-03-0.240D-02
 Coeff:     -0.148D-01-0.122D-01 0.201D-02 0.719D-01 0.956D+00
 Gap=     0.122 Goal=   None    Shift=    0.000
 RMSDP=5.32D-07 MaxDP=1.02D-05 DE=-3.45D-08 OVMax= 2.27D-05

 Cycle  12  Pass 1  IDiag  1:
 E= -706.345130497628     Delta-E=       -0.000000001150 Rises=F Damp=F
 DIIS: error= 3.01D-07 at cycle  12 NSaved=  12.
 NSaved=12 IEnMin=12 EnMin= -706.345130497628     IErMin=12 ErrMin= 3.01D-07
 ErrMax= 3.01D-07  0.00D+00 EMaxC= 1.00D-01 BMatC= 1.93D-11 BMatP= 6.26D-10
 IDIUse=1 WtCom= 1.00D+00 WtEn= 0.00D+00
 Coeff-Com: -0.385D-05 0.101D-04 0.189D-05 0.694D-05 0.151D-04-0.166D-03
 Coeff-Com: -0.264D-02-0.382D-02-0.899D-02-0.126D-01 0.153D+00 0.875D+00
 Coeff:     -0.385D-05 0.101D-04 0.189D-05 0.694D-05 0.151D-04-0.166D-03
 Coeff:     -0.264D-02-0.382D-02-0.899D-02-0.126D-01 0.153D+00 0.875D+00
 Gap=     0.122 Goal=   None    Shift=    0.000
 RMSDP=8.52D-08 MaxDP=2.45D-06 DE=-1.15D-09 OVMax= 3.69D-06

 Cycle  13  Pass 1  IDiag  1:
 E= -706.345130497660     Delta-E=       -0.000000000033 Rises=F Damp=F
 DIIS: error= 6.27D-08 at cycle  13 NSaved=  13.
 NSaved=13 IEnMin=13 EnMin= -706.345130497660     IErMin=13 ErrMin= 6.27D-08
 ErrMax= 6.27D-08  0.00D+00 EMaxC= 1.00D-01 BMatC= 7.11D-13 BMatP= 1.93D-11
 IDIUse=1 WtCom= 1.00D+00 WtEn= 0.00D+00
 Coeff-Com: -0.745D-06 0.510D-06 0.168D-05 0.590D-05 0.158D-04 0.947D-04
 Coeff-Com:  0.346D-03 0.233D-03-0.180D-02-0.644D-02-0.233D-01 0.161D+00
 Coeff-Com:  0.869D+00
 Coeff:     -0.745D-06 0.510D-06 0.168D-05 0.590D-05 0.158D-04 0.947D-04
 Coeff:      0.346D-03 0.233D-03-0.180D-02-0.644D-02-0.233D-01 0.161D+00
 Coeff:      0.869D+00
 Gap=     0.122 Goal=   None    Shift=    0.000
 RMSDP=1.75D-08 MaxDP=2.27D-07 DE=-3.27D-11 OVMax= 4.98D-07

 Cycle  14  Pass 1  IDiag  1:
 E= -706.345130497661     Delta-E=       -0.000000000001 Rises=F Damp=F
 DIIS: error= 1.67D-08 at cycle  14 NSaved=  14.
 NSaved=14 IEnMin=14 EnMin= -706.345130497661     IErMin=14 ErrMin= 1.67D-08
 ErrMax= 1.67D-08  0.00D+00 EMaxC= 1.00D-01 BMatC= 4.50D-14 BMatP= 7.11D-13
 IDIUse=1 WtCom= 1.00D+00 WtEn= 0.00D+00
 Coeff-Com:  0.315D-07-0.254D-06 0.636D-06 0.173D-05 0.373D-05 0.227D-04
 Coeff-Com:  0.141D-03 0.121D-03-0.169D-03-0.120D-02-0.956D-02 0.137D-01
 Coeff-Com:  0.217D+00 0.780D+00
 Coeff:      0.315D-07-0.254D-06 0.636D-06 0.173D-05 0.373D-05 0.227D-04
 Coeff:      0.141D-03 0.121D-03-0.169D-03-0.120D-02-0.956D-02 0.137D-01
 Coeff:      0.217D+00 0.780D+00
 Gap=     0.122 Goal=   None    Shift=    0.000
 RMSDP=3.55D-09 MaxDP=1.09D-07 DE=-5.68D-13 OVMax= 8.61D-08

 Error on total polarization charges =  0.02527
 SCF Done:  E(RB3LYP) =  -706.345130498     A.U. after   14 cycles
            NFock= 14  Conv=0.35D-08     -V/T= 2.0064
 KE= 7.018419045275D+02 PE=-2.102448293021D+03 EE= 4.813441455703D+02
 SMD-CDS (non-electrostatic) energy       (kcal/mol) =       0.72
 (included in total energy above)
 Leave Link  502 at Wed Jan  8 01:21:11 2020, MaxMem=  4294967296 cpu:             457.0 elap:              33.1
 (Enter /home/cwagen/sw/g16/g16/l601.exe)
 Copying SCF densities to generalized density rwf, IOpCl= 0 IROHF=0.

 **********************************************************************

            Population analysis using the SCF density.

 **********************************************************************

 Orbital symmetries:
       Occupied  (A) (A) (A) (A) (A) (A) (A) (A) (A) (A) (A) (A)
                 (A) (A) (A) (A) (A) (A) (A) (A) (A) (A) (A) (A)
                 (A) (A) (A)
       Virtual   (A) (A) (A) (A) (A) (A) (A) (A) (A) (A) (A) (A)
                 (A) (A) (A) (A) (A) (A) (A) (A) (A) (A) (A) (A)
                 (A) (A) (A) (A) (A) (A) (A) (A) (A) (A) (A) (A)
                 (A) (A) (A) (A) (A) (A) (A) (A) (A) (A) (A) (A)
                 (A) (A) (A) (A) (A) (A) (A) (A) (A) (A) (A) (A)
                 (A) (A) (A) (A) (A) (A) (A) (A) (A) (A) (A) (A)
                 (A) (A) (A) (A) (A) (A) (A) (A) (A) (A) (A) (A)
                 (A) (A) (A) (A) (A) (A) (A) (A) (A) (A) (A) (A)
                 (A)
 The electronic state is 1-A.
 Alpha  occ. eigenvalues -- -101.49182 -19.21810 -14.27821 -10.37113 -10.21829
 Alpha  occ. eigenvalues --  -10.15186  -9.40406  -7.16619  -7.15978  -7.15961
 Alpha  occ. eigenvalues --   -1.05133  -0.83885  -0.75211  -0.73226  -0.55751
 Alpha  occ. eigenvalues --   -0.45060  -0.44760  -0.44558  -0.37773  -0.37524
 Alpha  occ. eigenvalues --   -0.36112  -0.28512  -0.28481  -0.27873  -0.26901
 Alpha  occ. eigenvalues --   -0.26714  -0.25374
 Alpha virt. eigenvalues --   -0.13127  -0.05185   0.03041   0.04539   0.05053
 Alpha virt. eigenvalues --    0.05362   0.07223   0.08161   0.08559   0.09221
 Alpha virt. eigenvalues --    0.10266   0.10800   0.11196   0.11939   0.13009
 Alpha virt. eigenvalues --    0.14095   0.14997   0.16064   0.16704   0.19759
 Alpha virt. eigenvalues --    0.21436   0.22714   0.24161   0.24451   0.25269
 Alpha virt. eigenvalues --    0.25825   0.26546   0.28098   0.30411   0.32151
 Alpha virt. eigenvalues --    0.33574   0.36911   0.39806   0.53331   0.60942
 Alpha virt. eigenvalues --    0.63686   0.65104   0.66316   0.66741   0.69722
 Alpha virt. eigenvalues --    0.72249   0.74248   0.75352   0.76174   0.78206
 Alpha virt. eigenvalues --    0.79945   0.84428   0.91540   0.93139   0.93709
 Alpha virt. eigenvalues --    0.94404   0.95598   0.97136   0.99650   1.01424
 Alpha virt. eigenvalues --    1.02810   1.07605   1.13562   1.14511   1.19592
 Alpha virt. eigenvalues --    1.25837   1.26783   1.29142   1.31630   1.43869
 Alpha virt. eigenvalues --    1.47855   1.49888   1.58744   1.59315   1.59481
 Alpha virt. eigenvalues --    1.59718   1.63073   1.66322   1.73657   1.78952
 Alpha virt. eigenvalues --    1.85778   1.94675   2.02197   2.02276   2.10024
 Alpha virt. eigenvalues --    2.17549   2.22411   2.26138   2.46298   2.48173
 Alpha virt. eigenvalues --    2.51953   2.65945   2.66107   2.69804   2.91681
 Alpha virt. eigenvalues --    3.08027   3.99717   4.13070   4.17926   4.28070
 Alpha virt. eigenvalues --    4.36145   4.39585
          Condensed to atoms (all electrons):
               1          2          3          4          5          6
     1  C    5.053051   0.504293   0.017349  -0.054273  -0.009269  -0.033448
     2  O    0.504293   7.915066  -0.113705   0.007343  -0.008416  -0.005846
     3  C    0.017349  -0.113705   5.771887   0.378239   0.349371   0.376187
     4  H   -0.054273   0.007343   0.378239   0.439747  -0.023105  -0.022306
     5  H   -0.009269  -0.008416   0.349371  -0.023105   0.431616  -0.022050
     6  H   -0.033448  -0.005846   0.376187  -0.022306  -0.022050   0.427147
     7  Cl   0.020165  -0.031358   0.011070   0.004197  -0.004380   0.002270
     8  C    0.221902  -0.048781  -0.168710   0.001368   0.004176  -0.005659
     9  N   -0.004377   0.000119  -0.000075  -0.000117  -0.000024   0.000137
               7          8          9
     1  C    0.020165   0.221902  -0.004377
     2  O   -0.031358  -0.048781   0.000119
     3  C    0.011070  -0.168710  -0.000075
     4  H    0.004197   0.001368  -0.000117
     5  H   -0.004380   0.004176  -0.000024
     6  H    0.002270  -0.005659   0.000137
     7  Cl  17.503201  -0.034058  -0.000899
     8  C   -0.034058   5.575056   0.648834
     9  N   -0.000899   0.648834   6.970907
 Mulliken charges:
               1
     1  C    0.284607
     2  O   -0.218713
     3  C   -0.621613
     4  H    0.268908
     5  H    0.282082
     6  H    0.283568
     7  Cl  -0.470208
     8  C   -0.194127
     9  N   -0.614503
 Sum of Mulliken charges =  -1.00000
 Mulliken charges with hydrogens summed into heavy atoms:
               1
     1  C    0.284607
     2  O   -0.218713
     3  C    0.212945
     7  Cl  -0.470208
     8  C   -0.194127
     9  N   -0.614503
 Electronic spatial extent (au):  <R**2>=           1125.0068
 Charge=             -1.0000 electrons
 Dipole moment (field-independent basis, Debye):
    X=             -6.9726    Y=              7.5685    Z=             -2.6396  Tot=             10.6239
 Quadrupole moment (field-independent basis, Debye-Ang):
   XX=            -90.3764   YY=            -48.6539   ZZ=            -47.2112
   XY=              4.8036   XZ=              1.0809   YZ=             -5.1775
 Traceless Quadrupole moment (field-independent basis, Debye-Ang):
   XX=            -28.2959   YY=             13.4266   ZZ=             14.8693
   XY=              4.8036   XZ=              1.0809   YZ=             -5.1775
 Octapole moment (field-independent basis, Debye-Ang**2):
  XXX=           -132.4004  YYY=             27.9413  ZZZ=             -4.1292  XYY=            -13.3761
  XXY=             49.6867  XXZ=              2.1344  XZZ=             -6.3994  YZZ=              4.2662
  YYZ=             -6.6935  XYZ=              0.9803
 Hexadecapole moment (field-independent basis, Debye-Ang**3):
 XXXX=          -1535.3584 YYYY=           -405.4186 ZZZZ=           -177.1864 XXXY=            124.2289
 XXXZ=              5.6288 YYYX=             20.0369 YYYZ=            -11.5939 ZZZX=              2.0745
 ZZZY=             -5.6540 XXYY=           -283.4369 XXZZ=           -209.9650 YYZZ=           -100.0706
 XXYZ=             -2.3050 YYXZ=              2.6247 ZZXY=              4.0809
 N-N= 2.129171124256D+02 E-N=-2.102448293163D+03  KE= 7.018419045275D+02
 No NMR shielding tensors so no spin-rotation constants.
 Leave Link  601 at Wed Jan  8 01:21:12 2020, MaxMem=  4294967296 cpu:              14.6 elap:               1.2
 (Enter /home/cwagen/sw/g16/g16/l701.exe)
 ... and contract with generalized density number  0.
 Compute integral first derivatives.
 D1PCM: PCM CHGder 1st derivatives, ID1Alg=3 FixD1E=F DoIter=F DoCFld=F I1PDM=0.
 GePol: Maximum number of non-zero 1st derivatives   =     394
 Leave Link  701 at Wed Jan  8 01:21:17 2020, MaxMem=  4294967296 cpu:              62.2 elap:               4.8
 (Enter /home/cwagen/sw/g16/g16/l702.exe)
 L702 exits ... SP integral derivatives will be done elsewhere.
 Leave Link  702 at Wed Jan  8 01:21:17 2020, MaxMem=  4294967296 cpu:               1.2 elap:               0.1
 (Enter /home/cwagen/sw/g16/g16/l703.exe)
 Integral derivatives from FoFJK, PRISM(SPDF).
 Compute integral first derivatives, UseDBF=F ICtDFT=           0.
 Calling FoFJK, ICntrl=      2127 FMM=F ISym2X=0 I1Cent= 0 IOpClX= 0 NMat=1 NMatS=1 NMatT=0.
 FoFJK:  IHMeth= 1 ICntrl=    2127 DoSepK=F KAlg= 0 I1Cent=           0 FoldK=F
 IRaf=         0 NMat=       1 IRICut=       1 DoRegI=T DoRafI=F ISym2E= 0 IDoP0=0 IntGTp=1.
 FoFCou: FMM=F IPFlag=           0 FMFlag=      100000 FMFlg1=         800
         NFxFlg=           0 DoJE=F BraDBF=F KetDBF=F FulRan=T
         wScrn=  0.000000 ICntrl=      2127 IOpCl=  0 I1Cent=           0 NGrid=           0
         NMat0=    1 NMatS0=      1 NMatT0=    0 NMatD0=    1 NMtDS0=    0 NMtDT0=    0
 Symmetry not used in FoFCou.
 Leave Link  703 at Wed Jan  8 01:21:19 2020, MaxMem=  4294967296 cpu:              31.1 elap:               2.3
 (Enter /home/cwagen/sw/g16/g16/l716.exe)
 Dipole        =-2.74324239D+00 2.97766517D+00-1.03850836D+00
 ***** Axes restored to original set *****
 -------------------------------------------------------------------
 Center     Atomic                   Forces (Hartrees/Bohr)
 Number     Number              X              Y              Z
 -------------------------------------------------------------------
      1        6          -0.031010194   -0.084573760   -0.137595163
      2        8           0.014075669    0.073864420    0.141113943
      3        6           0.006069078    0.024033135    0.017445906
      4        1          -0.000297803    0.001593885   -0.004959223
      5        1           0.000079595    0.005799685   -0.003391783
      6        1           0.002212719    0.004855666   -0.004088428
      7       17           0.021400044   -0.021998326   -0.006999507
      8        6          -0.029277050   -0.007771335   -0.002309325
      9        7           0.016747943    0.004196631    0.000783579
 -------------------------------------------------------------------
 Cartesian Forces:  Max     0.141113943 RMS     0.045486189
 Leave Link  716 at Wed Jan  8 01:21:19 2020, MaxMem=  4294967296 cpu:               1.3 elap:               0.1
 (Enter /home/cwagen/sw/g16/g16/l103.exe)

 GradGradGradGradGradGradGradGradGradGradGradGradGradGradGradGradGradGrad
 Berny optimization.
 FormGI is forming the generalized inverse of G from B-inverse, IUseBI=4.
 Internal  Forces:  Max     0.156891976 RMS     0.031744391
 Search for a local minimum.
 Step number   1 out of a maximum of   41
 All quantities printed in internal units (Hartrees-Bohrs-Radians)
 RMS Force = .32210D-01 SwitMx=.10000D-02 MixMth= 1
 Mixed Optimization -- RFO/linear search
 Second derivative matrix not updated -- first step.
 ITU=  0
     Eigenvalues ---    0.00230   0.04746   0.04746   0.05330   0.05908
     Eigenvalues ---    0.07453   0.10176   0.16000   0.16000   0.16000
     Eigenvalues ---    0.25000   0.25000   0.25000   0.26946   0.33918
     Eigenvalues ---    0.33999   0.34275   0.67840   1.220341000.00000
     Eigenvalues --- 1000.000001000.000001000.000001000.000001000.00000
     Eigenvalues --- 1000.000001000.000001000.000001000.000001000.00000
     Eigenvalues --- 1000.00000
 RFO step:  Lambda=-5.29423321D-02 EMin= 2.30000000D-03
 Linear search not attempted -- first point.
 Maximum step size (   0.300) exceeded in Quadratic search.
    -- Step size scaled by   0.916
 Iteration  1 RMS(Cart)=  0.06740754 RMS(Int)=  0.00568044
 Iteration  2 RMS(Cart)=  0.00743429 RMS(Int)=  0.00127084
 Iteration  3 RMS(Cart)=  0.00005248 RMS(Int)=  0.00127001
 Iteration  4 RMS(Cart)=  0.00000016 RMS(Int)=  0.00127001
 Iteration  1 RMS(Cart)=  0.00000000 RMS(Int)=  0.00000000
 ITry= 1 IFail=0 DXMaxC= 1.64D-01 DCOld= 1.00D+10 DXMaxT= 3.00D-01 DXLimC= 3.00D+00 Rises=F
 Variable       Old X    -DE/DX   Delta X   Delta X   Delta X     New X
                                 (Linear)    (Quad)   (Total)
    R1        2.45227  -0.15689   0.00000  -0.19650  -0.19650   2.25578
    R2        2.94503  -0.02442   0.00000  -0.06938  -0.06938   2.87565
    R3        4.72432  -0.03131   0.00000   0.00000   0.00000   4.72432
    R4        5.29123  -0.01307   0.00000   0.00000   0.00000   5.29123
    R5        2.07331  -0.00424   0.00000  -0.00989  -0.00989   2.06342
    R6        2.07468  -0.00199   0.00000  -0.00464  -0.00464   2.07004
    R7        2.06868  -0.00108   0.00000  -0.00249  -0.00249   2.06618
    R8        2.20923   0.01727   0.00000   0.01242   0.01242   2.22165
    A1        1.99667   0.05618   0.00000   0.18349   0.18091   2.17758
    A2        2.01908  -0.02089   0.00000  -0.04223  -0.04637   1.97271
    A3        1.89239  -0.01469   0.00000  -0.04383  -0.04289   1.84951
    A4        1.92419  -0.01073   0.00000  -0.02936  -0.03316   1.89103
    A5        1.77194  -0.00980   0.00000  -0.04362  -0.04378   1.72816
    A6        1.83479  -0.00435   0.00000  -0.04708  -0.04920   1.78559
    A7        1.97398  -0.00144   0.00000  -0.00656  -0.00671   1.96727
    A8        1.87942  -0.00719   0.00000  -0.03080  -0.03113   1.84830
    A9        1.90140  -0.00756   0.00000  -0.03231  -0.03263   1.86877
   A10        1.90356   0.00451   0.00000   0.01898   0.01882   1.92238
   A11        1.90837   0.00491   0.00000   0.02085   0.02069   1.92906
   A12        1.89554   0.00702   0.00000   0.03095   0.03038   1.92592
   A13        3.09109   0.00016   0.00000   0.00143   0.00143   3.09252
   A14        2.85938   0.00045   0.00000   0.00413   0.00413   2.86351
    D1        3.04510  -0.00304   0.00000  -0.02473  -0.02576   3.01934
    D2       -1.13357  -0.00321   0.00000  -0.02610  -0.02725  -1.16083
    D3        0.91915  -0.00294   0.00000  -0.02386  -0.02477   0.89438
    D4       -0.92685   0.00825   0.00000   0.05475   0.05490  -0.87195
    D5        1.17766   0.00809   0.00000   0.05338   0.05341   1.23107
    D6       -3.05280   0.00836   0.00000   0.05562   0.05589  -2.99691
    D7        1.01121  -0.00515   0.00000  -0.02947  -0.02858   0.98263
    D8        3.11572  -0.00531   0.00000  -0.03083  -0.03007   3.08565
    D9       -1.11475  -0.00504   0.00000  -0.02859  -0.02758  -1.14233
         Item               Value     Threshold  Converged?
 Maximum Force            0.156892     0.000450     NO 
 RMS     Force            0.032210     0.000300     NO 
 Maximum Displacement     0.163738     0.001800     NO 
 RMS     Displacement     0.065747     0.001200     NO 
 Predicted change in Energy=-2.902238D-02
 Lowest energy point so far.  Saving SCF results.
 GradGradGradGradGradGradGradGradGradGradGradGradGradGradGradGradGradGrad

 Leave Link  103 at Wed Jan  8 01:21:25 2020, MaxMem=  4294967296 cpu:              73.3 elap:               5.7
 (Enter /home/cwagen/sw/g16/g16/l202.exe)
                          Input orientation:                          
 ---------------------------------------------------------------------
 Center     Atomic      Atomic             Coordinates (Angstroms)
 Number     Number       Type             X           Y           Z
 ---------------------------------------------------------------------
      1          6           0       -0.220139   -0.372065   -0.255413
      2          8           0       -0.243483   -0.578610   -1.430881
      3          6           0       -0.319795   -1.447370    0.816707
      4          1           0       -0.155895   -1.056112    1.822853
      5          1           0       -1.330343   -1.861785    0.733067
      6          1           0        0.425220   -2.210600    0.576066
      7         17           0       -1.657888    1.555756    0.427512
      8          6           0        2.354040    0.573664    0.309562
      9          7           0        3.490580    0.869487    0.363569
 ---------------------------------------------------------------------
                    Distance matrix (angstroms):
                    1          2          3          4          5
     1  C    0.000000
     2  O    1.193705   0.000000
     3  C    1.521727   2.410854   0.000000
     4  H    2.188890   3.289752   1.091914   0.000000
     5  H    2.104498   2.740524   1.095420   1.793341   0.000000
     6  H    2.118503   2.671777   1.093378   1.795833   1.796754
     7  Cl   2.500000   3.163808   3.310699   3.320363   3.446771
     8  C    2.800000   3.332267   3.389862   3.353505   4.436829
     9  N    3.961569   4.388652   4.482423   4.374268   5.553168
                    6          7          8          9
     6  H    0.000000
     7  Cl   4.306604   0.000000
     8  C    3.397572   4.132067   0.000000
     9  N    4.350692   5.194398   1.175649   0.000000
 Stoichiometry    C3H3ClNO(1-)
 Framework group  C1[X(C3H3ClNO)]
 Deg. of freedom    21
 Full point group                 C1      NOp   1
 RotChk:  IX=0 Diff= 7.65D-03
 Largest Abelian subgroup         C1      NOp   1
 Largest concise Abelian subgroup C1      NOp   1
                         Standard orientation:                         
 ---------------------------------------------------------------------
 Center     Atomic      Atomic             Coordinates (Angstroms)
 Number     Number       Type             X           Y           Z
 ---------------------------------------------------------------------
      1          6           0       -0.234674    0.747472    0.240349
      2          8           0       -0.241849    1.180581    1.352687
      3          6           0       -0.227777    1.597525   -1.021798
      4          1           0       -0.098869    1.004008   -1.929210
      5          1           0       -1.194361    2.112550   -1.042021
      6          1           0        0.586000    2.320284   -0.917585
      7         17           0       -1.847907   -1.134119   -0.086904
      8          6           0        2.239115   -0.525780   -0.074602
      9          7           0        3.342352   -0.930967   -0.045572
 ---------------------------------------------------------------------
 Rotational constants (GHZ):           2.8242386           1.3027101           1.0727269
 Leave Link  202 at Wed Jan  8 01:21:25 2020, MaxMem=  4294967296 cpu:               2.1 elap:               0.2
 (Enter /home/cwagen/sw/g16/g16/l301.exe)
 Standard basis: 6-31+G(d) (6D, 7F)
 Ernie: Thresh=  0.10000D-02 Tol=  0.10000D-05 Strict=F.
 There are   124 symmetry adapted cartesian basis functions of A   symmetry.
 There are   124 symmetry adapted basis functions of A   symmetry.
   124 basis functions,   228 primitive gaussians,   124 cartesian basis functions
    27 alpha electrons       27 beta electrons
       nuclear repulsion energy       217.2714894036 Hartrees.
 IExCor=  402 DFT=T Ex+Corr=B3LYP ExCW=0 ScaHFX=  0.200000
 ScaDFX=  0.800000  0.720000  1.000000  0.810000 ScalE2=  1.000000  1.000000
 IRadAn=      5 IRanWt=     -1 IRanGd=            0 ICorTp=0 IEmpDi=  4
 NAtoms=    9 NActive=    9 NUniq=    9 SFac= 1.00D+00 NAtFMM=   60 NAOKFM=F Big=F
 Integral buffers will be    131072 words long.
 Raffenetti 2 integral format.
 Two-electron integral symmetry is turned on.
 ------------------------------------------------------------------------------
 Polarizable Continuum Model (PCM)
 =================================
 Model                : PCM.
 Atomic radii         : SMD-Coulomb.
 Polarization charges : Total charges.
 Charge compensation  : None.
 Solution method      : On-the-fly selection.
 Cavity type          : VdW (van der Waals Surface) (Alpha=1.000).
 Cavity algorithm     : GePol (No added spheres)
                        Default sphere list used, NSphG=    9.
                        Lebedev-Laikov grids with approx.  5.0 points / Ang**2.
                        Smoothing algorithm: York/Karplus (Gamma=1.0000).
                        Polarization charges: spherical gaussians, with
                                              point-specific exponents (IZeta= 3).
                        Self-potential: point-specific (ISelfS= 7).
                        Self-field    : sphere-specific E.n sum rule (ISelfD= 2).
 1st derivatives      : Analytical E(r).r(x)/FMM algorithm (CHGder, D1EAlg=3).
                        Cavity 1st derivative terms included.
 Solvent              : TetraHydroFuran, Eps=   7.425700 Eps(inf)=   1.974025
 ------------------------------------------------------------------------------
 Spheres list:
 ISph  on   Nord     Re0    Alpha      Xe            Ye            Ze
    1   C      1    1.8500  1.000     -0.234674      0.747472      0.240349
    2   O      2    2.2940  1.000     -0.241849      1.180581      1.352687
    3   C      3    1.8500  1.000     -0.227777      1.597525     -1.021798
    4   H      4    1.2000  1.000     -0.098869      1.004008     -1.929210
    5   H      5    1.2000  1.000     -1.194361      2.112550     -1.042021
    6   H      6    1.2000  1.000      0.586000      2.320284     -0.917585
    7  Cl      7    2.3800  1.000     -1.847907     -1.134119     -0.086904
    8   C      8    1.8500  1.000      2.239115     -0.525780     -0.074602
    9   N      9    1.8900  1.000      3.342352     -0.930967     -0.045572
 ------------------------------------------------------------------------------
 GePol: Number of generator spheres                  =       9
 GePol: Total number of spheres                      =       9
 GePol: Number of exposed spheres                    =       9 (100.00%)
 GePol: Number of points                             =    1330
 GePol: Average weight of points                     =       0.13
 GePol: Minimum weight of points                     =   0.64D-07
 GePol: Maximum weight of points                     =    0.18138
 GePol: Number of points with low weight             =      42
 GePol: Fraction of low-weight points (<1% of avg)   =       3.16%
 GePol: Cavity surface area                          =    179.225 Ang**2
 GePol: Cavity volume                                =    157.697 Ang**3
 ------------------------------------------------------------------------------
 Atomic radii for non-electrostatic terms: SMD-CDS.
 ------------------------------------------------------------------------------
 PCM non-electrostatic energy =         0.0009556977 Hartrees.
 Nuclear repulsion after PCM non-electrostatic terms =      217.2724451013 Hartrees.
 Leave Link  301 at Wed Jan  8 01:21:25 2020, MaxMem=  4294967296 cpu:               3.3 elap:               0.3
 (Enter /home/cwagen/sw/g16/g16/l302.exe)
 NPDir=0 NMtPBC=     1 NCelOv=     1 NCel=       1 NClECP=     1 NCelD=      1
         NCelK=      1 NCelE2=     1 NClLst=     1 CellRange=     0.0.
 One-electron integrals computed using PRISM.
 One-electron integral symmetry used in STVInt
 NBasis=   124 RedAO= T EigKep=  1.62D-04  NBF=   124
 NBsUse=   124 1.00D-06 EigRej= -1.00D+00 NBFU=   124
 Precomputing XC quadrature grid using
 IXCGrd= 4 IRadAn=           5 IRanWt=          -1 IRanGd=           0 AccXCQ= 0.00D+00.
 Generated NRdTot=       0 NPtTot=           0 NUsed=           0 NTot=          32
 NSgBfM=   124   124   124   124   124 MxSgAt=     9 MxSgA2=     9.
 Leave Link  302 at Wed Jan  8 01:21:27 2020, MaxMem=  4294967296 cpu:              26.7 elap:               2.1
 (Enter /home/cwagen/sw/g16/g16/l303.exe)
 DipDrv:  MaxL=1.
 Leave Link  303 at Wed Jan  8 01:21:28 2020, MaxMem=  4294967296 cpu:               4.2 elap:               0.3
 (Enter /home/cwagen/sw/g16/g16/l401.exe)
 Initial guess from the checkpoint file:  "/scratch/users/cwagen/cwagen_scan_250_280/Gau-39179.chk"
 B after Tr=     0.000000    0.000000    0.000000
         Rot=    0.999964   -0.008232    0.001122   -0.001442 Ang=  -0.97 deg.
 Guess basis will be translated and rotated to current coordinates.
 JPrj=2 DoOrth=T DoCkMO=T.
 Generating alternative initial guess.
 ExpMin= 4.38D-02 ExpMax= 2.52D+04 ExpMxC= 3.78D+03 IAcc=2 IRadAn=         4 AccDes= 0.00D+00
 Harris functional with IExCor=  402 and IRadAn=       4 diagonalized for initial guess.
 HarFok:  IExCor=  402 AccDes= 0.00D+00 IRadAn=         4 IDoV= 1 UseB2=F ITyADJ=14
 ICtDFT=  3500011 ScaDFX=  1.000000  1.000000  1.000000  1.000000
 FoFCou: FMM=F IPFlag=           0 FMFlag=      100000 FMFlg1=           0
         NFxFlg=           0 DoJE=T BraDBF=F KetDBF=T FulRan=T
         wScrn=  0.000000 ICntrl=       500 IOpCl=  0 I1Cent=   200000004 NGrid=           0
         NMat0=    1 NMatS0=      1 NMatT0=    0 NMatD0=    1 NMtDS0=    0 NMtDT0=    0
 Petite list used in FoFCou.
 Harris En= -706.373052875203    
 Leave Link  401 at Wed Jan  8 01:21:31 2020, MaxMem=  4294967296 cpu:              38.7 elap:               2.7
 (Enter /home/cwagen/sw/g16/g16/l502.exe)
 Keep R1 ints in memory in canonical form, NReq=45236517.
 FoFCou: FMM=F IPFlag=           0 FMFlag=           0 FMFlg1=           0
         NFxFlg=           0 DoJE=F BraDBF=F KetDBF=F FulRan=T
         wScrn=  0.000000 ICntrl=       600 IOpCl=  0 I1Cent=           0 NGrid=           0
         NMat0=    1 NMatS0=   7750 NMatT0=    0 NMatD0=    1 NMtDS0=    0 NMtDT0=    0
 Symmetry not used in FoFCou.
 Two-electron integral symmetry not used.
 Closed shell SCF:
 Using DIIS extrapolation, IDIIS=  1040.
 NGot=  4294967296 LenX=  4264898079 LenY=  4264882262
 Requested convergence on RMS density matrix=1.00D-08 within 128 cycles.
 Requested convergence on MAX density matrix=1.00D-06.
 Requested convergence on             energy=1.00D-06.
 No special actions if energy rises.

 Cycle   1  Pass 1  IDiag  1:
 Inv3:  Mode=1 IEnd=     5306700.
 Iteration    1 A*A^-1 deviation from unit magnitude is 3.11D-15 for   1322.
 Iteration    1 A*A^-1 deviation from orthogonality  is 2.29D-15 for   1321   1178.
 Iteration    1 A^-1*A deviation from unit magnitude is 3.11D-15 for   1322.
 Iteration    1 A^-1*A deviation from orthogonality  is 2.05D-15 for   1327   1153.
 E= -706.365089763661    
 DIIS: error= 8.44D-03 at cycle   1 NSaved=   1.
 NSaved= 1 IEnMin= 1 EnMin= -706.365089763661     IErMin= 1 ErrMin= 8.44D-03
 ErrMax= 8.44D-03  0.00D+00 EMaxC= 1.00D-01 BMatC= 1.10D-02 BMatP= 1.10D-02
 IDIUse=3 WtCom= 9.16D-01 WtEn= 8.44D-02
 Coeff-Com:  0.100D+01
 Coeff-En:   0.100D+01
 Coeff:      0.100D+01
 Gap=     0.591 Goal=   None    Shift=    0.000
 GapD=    0.591 DampG=2.000 DampE=1.000 DampFc=2.0000 IDamp=-1.
 RMSDP=1.96D-03 MaxDP=4.70D-02              OVMax= 4.34D-02

 Cycle   2  Pass 1  IDiag  1:
 E= -706.381633652886     Delta-E=       -0.016543889225 Rises=F Damp=F
 DIIS: error= 2.57D-03 at cycle   2 NSaved=   2.
 NSaved= 2 IEnMin= 2 EnMin= -706.381633652886     IErMin= 2 ErrMin= 2.57D-03
 ErrMax= 2.57D-03  0.00D+00 EMaxC= 1.00D-01 BMatC= 9.81D-04 BMatP= 1.10D-02
 IDIUse=3 WtCom= 9.74D-01 WtEn= 2.57D-02
 Coeff-Com:  0.115D+00 0.885D+00
 Coeff-En:   0.000D+00 0.100D+01
 Coeff:      0.113D+00 0.887D+00
 Gap=     0.150 Goal=   None    Shift=    0.000
 RMSDP=5.71D-04 MaxDP=1.72D-02 DE=-1.65D-02 OVMax= 3.18D-02

 Cycle   3  Pass 1  IDiag  1:
 E= -706.380525130852     Delta-E=        0.001108522034 Rises=F Damp=F
 DIIS: error= 4.85D-03 at cycle   3 NSaved=   3.
 NSaved= 3 IEnMin= 2 EnMin= -706.381633652886     IErMin= 2 ErrMin= 2.57D-03
 ErrMax= 4.85D-03  0.00D+00 EMaxC= 1.00D-01 BMatC= 2.29D-03 BMatP= 9.81D-04
 IDIUse=3 WtCom= 1.26D-01 WtEn= 8.74D-01
 Coeff-Com: -0.860D-02 0.616D+00 0.393D+00
 Coeff-En:   0.000D+00 0.670D+00 0.330D+00
 Coeff:     -0.108D-02 0.663D+00 0.338D+00
 Gap=     0.145 Goal=   None    Shift=    0.000
 RMSDP=3.53D-04 MaxDP=1.19D-02 DE= 1.11D-03 OVMax= 1.98D-02

 Cycle   4  Pass 1  IDiag  1:
 E= -706.382451948825     Delta-E=       -0.001926817973 Rises=F Damp=F
 DIIS: error= 6.20D-04 at cycle   4 NSaved=   4.
 NSaved= 4 IEnMin= 4 EnMin= -706.382451948825     IErMin= 4 ErrMin= 6.20D-04
 ErrMax= 6.20D-04  0.00D+00 EMaxC= 1.00D-01 BMatC= 8.03D-05 BMatP= 9.81D-04
 IDIUse=3 WtCom= 9.94D-01 WtEn= 6.20D-03
 Coeff-Com: -0.218D-01 0.262D+00 0.192D+00 0.568D+00
 Coeff-En:   0.000D+00 0.000D+00 0.000D+00 0.100D+01
 Coeff:     -0.216D-01 0.260D+00 0.191D+00 0.571D+00
 Gap=     0.142 Goal=   None    Shift=    0.000
 RMSDP=1.16D-04 MaxDP=2.19D-03 DE=-1.93D-03 OVMax= 3.34D-03

 Cycle   5  Pass 1  IDiag  1:
 E= -706.382516494650     Delta-E=       -0.000064545825 Rises=F Damp=F
 DIIS: error= 1.72D-04 at cycle   5 NSaved=   5.
 NSaved= 5 IEnMin= 5 EnMin= -706.382516494650     IErMin= 5 ErrMin= 1.72D-04
 ErrMax= 1.72D-04  0.00D+00 EMaxC= 1.00D-01 BMatC= 1.22D-05 BMatP= 8.03D-05
 IDIUse=3 WtCom= 9.98D-01 WtEn= 1.72D-03
 Coeff-Com: -0.706D-02 0.816D-01 0.763D-01 0.307D+00 0.543D+00
 Coeff-En:   0.000D+00 0.000D+00 0.000D+00 0.105D+00 0.895D+00
 Coeff:     -0.704D-02 0.814D-01 0.762D-01 0.306D+00 0.543D+00
 Gap=     0.143 Goal=   None    Shift=    0.000
 RMSDP=5.44D-05 MaxDP=1.19D-03 DE=-6.45D-05 OVMax= 2.98D-03

 Cycle   6  Pass 1  IDiag  1:
 E= -706.382531029198     Delta-E=       -0.000014534548 Rises=F Damp=F
 DIIS: error= 1.06D-04 at cycle   6 NSaved=   6.
 NSaved= 6 IEnMin= 6 EnMin= -706.382531029198     IErMin= 6 ErrMin= 1.06D-04
 ErrMax= 1.06D-04  0.00D+00 EMaxC= 1.00D-01 BMatC= 1.94D-06 BMatP= 1.22D-05
 IDIUse=3 WtCom= 9.99D-01 WtEn= 1.06D-03
 Coeff-Com: -0.230D-02 0.166D-01 0.226D-01 0.116D+00 0.333D+00 0.514D+00
 Coeff-En:   0.000D+00 0.000D+00 0.000D+00 0.000D+00 0.930D-01 0.907D+00
 Coeff:     -0.229D-02 0.166D-01 0.225D-01 0.116D+00 0.333D+00 0.515D+00
 Gap=     0.143 Goal=   None    Shift=    0.000
 RMSDP=1.77D-05 MaxDP=6.81D-04 DE=-1.45D-05 OVMax= 9.16D-04

 Cycle   7  Pass 1  IDiag  1:
 E= -706.382533376597     Delta-E=       -0.000002347399 Rises=F Damp=F
 DIIS: error= 1.52D-05 at cycle   7 NSaved=   7.
 NSaved= 7 IEnMin= 7 EnMin= -706.382533376597     IErMin= 7 ErrMin= 1.52D-05
 ErrMax= 1.52D-05  0.00D+00 EMaxC= 1.00D-01 BMatC= 7.61D-08 BMatP= 1.94D-06
 IDIUse=1 WtCom= 1.00D+00 WtEn= 0.00D+00
 Coeff-Com: -0.190D-03-0.193D-02 0.123D-02 0.195D-01 0.106D+00 0.220D+00
 Coeff-Com:  0.655D+00
 Coeff:     -0.190D-03-0.193D-02 0.123D-02 0.195D-01 0.106D+00 0.220D+00
 Coeff:      0.655D+00
 Gap=     0.143 Goal=   None    Shift=    0.000
 RMSDP=4.82D-06 MaxDP=1.27D-04 DE=-2.35D-06 OVMax= 1.75D-04

 Cycle   8  Pass 1  IDiag  1:
 E= -706.382533460475     Delta-E=       -0.000000083878 Rises=F Damp=F
 DIIS: error= 6.92D-06 at cycle   8 NSaved=   8.
 NSaved= 8 IEnMin= 8 EnMin= -706.382533460475     IErMin= 8 ErrMin= 6.92D-06
 ErrMax= 6.92D-06  0.00D+00 EMaxC= 1.00D-01 BMatC= 1.08D-08 BMatP= 7.61D-08
 IDIUse=1 WtCom= 1.00D+00 WtEn= 0.00D+00
 Coeff-Com:  0.124D-03-0.241D-02-0.220D-02-0.298D-02 0.186D-01 0.378D-01
 Coeff-Com:  0.286D+00 0.665D+00
 Coeff:      0.124D-03-0.241D-02-0.220D-02-0.298D-02 0.186D-01 0.378D-01
 Coeff:      0.286D+00 0.665D+00
 Gap=     0.143 Goal=   None    Shift=    0.000
 RMSDP=1.83D-06 MaxDP=5.29D-05 DE=-8.39D-08 OVMax= 5.99D-05

 Cycle   9  Pass 1  IDiag  1:
 E= -706.382533474236     Delta-E=       -0.000000013761 Rises=F Damp=F
 DIIS: error= 2.41D-06 at cycle   9 NSaved=   9.
 NSaved= 9 IEnMin= 9 EnMin= -706.382533474236     IErMin= 9 ErrMin= 2.41D-06
 ErrMax= 2.41D-06  0.00D+00 EMaxC= 1.00D-01 BMatC= 1.01D-09 BMatP= 1.08D-08
 IDIUse=1 WtCom= 1.00D+00 WtEn= 0.00D+00
 Coeff-Com:  0.773D-04-0.102D-02-0.132D-02-0.274D-02 0.250D-02 0.965D-03
 Coeff-Com:  0.817D-01 0.290D+00 0.630D+00
 Coeff:      0.773D-04-0.102D-02-0.132D-02-0.274D-02 0.250D-02 0.965D-03
 Coeff:      0.817D-01 0.290D+00 0.630D+00
 Gap=     0.143 Goal=   None    Shift=    0.000
 RMSDP=3.81D-07 MaxDP=7.97D-06 DE=-1.38D-08 OVMax= 1.49D-05

 Cycle  10  Pass 1  IDiag  1:
 E= -706.382533474989     Delta-E=       -0.000000000753 Rises=F Damp=F
 DIIS: error= 2.01D-06 at cycle  10 NSaved=  10.
 NSaved=10 IEnMin=10 EnMin= -706.382533474989     IErMin=10 ErrMin= 2.01D-06
 ErrMax= 2.01D-06  0.00D+00 EMaxC= 1.00D-01 BMatC= 4.61D-10 BMatP= 1.01D-09
 IDIUse=1 WtCom= 1.00D+00 WtEn= 0.00D+00
 Coeff-Com:  0.319D-04-0.258D-03-0.580D-03-0.147D-02-0.153D-02-0.720D-02
 Coeff-Com:  0.458D-02 0.962D-01 0.475D+00 0.436D+00
 Coeff:      0.319D-04-0.258D-03-0.580D-03-0.147D-02-0.153D-02-0.720D-02
 Coeff:      0.458D-02 0.962D-01 0.475D+00 0.436D+00
 Gap=     0.143 Goal=   None    Shift=    0.000
 RMSDP=1.64D-07 MaxDP=4.82D-06 DE=-7.53D-10 OVMax= 7.65D-06

 Cycle  11  Pass 1  IDiag  1:
 E= -706.382533475407     Delta-E=       -0.000000000417 Rises=F Damp=F
 DIIS: error= 2.55D-07 at cycle  11 NSaved=  11.
 NSaved=11 IEnMin=11 EnMin= -706.382533475407     IErMin=11 ErrMin= 2.55D-07
 ErrMax= 2.55D-07  0.00D+00 EMaxC= 1.00D-01 BMatC= 9.69D-12 BMatP= 4.61D-10
 IDIUse=1 WtCom= 1.00D+00 WtEn= 0.00D+00
 Coeff-Com:  0.449D-05 0.724D-05-0.745D-04-0.281D-03-0.728D-03-0.249D-02
 Coeff-Com: -0.711D-02 0.744D-02 0.101D+00 0.178D+00 0.725D+00
 Coeff:      0.449D-05 0.724D-05-0.745D-04-0.281D-03-0.728D-03-0.249D-02
 Coeff:     -0.711D-02 0.744D-02 0.101D+00 0.178D+00 0.725D+00
 Gap=     0.143 Goal=   None    Shift=    0.000
 RMSDP=4.86D-08 MaxDP=1.19D-06 DE=-4.17D-10 OVMax= 1.46D-06

 Cycle  12  Pass 1  IDiag  1:
 E= -706.382533475416     Delta-E=       -0.000000000010 Rises=F Damp=F
 DIIS: error= 4.93D-08 at cycle  12 NSaved=  12.
 NSaved=12 IEnMin=12 EnMin= -706.382533475416     IErMin=12 ErrMin= 4.93D-08
 ErrMax= 4.93D-08  0.00D+00 EMaxC= 1.00D-01 BMatC= 5.13D-13 BMatP= 9.69D-12
 IDIUse=1 WtCom= 1.00D+00 WtEn= 0.00D+00
 Coeff-Com: -0.301D-06 0.141D-04 0.145D-04-0.117D-04-0.133D-03-0.220D-03
 Coeff-Com: -0.239D-02-0.207D-02-0.118D-02 0.301D-01 0.194D+00 0.782D+00
 Coeff:     -0.301D-06 0.141D-04 0.145D-04-0.117D-04-0.133D-03-0.220D-03
 Coeff:     -0.239D-02-0.207D-02-0.118D-02 0.301D-01 0.194D+00 0.782D+00
 Gap=     0.143 Goal=   None    Shift=    0.000
 RMSDP=1.19D-08 MaxDP=3.31D-07 DE=-9.66D-12 OVMax= 3.79D-07

 Cycle  13  Pass 1  IDiag  1:
 E= -706.382533475419     Delta-E=       -0.000000000002 Rises=F Damp=F
 DIIS: error= 1.58D-08 at cycle  13 NSaved=  13.
 NSaved=13 IEnMin=13 EnMin= -706.382533475419     IErMin=13 ErrMin= 1.58D-08
 ErrMax= 1.58D-08  0.00D+00 EMaxC= 1.00D-01 BMatC= 5.75D-14 BMatP= 5.13D-13
 IDIUse=1 WtCom= 1.00D+00 WtEn= 0.00D+00
 Coeff-Com: -0.453D-06 0.528D-05 0.115D-04 0.123D-04-0.906D-05 0.877D-04
 Coeff-Com: -0.540D-03-0.108D-02-0.791D-02 0.102D-02 0.333D-01 0.355D+00
 Coeff-Com:  0.620D+00
 Coeff:     -0.453D-06 0.528D-05 0.115D-04 0.123D-04-0.906D-05 0.877D-04
 Coeff:     -0.540D-03-0.108D-02-0.791D-02 0.102D-02 0.333D-01 0.355D+00
 Coeff:      0.620D+00
 Gap=     0.143 Goal=   None    Shift=    0.000
 RMSDP=3.25D-09 MaxDP=6.33D-08 DE=-2.39D-12 OVMax= 1.18D-07

 Error on total polarization charges =  0.02601
 SCF Done:  E(RB3LYP) =  -706.382533475     A.U. after   13 cycles
            NFock= 13  Conv=0.33D-08     -V/T= 2.0060
 KE= 7.021680005526D+02 PE=-2.111375747376D+03 EE= 4.855527682472D+02
 SMD-CDS (non-electrostatic) energy       (kcal/mol) =       0.60
 (included in total energy above)
 Leave Link  502 at Wed Jan  8 01:22:09 2020, MaxMem=  4294967296 cpu:             518.0 elap:              38.9
 (Enter /home/cwagen/sw/g16/g16/l701.exe)
 ... and contract with generalized density number  0.
 Compute integral first derivatives.
 D1PCM: PCM CHGder 1st derivatives, ID1Alg=3 FixD1E=F DoIter=F DoCFld=F I1PDM=0.
 GePol: Maximum number of non-zero 1st derivatives   =     392
 Leave Link  701 at Wed Jan  8 01:22:11 2020, MaxMem=  4294967296 cpu:              19.0 elap:               1.2
 (Enter /home/cwagen/sw/g16/g16/l702.exe)
 L702 exits ... SP integral derivatives will be done elsewhere.
 Leave Link  702 at Wed Jan  8 01:22:11 2020, MaxMem=  4294967296 cpu:               1.0 elap:               0.2
 (Enter /home/cwagen/sw/g16/g16/l703.exe)
 Integral derivatives from FoFJK, PRISM(SPDF).
 Compute integral first derivatives, UseDBF=F ICtDFT=           0.
 Calling FoFJK, ICntrl=      2127 FMM=F ISym2X=0 I1Cent= 0 IOpClX= 0 NMat=1 NMatS=1 NMatT=0.
 FoFJK:  IHMeth= 1 ICntrl=    2127 DoSepK=F KAlg= 0 I1Cent=           0 FoldK=F
 IRaf=         0 NMat=       1 IRICut=       1 DoRegI=T DoRafI=F ISym2E= 0 IDoP0=0 IntGTp=1.
 FoFCou: FMM=F IPFlag=           0 FMFlag=      100000 FMFlg1=         800
         NFxFlg=           0 DoJE=F BraDBF=F KetDBF=F FulRan=T
         wScrn=  0.000000 ICntrl=      2127 IOpCl=  0 I1Cent=           0 NGrid=           0
         NMat0=    1 NMatS0=      1 NMatT0=    0 NMatD0=    1 NMtDS0=    0 NMtDT0=    0
 Symmetry not used in FoFCou.
 Leave Link  703 at Wed Jan  8 01:22:12 2020, MaxMem=  4294967296 cpu:              24.3 elap:               1.5
 (Enter /home/cwagen/sw/g16/g16/l716.exe)
 Dipole        =-2.74866186D+00 3.43483093D+00-8.41457802D-01
 ***** Axes restored to original set *****
 -------------------------------------------------------------------
 Center     Atomic                   Forces (Hartrees/Bohr)
 Number     Number              X              Y              Z
 -------------------------------------------------------------------
      1        6          -0.021721534   -0.035275646   -0.051168263
      2        8           0.007712519    0.033061029    0.051355559
      3        6           0.005645498    0.021080530    0.011279644
      4        1          -0.000339912    0.000025173   -0.002222487
      5        1          -0.000696136    0.001843558   -0.001140610
      6        1           0.001143510    0.001229181   -0.001651953
      7       17           0.017024814   -0.019011233   -0.005364898
      8        6          -0.012925687   -0.004156181   -0.001491419
      9        7           0.004156930    0.001203588    0.000404428
 -------------------------------------------------------------------
 Cartesian Forces:  Max     0.051355559 RMS     0.018884729
 Leave Link  716 at Wed Jan  8 01:22:13 2020, MaxMem=  4294967296 cpu:               1.1 elap:               0.1
 (Enter /home/cwagen/sw/g16/g16/l103.exe)

 GradGradGradGradGradGradGradGradGradGradGradGradGradGradGradGradGradGrad
 Berny optimization.
 Using GEDIIS/GDIIS optimizer.
 FormGI is forming the generalized inverse of G from B-inverse, IUseBI=4.
 Internal  Forces:  Max     0.056430655 RMS     0.014544248
 Search for a local minimum.
 Step number   2 out of a maximum of   41
 All quantities printed in internal units (Hartrees-Bohrs-Radians)
 RMS Force = .14141D-01 SwitMx=.10000D-02 MixMth= 1
 Mixed Optimization -- RFO/linear search
 Update second derivatives using D2CorX and points    1    2
 DE= -3.74D-02 DEPred=-2.90D-02 R= 1.29D+00
 TightC=F SS=  1.41D+00  RLast= 3.21D-01 DXNew= 5.0454D-01 9.6354D-01
 Trust test= 1.29D+00 RLast= 3.21D-01 DXMaxT set to 5.05D-01
 ITU=  1  0
 Use linear search instead of GDIIS.
     Eigenvalues ---    0.00230   0.04746   0.04747   0.05516   0.05557
     Eigenvalues ---    0.06202   0.09716   0.15952   0.16000   0.16010
     Eigenvalues ---    0.18088   0.25000   0.25131   0.26931   0.33925
     Eigenvalues ---    0.33995   0.34279   0.64650   1.221201000.00000
     Eigenvalues --- 1000.000001000.000001000.000001000.000001000.00000
     Eigenvalues --- 1000.000001000.000001000.000001000.000001000.00000
     Eigenvalues --- 1000.00000
 RFO step:  Lambda=-2.58200799D-03 EMin= 2.29999876D-03
 Quartic linear search produced a step of  0.56667.
 Iteration  1 RMS(Cart)=  0.06786768 RMS(Int)=  0.00480460
 Iteration  2 RMS(Cart)=  0.00518389 RMS(Int)=  0.00162290
 Iteration  3 RMS(Cart)=  0.00002389 RMS(Int)=  0.00162279
 Iteration  4 RMS(Cart)=  0.00000011 RMS(Int)=  0.00162279
 Iteration  1 RMS(Cart)=  0.00000000 RMS(Int)=  0.00000000
 ITry= 1 IFail=0 DXMaxC= 1.63D-01 DCOld= 1.00D+10 DXMaxT= 5.05D-01 DXLimC= 3.00D+00 Rises=F
 Variable       Old X    -DE/DX   Delta X   Delta X   Delta X     New X
                                 (Linear)    (Quad)   (Total)
    R1        2.25578  -0.05643  -0.11135   0.01177  -0.09958   2.15620
    R2        2.87565  -0.01305  -0.03932  -0.00687  -0.04619   2.82946
    R3        4.72432  -0.02594   0.00000   0.00000   0.00000   4.72432
    R4        5.29123  -0.00926   0.00000   0.00000   0.00000   5.29123
    R5        2.06342  -0.00208  -0.00561  -0.00069  -0.00629   2.05713
    R6        2.07004   0.00003  -0.00263   0.00428   0.00165   2.07170
    R7        2.06618   0.00027  -0.00141   0.00344   0.00203   2.06821
    R8        2.22165   0.00434   0.00704  -0.00243   0.00461   2.22626
    A1        2.17758   0.04096   0.10252   0.08184   0.18206   2.35964
    A2        1.97271  -0.01359  -0.02628  -0.01819  -0.04862   1.92408
    A3        1.84951  -0.00974  -0.02430  -0.01779  -0.03999   1.80951
    A4        1.89103  -0.01302  -0.01879  -0.04204  -0.06521   1.82582
    A5        1.72816  -0.00956  -0.02481  -0.02605  -0.05050   1.67767
    A6        1.78559  -0.00216  -0.02788   0.01150  -0.02080   1.76479
    A7        1.96727  -0.00025  -0.00380   0.00657   0.00268   1.96995
    A8        1.84830  -0.00265  -0.01764   0.01422  -0.00361   1.84468
    A9        1.86877  -0.00278  -0.01849   0.01569  -0.00299   1.86577
   A10        1.92238   0.00138   0.01067  -0.01112  -0.00055   1.92184
   A11        1.92906   0.00164   0.01172  -0.00940   0.00224   1.93130
   A12        1.92592   0.00247   0.01721  -0.01487   0.00200   1.92792
   A13        3.09252   0.00024   0.00081   0.00326   0.00407   3.09659
   A14        2.86351   0.00037   0.00234  -0.00036   0.00198   2.86548
    D1        3.01934  -0.00283  -0.01460  -0.01164  -0.02733   2.99201
    D2       -1.16083  -0.00301  -0.01544  -0.01221  -0.02882  -1.18965
    D3        0.89438  -0.00282  -0.01404  -0.01468  -0.02974   0.86464
    D4       -0.87195   0.00622   0.03111  -0.00008   0.03026  -0.84169
    D5        1.23107   0.00604   0.03026  -0.00066   0.02877   1.25984
    D6       -2.99691   0.00622   0.03167  -0.00313   0.02785  -2.96906
    D7        0.98263  -0.00328  -0.01619  -0.00882  -0.02316   0.95947
    D8        3.08565  -0.00347  -0.01704  -0.00939  -0.02465   3.06100
    D9       -1.14233  -0.00328  -0.01563  -0.01187  -0.02557  -1.16789
         Item               Value     Threshold  Converged?
 Maximum Force            0.056431     0.000450     NO 
 RMS     Force            0.014141     0.000300     NO 
 Maximum Displacement     0.162849     0.001800     NO 
 RMS     Displacement     0.066851     0.001200     NO 
 Predicted change in Energy=-1.191138D-02
 Lowest energy point so far.  Saving SCF results.
 GradGradGradGradGradGradGradGradGradGradGradGradGradGradGradGradGradGrad

 Leave Link  103 at Wed Jan  8 01:22:14 2020, MaxMem=  4294967296 cpu:              16.5 elap:               1.1
 (Enter /home/cwagen/sw/g16/g16/l202.exe)
                          Input orientation:                          
 ---------------------------------------------------------------------
 Center     Atomic      Atomic             Coordinates (Angstroms)
 Number     Number       Type             X           Y           Z
 ---------------------------------------------------------------------
      1          6           0       -0.234518   -0.430233   -0.306938
      2          8           0       -0.231947   -0.492434   -1.446249
      3          6           0       -0.306598   -1.423538    0.811100
      4          1           0       -0.132910   -0.974788    1.787558
      5          1           0       -1.316199   -1.848393    0.765653
      6          1           0        0.442335   -2.193560    0.601371
      7         17           0       -1.660252    1.478020    0.451910
      8          6           0        2.323048    0.528302    0.309559
      9          7           0        3.459338    0.828991    0.389077
 ---------------------------------------------------------------------
                    Distance matrix (angstroms):
                    1          2          3          4          5
     1  C    0.000000
     2  O    1.141010   0.000000
     3  C    1.497284   2.442980   0.000000
     4  H    2.166513   3.271083   1.088584   0.000000
     5  H    2.081265   2.811892   1.096294   1.790990   0.000000
     6  H    2.095824   2.746131   1.094450   1.795370   1.799603
     7  Cl   2.500000   3.086382   3.221869   3.183237   3.358844
     8  C    2.800000   3.263857   3.313044   3.236586   4.370448
     9  N    3.964171   4.328992   4.408431   4.256009   5.487800
                    6          7          8          9
     6  H    0.000000
     7  Cl   4.233641   0.000000
     8  C    3.321260   4.097427   0.000000
     9  N    4.275884   5.160948   1.178088   0.000000
 Stoichiometry    C3H3ClNO(1-)
 Framework group  C1[X(C3H3ClNO)]
 Deg. of freedom    21
 Full point group                 C1      NOp   1
 RotChk:  IX=0 Diff= 3.29D-02
 Largest Abelian subgroup         C1      NOp   1
 Largest concise Abelian subgroup C1      NOp   1
                         Standard orientation:                         
 ---------------------------------------------------------------------
 Center     Atomic      Atomic             Coordinates (Angstroms)
 Number     Number       Type             X           Y           Z
 ---------------------------------------------------------------------
      1          6           0       -0.242247    0.797761    0.268757
      2          8           0       -0.237232    1.105907    1.367358
      3          6           0       -0.218848    1.526332   -1.039103
      4          1           0       -0.084609    0.862124   -1.891055
      5          1           0       -1.184924    2.039705   -1.109866
      6          1           0        0.597524    2.253176   -0.983851
      7         17           0       -1.836265   -1.094118   -0.091662
      8          6           0        2.217406   -0.497422   -0.066814
      9          7           0        3.321216   -0.908897   -0.053268
 ---------------------------------------------------------------------
 Rotational constants (GHZ):           2.9555212           1.3140661           1.1055324
 Leave Link  202 at Wed Jan  8 01:22:14 2020, MaxMem=  4294967296 cpu:               1.8 elap:               0.2
 (Enter /home/cwagen/sw/g16/g16/l301.exe)
 Standard basis: 6-31+G(d) (6D, 7F)
 Ernie: Thresh=  0.10000D-02 Tol=  0.10000D-05 Strict=F.
 There are   124 symmetry adapted cartesian basis functions of A   symmetry.
 There are   124 symmetry adapted basis functions of A   symmetry.
   124 basis functions,   228 primitive gaussians,   124 cartesian basis functions
    27 alpha electrons       27 beta electrons
       nuclear repulsion energy       220.2636638929 Hartrees.
 IExCor=  402 DFT=T Ex+Corr=B3LYP ExCW=0 ScaHFX=  0.200000
 ScaDFX=  0.800000  0.720000  1.000000  0.810000 ScalE2=  1.000000  1.000000
 IRadAn=      5 IRanWt=     -1 IRanGd=            0 ICorTp=0 IEmpDi=  4
 NAtoms=    9 NActive=    9 NUniq=    9 SFac= 1.00D+00 NAtFMM=   60 NAOKFM=F Big=F
 Integral buffers will be    131072 words long.
 Raffenetti 2 integral format.
 Two-electron integral symmetry is turned on.
 ------------------------------------------------------------------------------
 Polarizable Continuum Model (PCM)
 =================================
 Model                : PCM.
 Atomic radii         : SMD-Coulomb.
 Polarization charges : Total charges.
 Charge compensation  : None.
 Solution method      : On-the-fly selection.
 Cavity type          : VdW (van der Waals Surface) (Alpha=1.000).
 Cavity algorithm     : GePol (No added spheres)
                        Default sphere list used, NSphG=    9.
                        Lebedev-Laikov grids with approx.  5.0 points / Ang**2.
                        Smoothing algorithm: York/Karplus (Gamma=1.0000).
                        Polarization charges: spherical gaussians, with
                                              point-specific exponents (IZeta= 3).
                        Self-potential: point-specific (ISelfS= 7).
                        Self-field    : sphere-specific E.n sum rule (ISelfD= 2).
 1st derivatives      : Analytical E(r).r(x)/FMM algorithm (CHGder, D1EAlg=3).
                        Cavity 1st derivative terms included.
 Solvent              : TetraHydroFuran, Eps=   7.425700 Eps(inf)=   1.974025
 ------------------------------------------------------------------------------
 Spheres list:
 ISph  on   Nord     Re0    Alpha      Xe            Ye            Ze
    1   C      1    1.8500  1.000     -0.242247      0.797761      0.268757
    2   O      2    2.2940  1.000     -0.237232      1.105907      1.367358
    3   C      3    1.8500  1.000     -0.218848      1.526332     -1.039103
    4   H      4    1.2000  1.000     -0.084609      0.862124     -1.891055
    5   H      5    1.2000  1.000     -1.184924      2.039705     -1.109866
    6   H      6    1.2000  1.000      0.597524      2.253176     -0.983851
    7  Cl      7    2.3800  1.000     -1.836265     -1.094118     -0.091662
    8   C      8    1.8500  1.000      2.217406     -0.497422     -0.066814
    9   N      9    1.8900  1.000      3.321216     -0.908897     -0.053268
 ------------------------------------------------------------------------------
 GePol: Number of generator spheres                  =       9
 GePol: Total number of spheres                      =       9
 GePol: Number of exposed spheres                    =       9 (100.00%)
 GePol: Number of points                             =    1317
 GePol: Average weight of points                     =       0.13
 GePol: Minimum weight of points                     =   0.92D-06
 GePol: Maximum weight of points                     =    0.18138
 GePol: Number of points with low weight             =      35
 GePol: Fraction of low-weight points (<1% of avg)   =       2.66%
 GePol: Cavity surface area                          =    177.113 Ang**2
 GePol: Cavity volume                                =    156.588 Ang**3
 ------------------------------------------------------------------------------
 Atomic radii for non-electrostatic terms: SMD-CDS.
 ------------------------------------------------------------------------------
[...]
                                                     13   14   15
 DE= -1.02D-06 DEPred=-6.33D-08 R= 1.62D+01
 TightC=F SS=  1.41D+00  RLast= 3.81D-03 DXNew= 1.2694D+00 1.1422D-02
 Trust test= 1.62D+01 RLast= 3.81D-03 DXMaxT set to 7.55D-01
 ITU=  1  1  1  0  0  1  1  1  1  1  1  1  1  1  0
     Eigenvalues ---    0.00224   0.00514   0.01908   0.03444   0.04973
     Eigenvalues ---    0.05747   0.06329   0.09024   0.11931   0.16119
     Eigenvalues ---    0.16643   0.19788   0.24622   0.27821   0.34116
     Eigenvalues ---    0.34251   0.34413   1.16542   1.227731000.00000
     Eigenvalues --- 1000.000001000.000001000.000001000.000001000.00000
     Eigenvalues --- 1000.000001000.000001000.000001000.000001000.00000
     Eigenvalues --- 1000.00000
 En-DIIS/RFO-DIIS/Sim-DIIS IScMMF=       -3 using points:    15   14   13   12   11   10    9    8    7    6
 RFO step:  Lambda=-2.45051471D-07.
 NNeg= 0 NGDIIS=10 SimSw=  2.50D-01 Rises=F DC= -1.02D-06 SmlDif=  1.00D-05
 NRisDI= 0 DoIntr=F SqrtH=F CThrHd= 10.0 CDAdj=  3.0
 RMS Error=  0.2741571973D-03 NUsed=10 OKEnD=F EnDIS=F
 InvSVX:  RCond= 2.06D-12 Info=           0 Equed=N FErr=  1.42D-08 BErr=  9.26D-17
 DIIS inversion failure, remove point  10.
 InvSVX:  RCond= 2.30D-12 Info=           0 Equed=N FErr=  1.47D-08 BErr=  1.00D-16
 DIIS inversion failure, remove point   9.
 InvSVX:  RCond= 6.15D-12 Info=           0 Equed=N FErr=  5.23D-09 BErr=  1.14D-16
 DIIS inversion failure, remove point   8.
 InvSVX:  RCond= 1.46D-11 Info=           0 Equed=N FErr=  2.43D-09 BErr=  1.38D-16
 DIIS inversion failure, remove point   7.
 InvSVX:  RCond= 1.19D-10 Info=           0 Equed=N FErr=  2.39D-10 BErr=  4.42D-17
 DIIS inversion failure, remove point   6.
 InvSVX:  RCond= 8.50D-10 Info=           0 Equed=N FErr=  4.55D-11 BErr=  7.70D-17
 DIIS inversion failure, remove point   5.
 InvSVX:  RCond= 1.47D-08 Info=           0 Equed=N FErr=  4.02D-13 BErr=  7.22D-17
 DIIS inversion failure, remove point   4.
 InvSVX:  RCond= 5.02D-08 Info=           0 Equed=N FErr=  1.82D-13 BErr=  4.56D-17
 DIIS inversion failure, remove point   3.
 InvSVX:  RCond= 3.62D-06 Info=           0 Equed=N FErr=  1.64D-15 BErr=  1.11D-17
 RFO-DIIS uses    2 points instead of   10
 DidBck=F Rises=F RFO-DIIS coefs:    1.24508   -0.24508    0.00000    0.00000    0.00000
                  RFO-DIIS coefs:    0.00000    0.00000    0.00000    0.00000    0.00000
 Iteration  1 RMS(Cart)=  0.00027876 RMS(Int)=  0.00000005
 Iteration  2 RMS(Cart)=  0.00000005 RMS(Int)=  0.00000001
 Iteration  1 RMS(Cart)=  0.00000000 RMS(Int)=  0.00000000
 ITry= 1 IFail=0 DXMaxC= 6.82D-04 DCOld= 1.00D+10 DXMaxT= 7.55D-01 DXLimC= 3.00D+00 Rises=F
 Variable       Old X    -DE/DX   Delta X   Delta X   Delta X     New X
                                 (Linear)    (Quad)   (Total)
    R1        2.17265   0.00001   0.00000   0.00001   0.00001   2.17266
    R2        2.76729   0.00000   0.00002   0.00000   0.00002   2.76731
    R3        4.72432  -0.01498   0.00000   0.00000   0.00000   4.72432
    R4        5.29123  -0.00084   0.00000   0.00000   0.00000   5.29123
    R5        2.05441   0.00000   0.00000  -0.00001  -0.00001   2.05439
    R6        2.07360   0.00000   0.00000   0.00001   0.00001   2.07361
    R7        2.07178   0.00000  -0.00001   0.00000  -0.00001   2.07177
    R8        2.22800   0.00001   0.00000   0.00000   0.00000   2.22801
    A1        2.58589   0.00000  -0.00007   0.00002  -0.00005   2.58584
    A2        1.90215   0.00001   0.00001   0.00001   0.00002   1.90217
    A3        1.70859   0.00000   0.00010   0.00004   0.00015   1.70873
    A4        1.73886  -0.00001   0.00004  -0.00008  -0.00004   1.73882
    A5        1.56196   0.00000  -0.00012   0.00004  -0.00008   1.56189
    A6        1.77461   0.00001   0.00013   0.00006   0.00018   1.77480
    A7        1.93459   0.00002   0.00003   0.00007   0.00009   1.93468
    A8        1.86146  -0.00002  -0.00003  -0.00009  -0.00012   1.86134
    A9        1.87031   0.00000  -0.00001  -0.00001  -0.00002   1.87030
   A10        1.92050   0.00000   0.00000   0.00001   0.00002   1.92051
   A11        1.94041  -0.00001  -0.00001  -0.00004  -0.00006   1.94035
   A12        1.93454   0.00001   0.00002   0.00006   0.00008   1.93461
   A13        3.07571   0.00000  -0.00052   0.00086   0.00033   3.07605
   A14        2.89968   0.00000  -0.00031   0.00023  -0.00008   2.89960
    D1        2.73601   0.00000   0.00023   0.00037   0.00061   2.73661
    D2       -1.45676   0.00000   0.00024   0.00037   0.00061  -1.45615
    D3        0.61586   0.00000   0.00024   0.00039   0.00063   0.61649
    D4       -0.85954  -0.00001   0.00015   0.00014   0.00030  -0.85924
    D5        1.23087  -0.00001   0.00016   0.00015   0.00030   1.23117
    D6       -2.97969   0.00000   0.00016   0.00016   0.00032  -2.97937
    D7        0.91650   0.00000   0.00026   0.00021   0.00047   0.91698
    D8        3.00692   0.00000   0.00026   0.00021   0.00047   3.00739
    D9       -1.20365   0.00001   0.00027   0.00023   0.00050  -1.20315
         Item               Value     Threshold  Converged?
 Maximum Force            0.000020     0.000450     YES
 RMS     Force            0.000008     0.000300     YES
 Maximum Displacement     0.000682     0.001800     YES
 RMS     Displacement     0.000279     0.001200     YES
 Predicted change in Energy=-9.953361D-09
 Optimization completed.
    -- Stationary point found.
                           ----------------------------
                           !   Optimized Parameters   !
                           ! (Angstroms and Degrees)  !
 --------------------------                            --------------------------
 ! Name  Definition              Value          Derivative Info.                !
 --------------------------------------------------------------------------------
 ! R1    R(1,2)                  1.1497         -DE/DX =    0.0                 !
 ! R2    R(1,3)                  1.4644         -DE/DX =    0.0                 !
 ! R3    R(1,7)                  2.5            -DE/DX =   -0.015               !
 ! R4    R(1,8)                  2.8            -DE/DX =   -0.0008              !
 ! R5    R(3,4)                  1.0871         -DE/DX =    0.0                 !
 ! R6    R(3,5)                  1.0973         -DE/DX =    0.0                 !
 ! R7    R(3,6)                  1.0963         -DE/DX =    0.0                 !
 ! R8    R(8,9)                  1.179          -DE/DX =    0.0                 !
 ! A1    A(2,1,3)              148.1606         -DE/DX =    0.0                 !
 ! A2    A(2,1,7)              108.9852         -DE/DX =    0.0                 !
 ! A3    A(2,1,8)               97.8948         -DE/DX =    0.0                 !
 ! A4    A(3,1,7)               99.6295         -DE/DX =    0.0                 !
 ! A5    A(3,1,8)               89.4939         -DE/DX =    0.0                 !
 ! A6    A(7,1,8)              101.6779         -DE/DX =    0.0                 !
 ! A7    A(1,3,4)              110.8436         -DE/DX =    0.0                 !
 ! A8    A(1,3,5)              106.6537         -DE/DX =    0.0                 !
 ! A9    A(1,3,6)              107.1611         -DE/DX =    0.0                 !
 ! A10   A(4,3,5)              110.0363         -DE/DX =    0.0                 !
 ! A11   A(4,3,6)              111.1771         -DE/DX =    0.0                 !
 ! A12   A(5,3,6)              110.8407         -DE/DX =    0.0                 !
 ! A13   L(1,8,9,6,-1)         176.2254         -DE/DX =    0.0                 !
 ! A14   L(1,8,9,6,-2)         166.1393         -DE/DX =    0.0                 !
 ! D1    D(2,1,3,4)            156.7617         -DE/DX =    0.0                 !
 ! D2    D(2,1,3,5)            -83.4663         -DE/DX =    0.0                 !
 ! D3    D(2,1,3,6)             35.2861         -DE/DX =    0.0                 !
 ! D4    D(7,1,3,4)            -49.2482         -DE/DX =    0.0                 !
 ! D5    D(7,1,3,5)             70.5237         -DE/DX =    0.0                 !
 ! D6    D(7,1,3,6)           -170.7238         -DE/DX =    0.0                 !
 ! D7    D(8,1,3,4)             52.5118         -DE/DX =    0.0                 !
 ! D8    D(8,1,3,5)            172.2837         -DE/DX =    0.0                 !
 ! D9    D(8,1,3,6)            -68.9638         -DE/DX =    0.0                 !
 --------------------------------------------------------------------------------
 Lowest energy point so far.  Saving SCF results.
 Largest change from initial coordinates is atom    4       0.101 Angstoms.
 GradGradGradGradGradGradGradGradGradGradGradGradGradGradGradGradGradGrad

 Leave Link  103 at Wed Jan  8 01:30:47 2020, MaxMem=  4294967296 cpu:              37.8 elap:               2.7
 (Enter /home/cwagen/sw/g16/g16/l202.exe)
                          Input orientation:                          
 ---------------------------------------------------------------------
 Center     Atomic      Atomic             Coordinates (Angstroms)
 Number     Number       Type             X           Y           Z
 ---------------------------------------------------------------------
      1          6           0       -0.285884   -0.490685   -0.375188
      2          8           0       -0.188616   -0.379982   -1.515424
      3          6           0       -0.270392   -1.370850    0.795067
      4          1           0       -0.037436   -0.810794    1.697259
      5          1           0       -1.273665   -1.808440    0.872742
      6          1           0        0.480207   -2.147253    0.605977
      7         17           0       -1.746954    1.340374    0.498023
      8          6           0        2.262649    0.437499    0.320122
      9          7           0        3.402388    0.702496    0.464464
 ---------------------------------------------------------------------
                    Distance matrix (angstroms):
                    1          2          3          4          5
     1  C    0.000000
     2  O    1.149719   0.000000
     3  C    1.464386   2.515328   0.000000
     4  H    2.111690   3.244964   1.087145   0.000000
     5  H    2.066282   2.986832   1.097304   1.789801   0.000000
     6  H    2.072148   2.840935   1.096337   1.801381   1.806108
     7  Cl   2.500000   3.072786   3.101485   2.998023   3.206158
     8  C    2.800000   3.169574   3.148332   2.957217   4.225535
     9  N    3.966364   4.241110   4.230529   3.955024   5.323247
                    6          7          8          9
     6  H    0.000000
     7  Cl   4.139498   0.000000
     8  C    3.152737   4.113848   0.000000
     9  N    4.084144   5.188808   1.179009   0.000000
 Stoichiometry    C3H3ClNO(1-)
 Framework group  C1[X(C3H3ClNO)]
 Deg. of freedom    21
 Full point group                 C1      NOp   1
 RotChk:  IX=0 Diff= 8.75D-16
 Largest Abelian subgroup         C1      NOp   1
 Largest concise Abelian subgroup C1      NOp   1
                         Standard orientation:                         
 ---------------------------------------------------------------------
 Center     Atomic      Atomic             Coordinates (Angstroms)
 Number     Number       Type             X           Y           Z
 ---------------------------------------------------------------------
      1          6           0       -0.244511    0.859616    0.253868
      2          8           0       -0.161998    1.102808    1.374539
      3          6           0       -0.129482    1.321283   -1.131072
      4          1           0        0.041328    0.485189   -1.804611
      5          1           0       -1.077842    1.815089   -1.377742
      6          1           0        0.702366    2.034547   -1.166258
      7         17           0       -1.898411   -0.989064   -0.057575
      8          6           0        2.186348   -0.501850   -0.024225
      9          7           0        3.289854   -0.916784   -0.037193
 ---------------------------------------------------------------------
 Rotational constants (GHZ):           3.1867062           1.2952901           1.1373944
 Leave Link  202 at Wed Jan  8 01:30:47 2020, MaxMem=  4294967296 cpu:               2.5 elap:               0.2
 (Enter /home/cwagen/sw/g16/g16/l601.exe)
 Copying SCF densities to generalized density rwf, IOpCl= 0 IROHF=0.

 **********************************************************************

            Population analysis using the SCF density.

 **********************************************************************

 Orbital symmetries:
       Occupied  (A) (A) (A) (A) (A) (A) (A) (A) (A) (A) (A) (A)
                 (A) (A) (A) (A) (A) (A) (A) (A) (A) (A) (A) (A)
                 (A) (A) (A)
       Virtual   (A) (A) (A) (A) (A) (A) (A) (A) (A) (A) (A) (A)
                 (A) (A) (A) (A) (A) (A) (A) (A) (A) (A) (A) (A)
                 (A) (A) (A) (A) (A) (A) (A) (A) (A) (A) (A) (A)
                 (A) (A) (A) (A) (A) (A) (A) (A) (A) (A) (A) (A)
                 (A) (A) (A) (A) (A) (A) (A) (A) (A) (A) (A) (A)
                 (A) (A) (A) (A) (A) (A) (A) (A) (A) (A) (A) (A)
                 (A) (A) (A) (A) (A) (A) (A) (A) (A) (A) (A) (A)
                 (A) (A) (A) (A) (A) (A) (A) (A) (A) (A) (A) (A)
                 (A)
 The electronic state is 1-A.
 Alpha  occ. eigenvalues -- -101.46047 -19.25203 -14.26656 -10.37601 -10.22503
 Alpha  occ. eigenvalues --  -10.13257  -9.37406  -7.13434  -7.13060  -7.13042
 Alpha  occ. eigenvalues --   -1.15732  -0.82268  -0.79302  -0.71244  -0.56900
 Alpha  occ. eigenvalues --   -0.50003  -0.49427  -0.48947  -0.41756  -0.41481
 Alpha  occ. eigenvalues --   -0.35761  -0.27231  -0.27201  -0.26185  -0.25079
 Alpha  occ. eigenvalues --   -0.24820  -0.24015
 Alpha virt. eigenvalues --   -0.06402  -0.03748   0.02512   0.04724   0.05109
 Alpha virt. eigenvalues --    0.05304   0.07704   0.07976   0.08731   0.09626
 Alpha virt. eigenvalues --    0.09915   0.11148   0.11369   0.12616   0.13254
 Alpha virt. eigenvalues --    0.13676   0.14049   0.16265   0.17158   0.19117
 Alpha virt. eigenvalues --    0.21518   0.22333   0.24319   0.24739   0.25719
 Alpha virt. eigenvalues --    0.26105   0.27554   0.28058   0.31646   0.33056
 Alpha virt. eigenvalues --    0.36088   0.39728   0.48551   0.52216   0.62634
 Alpha virt. eigenvalues --    0.63431   0.65286   0.67507   0.68949   0.70388
 Alpha virt. eigenvalues --    0.72678   0.75260   0.76692   0.79249   0.79508
 Alpha virt. eigenvalues --    0.82865   0.86806   0.93779   0.95321   0.95697
 Alpha virt. eigenvalues --    0.96362   0.97184   0.99565   1.00534   1.02656
 Alpha virt. eigenvalues --    1.03310   1.06095   1.14546   1.19292   1.20842
 Alpha virt. eigenvalues --    1.24252   1.26408   1.27758   1.37618   1.40480
 Alpha virt. eigenvalues --    1.47234   1.51381   1.55452   1.60900   1.61013
 Alpha virt. eigenvalues --    1.61812   1.63345   1.66256   1.79536   1.81213
 Alpha virt. eigenvalues --    1.82025   1.99209   2.02882   2.02995   2.07056
 Alpha virt. eigenvalues --    2.23169   2.24659   2.34356   2.51183   2.63739
 Alpha virt. eigenvalues --    2.66178   2.66392   2.69745   2.93086   3.08275
 Alpha virt. eigenvalues --    3.19199   4.01109   4.18225   4.28123   4.30125
 Alpha virt. eigenvalues --    4.39229   4.50016
          Condensed to atoms (all electrons):
               1          2          3          4          5          6
     1  C    5.249233   0.487977  -0.240493  -0.063773  -0.020562  -0.070592
     2  O    0.487977   7.780422  -0.013756   0.005134  -0.002726   0.000771
     3  C   -0.240493  -0.013756   5.957559   0.401831   0.341232   0.388821
     4  H   -0.063773   0.005134   0.401831   0.384778  -0.018772  -0.018001
     5  H   -0.020562  -0.002726   0.341232  -0.018772   0.419722  -0.020641
     6  H   -0.070592   0.000771   0.388821  -0.018001  -0.020641   0.425730
     7  Cl  -0.030655  -0.037447   0.039960  -0.002025  -0.007414   0.006888
     8  C    0.275936  -0.072445  -0.245303  -0.010206   0.010131  -0.008283
     9  N   -0.012963   0.000976   0.004684  -0.000078  -0.000053  -0.000304
               7          8          9
     1  C   -0.030655   0.275936  -0.012963
     2  O   -0.037447  -0.072445   0.000976
     3  C    0.039960  -0.245303   0.004684
     4  H   -0.002025  -0.010206  -0.000078
     5  H   -0.007414   0.010131  -0.000053
     6  H    0.006888  -0.008283  -0.000304
     7  Cl  17.717008  -0.057429  -0.000906
     8  C   -0.057429   5.735760   0.646479
     9  N   -0.000906   0.646479   7.017801
 Mulliken charges:
               1
     1  C    0.425893
     2  O   -0.148907
     3  C   -0.634535
     4  H    0.321112
     5  H    0.299083
     6  H    0.295610
     7  Cl  -0.627980
     8  C   -0.274640
     9  N   -0.655636
 Sum of Mulliken charges =  -1.00000
 Mulliken charges with hydrogens summed into heavy atoms:
               1
     1  C    0.425893
     2  O   -0.148907
     3  C    0.281270
     7  Cl  -0.627980
     8  C   -0.274640
     9  N   -0.655636
 Electronic spatial extent (au):  <R**2>=           1047.4466
 Charge=             -1.0000 electrons
 Dipole moment (field-independent basis, Debye):
    X=             -6.5433    Y=              9.3669    Z=             -2.4996  Tot=             11.6963
 Quadrupole moment (field-independent basis, Debye-Ang):
   XX=            -95.1866   YY=            -47.9899   ZZ=            -45.0364
   XY=              3.7819   XZ=              0.5367   YZ=             -3.9878
 Traceless Quadrupole moment (field-independent basis, Debye-Ang):
   XX=            -32.4489   YY=             14.7477   ZZ=             17.7012
   XY=              3.7819   XZ=              0.5367   YZ=             -3.9878
 Octapole moment (field-independent basis, Debye-Ang**2):
  XXX=           -123.6613  YYY=             30.6040  ZZZ=             -3.1135  XYY=            -12.1758
  XXY=             53.3821  XXZ=              2.4177  XZZ=             -6.6635  YZZ=              7.3580
  YYZ=             -4.3447  XYZ=              0.4671
 Hexadecapole moment (field-independent basis, Debye-Ang**3):
 XXXX=          -1535.5567 YYYY=           -328.6807 ZZZZ=           -180.4974 XXXY=            110.7012
 XXXZ=              5.3376 YYYX=             17.4951 YYYZ=             -7.1064 ZZZX=              0.8804
 ZZZY=             -3.3689 XXYY=           -270.5172 XXZZ=           -208.7526 YYZZ=            -84.1552
 XXYZ=             -3.4530 YYXZ=              1.2025 ZZXY=              2.4814
 N-N= 2.221649876969D+02 E-N=-2.121305737957D+03  KE= 7.024112534405D+02
 No NMR shielding tensors so no spin-rotation constants.
 Leave Link  601 at Wed Jan  8 01:30:48 2020, MaxMem=  4294967296 cpu:              11.3 elap:               0.9
 (Enter /home/cwagen/sw/g16/g16/l9999.exe)
 1\1\GINC-NODE025\FOpt\RB3LYP\6-31+G(d)\C3H3Cl1N1O1(1-)\CWAGEN\08-Jan-2
 020\0\\#p opt=modredundant b3lyp/6-31+g(d) scrf=(smd, solvent=tetrahyd
 rofuran)\\title\\-1,1\C,-0.28588414,-0.4906847978,-0.3751879936\O,-0.1
 886155176,-0.3799817347,-1.5154241089\C,-0.2703921696,-1.3708501693,0.
 795066533\H,-0.0374361482,-0.810793931,1.6972593205\H,-1.2736654429,-1
 .8084400244,0.8727420561\H,0.4802071304,-2.1472528104,0.6059766814\Cl,
 -1.7469536914,1.3403743652,0.4980233939\C,2.2626487464,0.4374987434,0.
 3201216058\N,3.4023875329,0.702496059,0.4644638618\\Version=AS64L-G16R
 evA.03\State=1-A\HF=-706.3985608\RMSD=3.875e-09\RMSF=4.060e-03\Dipole=
 -2.9808143,-3.4983481,-0.2270995\Quadrupole=-24.2242558,13.0513557,11.
 1729001,1.6132236,-1.6482481,-2.8740268\PG=C01 [X(C3H3Cl1N1O1)]\\@


 HAPPINESS IS NOT HAVING WHAT YOU WANT --
 HAPPINESS IS WANTING WHAT YOU HAVE!

              -- FROM MRS. SEVERN'S DESK
 Job cpu time:       0 days  2 hours 18 minutes 17.3 seconds.
 Elapsed time:       0 days  0 hours 10 minutes 15.2 seconds.
 File lengths (MBytes):  RWF=     42 Int=      0 D2E=      0 Chk=      3 Scr=      1
 Normal termination of Gaussian 16 at Wed Jan  8 01:30:48 2020.
