 Entering Gaussian System, Link 0=g16
 Input=scan_240_140.gjf
 Output=scan_240_140.out
 Initial command:
 /home/cwagen/sw/g16/g16/l1.exe "/scratch/users/cwagen/cwagen_scan_240_140/Gau-28562.inp" -scrdir="/scratch/users/cwagen/cwagen_scan_240_140/"
 Entering Link 1 = /home/cwagen/sw/g16/g16/l1.exe PID=     28563.
  
 Copyright (c) 1988,1990,1992,1993,1995,1998,2003,2009,2016,
            Gaussian, Inc.  All Rights Reserved.
  
 This is part of the Gaussian(R) 16 program.  It is based on
 the Gaussian(R) 09 system (copyright 2009, Gaussian, Inc.),
 the Gaussian(R) 03 system (copyright 2003, Gaussian, Inc.),
 the Gaussian(R) 98 system (copyright 1998, Gaussian, Inc.),
 the Gaussian(R) 94 system (copyright 1995, Gaussian, Inc.),
 the Gaussian 92(TM) system (copyright 1992, Gaussian, Inc.),
 the Gaussian 90(TM) system (copyright 1990, Gaussian, Inc.),
 the Gaussian 88(TM) system (copyright 1988, Gaussian, Inc.),
 the Gaussian 86(TM) system (copyright 1986, Carnegie Mellon
 University), and the Gaussian 82(TM) system (copyright 1983,
 Carnegie Mellon University). Gaussian is a federally registered
 trademark of Gaussian, Inc.
  
 This software contains proprietary and confidential information,
 including trade secrets, belonging to Gaussian, Inc.
  
 This software is provided under written license and may be
 used, copied, transmitted, or stored only in accord with that
 written license.
  
 The following legend is applicable only to US Government
 contracts under FAR:
  
                    RESTRICTED RIGHTS LEGEND
  
 Use, reproduction and disclosure by the US Government is
 subject to restrictions as set forth in subparagraphs (a)
 and (c) of the Commercial Computer Software - Restricted
 Rights clause in FAR 52.227-19.
  
 Gaussian, Inc.
 340 Quinnipiac St., Bldg. 40, Wallingford CT 06492
  
  
 ---------------------------------------------------------------
 Warning -- This program may not be used in any manner that
 competes with the business of Gaussian, Inc. or will provide
 assistance to any competitor of Gaussian, Inc.  The licensee
 of this program is prohibited from giving any competitor of
 Gaussian, Inc. access to this program.  By using this program,
 the user acknowledges that Gaussian, Inc. is engaged in the
 business of creating and licensing software in the field of
 computational chemistry and represents and warrants to the
 licensee that it is not a competitor of Gaussian, Inc. and that
 it will not use this program in any manner prohibited above.
 ---------------------------------------------------------------
  

 Cite this work as:
 Gaussian 16, Revision A.03,
 M. J. Frisch, G. W. Trucks, H. B. Schlegel, G. E. Scuseria, 
 M. A. Robb, J. R. Cheeseman, G. Scalmani, V. Barone, 
 G. A. Petersson, H. Nakatsuji, X. Li, M. Caricato, A. V. Marenich, 
 J. Bloino, B. G. Janesko, R. Gomperts, B. Mennucci, H. P. Hratchian, 
 J. V. Ortiz, A. F. Izmaylov, J. L. Sonnenberg, D. Williams-Young, 
 F. Ding, F. Lipparini, F. Egidi, J. Goings, B. Peng, A. Petrone, 
 T. Henderson, D. Ranasinghe, V. G. Zakrzewski, J. Gao, N. Rega, 
 G. Zheng, W. Liang, M. Hada, M. Ehara, K. Toyota, R. Fukuda, 
 J. Hasegawa, M. Ishida, T. Nakajima, Y. Honda, O. Kitao, H. Nakai, 
 T. Vreven, K. Throssell, J. A. Montgomery, Jr., J. E. Peralta, 
 F. Ogliaro, M. J. Bearpark, J. J. Heyd, E. N. Brothers, K. N. Kudin, 
 V. N. Staroverov, T. A. Keith, R. Kobayashi, J. Normand, 
 K. Raghavachari, A. P. Rendell, J. C. Burant, S. S. Iyengar, 
 J. Tomasi, M. Cossi, J. M. Millam, M. Klene, C. Adamo, R. Cammi, 
 J. W. Ochterski, R. L. Martin, K. Morokuma, O. Farkas, 
 J. B. Foresman, and D. J. Fox, Gaussian, Inc., Wallingford CT, 2016.
 
 ******************************************
 Gaussian 16:  AS64L-G16RevA.03 25-Dec-2016
                 8-Jan-2020 
 ******************************************
 %nprocshared=16
 Will use up to   16 processors via shared memory.
 %mem=32GB
 ----------------------------------------------------------------------
 #p opt=modredundant b3lyp/6-31+g(d) scrf=(smd, solvent=tetrahydrofuran
 )
 ----------------------------------------------------------------------
 1/18=120,19=15,26=3,38=1/1,3;
 2/9=110,12=2,17=6,18=5,40=1/2;
 3/5=1,6=6,7=11,11=2,25=1,30=1,70=32201,71=1,72=20,74=-5/1,2,3;
 4//1;
 5/5=2,38=5,53=20/2;
 6/7=2,8=2,9=2,10=2,28=1/1;
 7//1,2,3,16;
 1/18=20,19=15,26=3/3(2);
 2/9=110/2;
 99//99;
 2/9=110/2;
 3/5=1,6=6,7=11,11=2,25=1,30=1,70=32205,71=1,72=20,74=-5/1,2,3;
 4/5=5,16=3,69=1/1;
 5/5=2,38=5,53=20/2;
 7//1,2,3,16;
 1/18=20,19=15,26=3/3(-5);
 2/9=110/2;
 6/7=2,8=2,9=2,10=2,19=2,28=1/1;
 99/9=1/99;
 Leave Link    1 at Wed Jan  8 01:00:39 2020, MaxMem=  4294967296 cpu:               3.5 elap:               0.9
 (Enter /home/cwagen/sw/g16/g16/l101.exe)
 -----
 title
 -----
 Symbolic Z-matrix:
 Charge = -1 Multiplicity = 1
 6                    -0.19426  -0.292    -0.21291 
 8                    -0.25532  -0.66526  -1.45426 
 6                    -0.33095  -1.45422   0.81632 
 1                    -0.18039  -1.13044   1.85373 
 1                    -1.34067  -1.87301   0.71427 
 1                     0.39707  -2.23395   0.57058 
 17                   -1.63124   1.53092   0.39705 
 6                     1.10371   0.16252   0.04918 
 7                     2.23828   0.44281   0.07948 
 
 Add virtual bond connecting atoms Cl7        and C1         Dist= 4.54D+00.
 The following ModRedundant input section has been read:
 B       1       7 F                                                           
 B       1       8 F                                                           
 
 ITRead=  0  0  0  0  0  0  0  0  0
 MicOpt= -1 -1 -1 -1 -1 -1 -1 -1 -1
 NAtoms=      9 NQM=        9 NQMF=       0 NMMI=      0 NMMIF=      0
                NMic=       0 NMicF=      0.
                    Isotopes and Nuclear Properties:
 (Nuclear quadrupole moments (NQMom) in fm**2, nuclear magnetic moments (NMagM)
  in nuclear magnetons)

  Atom         1           2           3           4           5           6           7           8           9
 IAtWgt=          12          16          12           1           1           1          35          12          14
 AtmWgt=  12.0000000  15.9949146  12.0000000   1.0078250   1.0078250   1.0078250  34.9688527  12.0000000  14.0030740
 NucSpn=           0           0           0           1           1           1           3           0           2
 AtZEff=   0.0000000   0.0000000   0.0000000   0.0000000   0.0000000   0.0000000   0.0000000   0.0000000   0.0000000
 NQMom=    0.0000000   0.0000000   0.0000000   0.0000000   0.0000000   0.0000000  -8.1650000   0.0000000   2.0440000
 NMagM=    0.0000000   0.0000000   0.0000000   2.7928460   2.7928460   2.7928460   0.8218740   0.0000000   0.4037610
 AtZNuc=   6.0000000   8.0000000   6.0000000   1.0000000   1.0000000   1.0000000  17.0000000   6.0000000   7.0000000
 Leave Link  101 at Wed Jan  8 01:00:41 2020, MaxMem=  4294967296 cpu:              10.3 elap:               2.6
 (Enter /home/cwagen/sw/g16/g16/l103.exe)

 GradGradGradGradGradGradGradGradGradGradGradGradGradGradGradGradGradGrad
 Berny optimization.
 Initialization pass.
                           ----------------------------
                           !    Initial Parameters    !
                           ! (Angstroms and Degrees)  !
 --------------------------                            --------------------------
 ! Name  Definition              Value          Derivative Info.                !
 --------------------------------------------------------------------------------
 ! R1    R(1,2)                  1.2977         estimate D2E/DX2                !
 ! R2    R(1,3)                  1.5584         estimate D2E/DX2                !
 ! R3    R(1,7)                  2.4            Frozen                          !
 ! R4    R(1,8)                  1.4            Frozen                          !
 ! R5    R(3,4)                  1.0971         estimate D2E/DX2                !
 ! R6    R(3,5)                  1.0979         estimate D2E/DX2                !
 ! R7    R(3,6)                  1.0947         estimate D2E/DX2                !
 ! R8    R(8,9)                  1.1691         estimate D2E/DX2                !
 ! A1    A(2,1,3)              114.4006         estimate D2E/DX2                !
 ! A2    A(2,1,7)              115.6846         estimate D2E/DX2                !
 ! A3    A(2,1,8)              108.426          estimate D2E/DX2                !
 ! A4    A(3,1,7)              110.248          estimate D2E/DX2                !
 ! A5    A(3,1,8)              101.5248         estimate D2E/DX2                !
 ! A6    A(7,1,8)              105.1256         estimate D2E/DX2                !
 ! A7    A(1,3,4)              113.1005         estimate D2E/DX2                !
 ! A8    A(1,3,5)              107.683          estimate D2E/DX2                !
 ! A9    A(1,3,6)              108.9421         estimate D2E/DX2                !
 ! A10   A(4,3,5)              109.0662         estimate D2E/DX2                !
 ! A11   A(4,3,6)              109.3417         estimate D2E/DX2                !
 ! A12   A(5,3,6)              108.6067         estimate D2E/DX2                !
 ! A13   L(1,8,9,6,-1)         177.6911         estimate D2E/DX2                !
 ! A14   L(1,8,9,6,-2)         167.8199         estimate D2E/DX2                !
 ! D1    D(2,1,3,4)            174.4714         estimate D2E/DX2                !
 ! D2    D(2,1,3,5)            -64.9488         estimate D2E/DX2                !
 ! D3    D(2,1,3,6)             52.6633         estimate D2E/DX2                !
 ! D4    D(7,1,3,4)            -53.1046         estimate D2E/DX2                !
 ! D5    D(7,1,3,5)             67.4752         estimate D2E/DX2                !
 ! D6    D(7,1,3,6)           -174.9127         estimate D2E/DX2                !
 ! D7    D(8,1,3,4)             57.938          estimate D2E/DX2                !
 ! D8    D(8,1,3,5)            178.5177         estimate D2E/DX2                !
 ! D9    D(8,1,3,6)            -63.8702         estimate D2E/DX2                !
 --------------------------------------------------------------------------------
 Trust Radius=3.00D-01 FncErr=1.00D-07 GrdErr=1.00D-06 EigMax=2.50D+02 EigMin=1.00D-04
 Number of steps in this run=     41 maximum allowed number of steps=    100.
 GradGradGradGradGradGradGradGradGradGradGradGradGradGradGradGradGradGrad

 Leave Link  103 at Wed Jan  8 01:00:42 2020, MaxMem=  4294967296 cpu:               1.6 elap:               0.4
 (Enter /home/cwagen/sw/g16/g16/l202.exe)
                          Input orientation:                          
 ---------------------------------------------------------------------
 Center     Atomic      Atomic             Coordinates (Angstroms)
 Number     Number       Type             X           Y           Z
 ---------------------------------------------------------------------
      1          6           0       -0.194263   -0.291999   -0.212908
      2          8           0       -0.255321   -0.665256   -1.454255
      3          6           0       -0.330945   -1.454221    0.816316
      4          1           0       -0.180394   -1.130438    1.853734
      5          1           0       -1.340665   -1.873010    0.714272
      6          1           0        0.397068   -2.233949    0.570583
      7         17           0       -1.631237    1.530925    0.397055
      8          6           0        1.103708    0.162516    0.049178
      9          7           0        2.238279    0.442814    0.079481
 ---------------------------------------------------------------------
                    Distance matrix (angstroms):
                    1          2          3          4          5
     1  C    0.000000
     2  O    1.297687   0.000000
     3  C    1.558443   2.404928   0.000000
     4  H    2.230287   3.341377   1.097150   0.000000
     5  H    2.161827   2.709087   1.097876   1.787740   0.000000
     6  H    2.175937   2.643176   1.094698   1.788205   1.780629
     7  Cl   2.400000   3.184918   3.282931   3.362991   3.431010
     8  C    1.400000   2.189172   2.293593   2.564580   3.249719
     9  N    2.557870   3.130208   3.277587   3.387192   4.309853
                    6          7          8          9
     6  H    0.000000
     7  Cl   4.280001   0.000000
     8  C    2.552302   3.077902   0.000000
     9  N    3.285772   4.032120   1.169075   0.000000
 Stoichiometry    C3H3ClNO(1-)
 Framework group  C1[X(C3H3ClNO)]
 Deg. of freedom    21
 Full point group                 C1      NOp   1
 Largest Abelian subgroup         C1      NOp   1
 Largest concise Abelian subgroup C1      NOp   1
                         Standard orientation:                         
 ---------------------------------------------------------------------
 Center     Atomic      Atomic             Coordinates (Angstroms)
 Number     Number       Type             X           Y           Z
 ---------------------------------------------------------------------
      1          6           0        0.311682    0.377854    0.212377
      2          8           0        0.629486    0.764050    1.409809
      3          6           0        0.701258    1.383135   -0.912960
      4          1           0        0.511321    0.995112   -1.921474
      5          1           0        0.110987    2.296619   -0.763101
      6          1           0        1.762514    1.632952   -0.814518
      7         17           0       -1.955293   -0.355060   -0.076870
      8          6           0        1.099241   -0.731331   -0.118472
      9          7           0        1.878026   -1.597001   -0.222609
 ---------------------------------------------------------------------
 Rotational constants (GHZ):           3.6773046           1.9295648           1.6613507
 Leave Link  202 at Wed Jan  8 01:00:43 2020, MaxMem=  4294967296 cpu:               4.7 elap:               1.2
 (Enter /home/cwagen/sw/g16/g16/l301.exe)
 Standard basis: 6-31+G(d) (6D, 7F)
 Ernie: Thresh=  0.10000D-02 Tol=  0.10000D-05 Strict=F.
 There are   124 symmetry adapted cartesian basis functions of A   symmetry.
 There are   124 symmetry adapted basis functions of A   symmetry.
   124 basis functions,   228 primitive gaussians,   124 cartesian basis functions
    27 alpha electrons       27 beta electrons
       nuclear repulsion energy       246.8027417151 Hartrees.
 IExCor=  402 DFT=T Ex+Corr=B3LYP ExCW=0 ScaHFX=  0.200000
 ScaDFX=  0.800000  0.720000  1.000000  0.810000 ScalE2=  1.000000  1.000000
 IRadAn=      5 IRanWt=     -1 IRanGd=            0 ICorTp=0 IEmpDi=  4
 NAtoms=    9 NActive=    9 NUniq=    9 SFac= 1.00D+00 NAtFMM=   60 NAOKFM=F Big=F
 Integral buffers will be    131072 words long.
 Raffenetti 2 integral format.
 Two-electron integral symmetry is turned on.
 ------------------------------------------------------------------------------
 Polarizable Continuum Model (PCM)
 =================================
 Model                : PCM.
 Atomic radii         : SMD-Coulomb.
 Polarization charges : Total charges.
 Charge compensation  : None.
 Solution method      : On-the-fly selection.
 Cavity type          : VdW (van der Waals Surface) (Alpha=1.000).
 Cavity algorithm     : GePol (No added spheres)
                        Default sphere list used, NSphG=    9.
                        Lebedev-Laikov grids with approx.  5.0 points / Ang**2.
                        Smoothing algorithm: York/Karplus (Gamma=1.0000).
                        Polarization charges: spherical gaussians, with
                                              point-specific exponents (IZeta= 3).
                        Self-potential: point-specific (ISelfS= 7).
                        Self-field    : sphere-specific E.n sum rule (ISelfD= 2).
 1st derivatives      : Analytical E(r).r(x)/FMM algorithm (CHGder, D1EAlg=3).
                        Cavity 1st derivative terms included.
 Solvent              : TetraHydroFuran, Eps=   7.425700 Eps(inf)=   1.974025
 ------------------------------------------------------------------------------
 Spheres list:
 ISph  on   Nord     Re0    Alpha      Xe            Ye            Ze
    1   C      1    1.8500  1.000      0.311682      0.377854      0.212377
    2   O      2    2.2940  1.000      0.629486      0.764050      1.409809
    3   C      3    1.8500  1.000      0.701258      1.383135     -0.912960
    4   H      4    1.2000  1.000      0.511321      0.995112     -1.921474
    5   H      5    1.2000  1.000      0.110987      2.296619     -0.763101
    6   H      6    1.2000  1.000      1.762514      1.632952     -0.814518
    7  Cl      7    2.3800  1.000     -1.955293     -0.355060     -0.076870
    8   C      8    1.8500  1.000      1.099241     -0.731331     -0.118472
    9   N      9    1.8900  1.000      1.878026     -1.597001     -0.222609
 ------------------------------------------------------------------------------
 GePol: Number of generator spheres                  =       9
 GePol: Total number of spheres                      =       9
 GePol: Number of exposed spheres                    =       9 (100.00%)
 GePol: Number of points                             =    1169
 GePol: Average weight of points                     =       0.14
 GePol: Minimum weight of points                     =   0.50D-11
 GePol: Maximum weight of points                     =    0.18138
 GePol: Number of points with low weight             =      47
 GePol: Fraction of low-weight points (<1% of avg)   =       4.02%
 GePol: Cavity surface area                          =    159.862 Ang**2
 GePol: Cavity volume                                =    146.259 Ang**3
 ------------------------------------------------------------------------------
 Atomic radii for non-electrostatic terms: SMD-CDS.
 ------------------------------------------------------------------------------
 PCM non-electrostatic energy =        -0.0012408146 Hartrees.
 Nuclear repulsion after PCM non-electrostatic terms =      246.8015009005 Hartrees.
 Leave Link  301 at Wed Jan  8 01:00:44 2020, MaxMem=  4294967296 cpu:               4.0 elap:               1.0
 (Enter /home/cwagen/sw/g16/g16/l302.exe)
 NPDir=0 NMtPBC=     1 NCelOv=     1 NCel=       1 NClECP=     1 NCelD=      1
         NCelK=      1 NCelE2=     1 NClLst=     1 CellRange=     0.0.
 One-electron integrals computed using PRISM.
 One-electron integral symmetry used in STVInt
 NBasis=   124 RedAO= T EigKep=  3.15D-05  NBF=   124
 NBsUse=   124 1.00D-06 EigRej= -1.00D+00 NBFU=   124
 Precomputing XC quadrature grid using
 IXCGrd= 4 IRadAn=           5 IRanWt=          -1 IRanGd=           0 AccXCQ= 0.00D+00.
 Generated NRdTot=       0 NPtTot=           0 NUsed=           0 NTot=          32
 NSgBfM=   124   124   124   124   124 MxSgAt=     9 MxSgA2=     9.
 Leave Link  302 at Wed Jan  8 01:01:02 2020, MaxMem=  4294967296 cpu:              71.5 elap:              17.9
 (Enter /home/cwagen/sw/g16/g16/l303.exe)
 DipDrv:  MaxL=1.
 Leave Link  303 at Wed Jan  8 01:01:04 2020, MaxMem=  4294967296 cpu:               8.0 elap:               2.0
 (Enter /home/cwagen/sw/g16/g16/l401.exe)
 ExpMin= 4.38D-02 ExpMax= 2.52D+04 ExpMxC= 3.78D+03 IAcc=3 IRadAn=         5 AccDes= 0.00D+00
 Harris functional with IExCor=  402 and IRadAn=       5 diagonalized for initial guess.
 HarFok:  IExCor=  402 AccDes= 0.00D+00 IRadAn=         5 IDoV= 1 UseB2=F ITyADJ=14
 ICtDFT=  3500011 ScaDFX=  1.000000  1.000000  1.000000  1.000000
 FoFCou: FMM=F IPFlag=           0 FMFlag=      100000 FMFlg1=           0
         NFxFlg=           0 DoJE=T BraDBF=F KetDBF=T FulRan=T
         wScrn=  0.000000 ICntrl=       500 IOpCl=  0 I1Cent=   200000004 NGrid=           0
         NMat0=    1 NMatS0=      1 NMatT0=    0 NMatD0=    1 NMtDS0=    0 NMtDT0=    0
 Petite list used in FoFCou.
 Harris En= -706.393766155722    
 JPrj=0 DoOrth=F DoCkMO=F.
 Leave Link  401 at Wed Jan  8 01:01:18 2020, MaxMem=  4294967296 cpu:              57.1 elap:              14.3
 (Enter /home/cwagen/sw/g16/g16/l502.exe)
 Keep R1 ints in memory in canonical form, NReq=45236517.
 FoFCou: FMM=F IPFlag=           0 FMFlag=           0 FMFlg1=           0
         NFxFlg=           0 DoJE=F BraDBF=F KetDBF=F FulRan=T
         wScrn=  0.000000 ICntrl=       600 IOpCl=  0 I1Cent=           0 NGrid=           0
         NMat0=    1 NMatS0=   7750 NMatT0=    0 NMatD0=    1 NMtDS0=    0 NMtDT0=    0
 Symmetry not used in FoFCou.
 Two-electron integral symmetry not used.
 Closed shell SCF:
 Using DIIS extrapolation, IDIIS=  1040.
 NGot=  4294967296 LenX=  4264898079 LenY=  4264882262
 Requested convergence on RMS density matrix=1.00D-08 within 128 cycles.
 Requested convergence on MAX density matrix=1.00D-06.
 Requested convergence on             energy=1.00D-06.
 No special actions if energy rises.

 Cycle   1  Pass 1  IDiag  1:
 Inv3:  Mode=1 IEnd=     4099683.
 Iteration    1 A*A^-1 deviation from unit magnitude is 4.00D-15 for   1157.
 Iteration    1 A*A^-1 deviation from orthogonality  is 2.10D-15 for    265    109.
 Iteration    1 A^-1*A deviation from unit magnitude is 4.22D-15 for   1157.
 Iteration    1 A^-1*A deviation from orthogonality  is 1.75D-15 for   1158   1019.
 E= -706.224451012816    
 DIIS: error= 2.63D-02 at cycle   1 NSaved=   1.
 NSaved= 1 IEnMin= 1 EnMin= -706.224451012816     IErMin= 1 ErrMin= 2.63D-02
 ErrMax= 2.63D-02  0.00D+00 EMaxC= 1.00D-01 BMatC= 2.00D-01 BMatP= 2.00D-01
 IDIUse=3 WtCom= 7.37D-01 WtEn= 2.63D-01
 Coeff-Com:  0.100D+01
 Coeff-En:   0.100D+01
 Coeff:      0.100D+01
 Gap=     0.258 Goal=   None    Shift=    0.000
 GapD=    0.258 DampG=1.000 DampE=0.500 DampFc=0.5000 IDamp=-1.
 Damping current iteration by 5.00D-01
 RMSDP=7.17D-02 MaxDP=4.01D+00              OVMax= 5.25D-01

 Cycle   2  Pass 1  IDiag  1:
 E= -706.194386179425     Delta-E=        0.030064833391 Rises=F Damp=T
 DIIS: error= 2.15D-02 at cycle   2 NSaved=   2.
 NSaved= 2 IEnMin= 1 EnMin= -706.224451012816     IErMin= 2 ErrMin= 2.15D-02
 ErrMax= 2.15D-02  0.00D+00 EMaxC= 1.00D-01 BMatC= 8.97D-02 BMatP= 2.00D-01
 IDIUse=3 WtCom= 7.85D-01 WtEn= 2.15D-01
 Coeff-Com:  0.375D+00 0.625D+00
 Coeff-En:   0.553D+00 0.447D+00
 Coeff:      0.414D+00 0.586D+00
 Gap=     0.153 Goal=   None    Shift=    0.000
 RMSDP=3.38D-02 MaxDP=1.96D+00 DE= 3.01D-02 OVMax= 2.67D-01

 Cycle   3  Pass 1  IDiag  1:
 E= -706.368088016141     Delta-E=       -0.173701836716 Rises=F Damp=F
 DIIS: error= 1.21D-02 at cycle   3 NSaved=   3.
 NSaved= 3 IEnMin= 3 EnMin= -706.368088016141     IErMin= 3 ErrMin= 1.21D-02
 ErrMax= 1.21D-02  0.00D+00 EMaxC= 1.00D-01 BMatC= 4.23D-02 BMatP= 8.97D-02
 IDIUse=3 WtCom= 8.79D-01 WtEn= 1.21D-01
 Coeff-Com:  0.157D+00 0.390D+00 0.454D+00
 Coeff-En:   0.000D+00 0.000D+00 0.100D+01
 Coeff:      0.138D+00 0.343D+00 0.520D+00
 Gap=     0.175 Goal=   None    Shift=    0.000
 RMSDP=3.50D-03 MaxDP=6.54D-02 DE=-1.74D-01 OVMax= 6.90D-02

 Cycle   4  Pass 1  IDiag  1:
 E= -706.403505498805     Delta-E=       -0.035417482664 Rises=F Damp=F
 DIIS: error= 4.13D-03 at cycle   4 NSaved=   4.
 NSaved= 4 IEnMin= 4 EnMin= -706.403505498805     IErMin= 4 ErrMin= 4.13D-03
 ErrMax= 4.13D-03  0.00D+00 EMaxC= 1.00D-01 BMatC= 5.76D-03 BMatP= 4.23D-02
 IDIUse=3 WtCom= 9.59D-01 WtEn= 4.13D-02
 Coeff-Com:  0.292D-01 0.893D-01 0.284D+00 0.598D+00
 Coeff-En:   0.000D+00 0.000D+00 0.100D+00 0.900D+00
 Coeff:      0.279D-01 0.856D-01 0.276D+00 0.610D+00
 Gap=     0.173 Goal=   None    Shift=    0.000
 RMSDP=1.08D-03 MaxDP=2.89D-02 DE=-3.54D-02 OVMax= 2.98D-02

 Cycle   5  Pass 1  IDiag  1:
 E= -706.406744355042     Delta-E=       -0.003238856237 Rises=F Damp=F
 DIIS: error= 2.36D-03 at cycle   5 NSaved=   5.
 NSaved= 5 IEnMin= 5 EnMin= -706.406744355042     IErMin= 5 ErrMin= 2.36D-03
 ErrMax= 2.36D-03  0.00D+00 EMaxC= 1.00D-01 BMatC= 1.85D-03 BMatP= 5.76D-03
 IDIUse=3 WtCom= 9.76D-01 WtEn= 2.36D-02
 Coeff-Com:  0.215D-02 0.136D-01 0.141D+00 0.450D+00 0.394D+00
 Coeff-En:   0.000D+00 0.000D+00 0.000D+00 0.264D+00 0.736D+00
 Coeff:      0.210D-02 0.133D-01 0.137D+00 0.446D+00 0.402D+00
 Gap=     0.171 Goal=   None    Shift=    0.000
 RMSDP=4.63D-04 MaxDP=9.24D-03 DE=-3.24D-03 OVMax= 1.52D-02

 Cycle   6  Pass 1  IDiag  1:
 E= -706.408321944286     Delta-E=       -0.001577589244 Rises=F Damp=F
 DIIS: error= 4.30D-04 at cycle   6 NSaved=   6.
 NSaved= 6 IEnMin= 6 EnMin= -706.408321944286     IErMin= 6 ErrMin= 4.30D-04
 ErrMax= 4.30D-04  0.00D+00 EMaxC= 1.00D-01 BMatC= 8.79D-05 BMatP= 1.85D-03
 IDIUse=3 WtCom= 9.96D-01 WtEn= 4.30D-03
 Coeff-Com: -0.603D-03-0.199D-02 0.503D-01 0.184D+00 0.238D+00 0.530D+00
 Coeff-En:   0.000D+00 0.000D+00 0.000D+00 0.000D+00 0.860D-02 0.991D+00
 Coeff:     -0.600D-03-0.198D-02 0.501D-01 0.183D+00 0.237D+00 0.532D+00
 Gap=     0.172 Goal=   None    Shift=    0.000
 RMSDP=2.01D-04 MaxDP=4.97D-03 DE=-1.58D-03 OVMax= 2.68D-03

 Cycle   7  Pass 1  IDiag  1:
 E= -706.408405451556     Delta-E=       -0.000083507269 Rises=F Damp=F
 DIIS: error= 1.25D-04 at cycle   7 NSaved=   7.
 NSaved= 7 IEnMin= 7 EnMin= -706.408405451556     IErMin= 7 ErrMin= 1.25D-04
 ErrMax= 1.25D-04  0.00D+00 EMaxC= 1.00D-01 BMatC= 3.58D-06 BMatP= 8.79D-05
 IDIUse=3 WtCom= 9.99D-01 WtEn= 1.25D-03
 Coeff-Com:  0.934D-04-0.246D-02 0.110D-01 0.387D-01 0.715D-01 0.220D+00
 Coeff-Com:  0.661D+00
 Coeff-En:   0.000D+00 0.000D+00 0.000D+00 0.000D+00 0.000D+00 0.000D+00
 Coeff-En:   0.100D+01
 Coeff:      0.932D-04-0.246D-02 0.110D-01 0.387D-01 0.714D-01 0.220D+00
 Coeff:      0.661D+00
 Gap=     0.173 Goal=   None    Shift=    0.000
 RMSDP=3.51D-05 MaxDP=1.11D-03 DE=-8.35D-05 OVMax= 9.35D-04

 Cycle   8  Pass 1  IDiag  1:
 E= -706.408408566389     Delta-E=       -0.000003114833 Rises=F Damp=F
 DIIS: error= 4.33D-05 at cycle   8 NSaved=   8.
 NSaved= 8 IEnMin= 8 EnMin= -706.408408566389     IErMin= 8 ErrMin= 4.33D-05
 ErrMax= 4.33D-05  0.00D+00 EMaxC= 1.00D-01 BMatC= 6.75D-07 BMatP= 3.58D-06
 IDIUse=1 WtCom= 1.00D+00 WtEn= 0.00D+00
 Coeff-Com:  0.309D-03-0.160D-02 0.176D-02 0.416D-02 0.183D-01 0.665D-01
 Coeff-Com:  0.349D+00 0.562D+00
 Coeff:      0.309D-03-0.160D-02 0.176D-02 0.416D-02 0.183D-01 0.665D-01
 Coeff:      0.349D+00 0.562D+00
 Gap=     0.173 Goal=   None    Shift=    0.000
 RMSDP=2.17D-05 MaxDP=6.41D-04 DE=-3.11D-06 OVMax= 3.38D-04

 Cycle   9  Pass 1  IDiag  1:
 E= -706.408409301519     Delta-E=       -0.000000735130 Rises=F Damp=F
 DIIS: error= 1.21D-05 at cycle   9 NSaved=   9.
 NSaved= 9 IEnMin= 9 EnMin= -706.408409301519     IErMin= 9 ErrMin= 1.21D-05
 ErrMax= 1.21D-05  0.00D+00 EMaxC= 1.00D-01 BMatC= 4.86D-08 BMatP= 6.75D-07
 IDIUse=1 WtCom= 1.00D+00 WtEn= 0.00D+00
 Coeff-Com:  0.221D-03-0.450D-03-0.366D-03-0.290D-02-0.165D-02-0.501D-02
 Coeff-Com:  0.475D-01 0.226D+00 0.737D+00
 Coeff:      0.221D-03-0.450D-03-0.366D-03-0.290D-02-0.165D-02-0.501D-02
 Coeff:      0.475D-01 0.226D+00 0.737D+00
 Gap=     0.173 Goal=   None    Shift=    0.000
 RMSDP=4.28D-06 MaxDP=1.35D-04 DE=-7.35D-07 OVMax= 6.49D-05

 Cycle  10  Pass 1  IDiag  1:
 E= -706.408409347882     Delta-E=       -0.000000046363 Rises=F Damp=F
 DIIS: error= 2.56D-06 at cycle  10 NSaved=  10.
 NSaved=10 IEnMin=10 EnMin= -706.408409347882     IErMin=10 ErrMin= 2.56D-06
 ErrMax= 2.56D-06  0.00D+00 EMaxC= 1.00D-01 BMatC= 1.44D-09 BMatP= 4.86D-08
 IDIUse=1 WtCom= 1.00D+00 WtEn= 0.00D+00
 Coeff-Com:  0.595D-04-0.865D-04-0.102D-03-0.780D-03-0.117D-02-0.403D-02
 Coeff-Com: -0.487D-02 0.352D-01 0.187D+00 0.789D+00
 Coeff:      0.595D-04-0.865D-04-0.102D-03-0.780D-03-0.117D-02-0.403D-02
 Coeff:     -0.487D-02 0.352D-01 0.187D+00 0.789D+00
 Gap=     0.173 Goal=   None    Shift=    0.000
 RMSDP=1.20D-06 MaxDP=3.19D-05 DE=-4.64D-08 OVMax= 1.46D-05

 Cycle  11  Pass 1  IDiag  1:
 E= -706.408409349096     Delta-E=       -0.000000001214 Rises=F Damp=F
 DIIS: error= 7.27D-07 at cycle  11 NSaved=  11.
 NSaved=11 IEnMin=11 EnMin= -706.408409349096     IErMin=11 ErrMin= 7.27D-07
 ErrMax= 7.27D-07  0.00D+00 EMaxC= 1.00D-01 BMatC= 1.73D-10 BMatP= 1.44D-09
 IDIUse=1 WtCom= 1.00D+00 WtEn= 0.00D+00
 Coeff-Com:  0.146D-04-0.111D-04 0.227D-05-0.925D-04-0.375D-03-0.128D-02
 Coeff-Com: -0.570D-02-0.445D-03 0.285D-01 0.353D+00 0.626D+00
 Coeff:      0.146D-04-0.111D-04 0.227D-05-0.925D-04-0.375D-03-0.128D-02
 Coeff:     -0.570D-02-0.445D-03 0.285D-01 0.353D+00 0.626D+00
 Gap=     0.173 Goal=   None    Shift=    0.000
 RMSDP=2.30D-07 MaxDP=6.13D-06 DE=-1.21D-09 OVMax= 3.20D-06

 Cycle  12  Pass 1  IDiag  1:
 E= -706.408409349264     Delta-E=       -0.000000000169 Rises=F Damp=F
 DIIS: error= 1.37D-07 at cycle  12 NSaved=  12.
 NSaved=12 IEnMin=12 EnMin= -706.408409349264     IErMin=12 ErrMin= 1.37D-07
 ErrMax= 1.37D-07  0.00D+00 EMaxC= 1.00D-01 BMatC= 6.11D-12 BMatP= 1.73D-10
 IDIUse=1 WtCom= 1.00D+00 WtEn= 0.00D+00
 Coeff-Com:  0.120D-05 0.462D-06 0.119D-04 0.293D-04-0.276D-04-0.933D-04
 Coeff-Com: -0.141D-02-0.233D-02-0.410D-02 0.562D-01 0.197D+00 0.754D+00
 Coeff:      0.120D-05 0.462D-06 0.119D-04 0.293D-04-0.276D-04-0.933D-04
 Coeff:     -0.141D-02-0.233D-02-0.410D-02 0.562D-01 0.197D+00 0.754D+00
 Gap=     0.173 Goal=   None    Shift=    0.000
 RMSDP=6.63D-08 MaxDP=2.03D-06 DE=-1.69D-10 OVMax= 1.02D-06

 Cycle  13  Pass 1  IDiag  1:
 E= -706.408409349272     Delta-E=       -0.000000000008 Rises=F Damp=F
 DIIS: error= 4.80D-08 at cycle  13 NSaved=  13.
 NSaved=13 IEnMin=13 EnMin= -706.408409349272     IErMin=13 ErrMin= 4.80D-08
 ErrMax= 4.80D-08  0.00D+00 EMaxC= 1.00D-01 BMatC= 3.40D-13 BMatP= 6.11D-12
 IDIUse=1 WtCom= 1.00D+00 WtEn= 0.00D+00
 Coeff-Com: -0.814D-07-0.999D-07 0.194D-05 0.542D-05 0.110D-04 0.283D-04
 Coeff-Com:  0.682D-04-0.302D-03-0.152D-02-0.666D-02-0.501D-02 0.649D-01
 Coeff-Com:  0.948D+00
 Coeff:     -0.814D-07-0.999D-07 0.194D-05 0.542D-05 0.110D-04 0.283D-04
 Coeff:      0.682D-04-0.302D-03-0.152D-02-0.666D-02-0.501D-02 0.649D-01
 Coeff:      0.948D+00
 Gap=     0.173 Goal=   None    Shift=    0.000
 RMSDP=1.03D-08 MaxDP=1.83D-07 DE=-7.62D-12 OVMax= 3.66D-07

 Cycle  14  Pass 1  IDiag  1:
 E= -706.408409349273     Delta-E=       -0.000000000001 Rises=F Damp=F
 DIIS: error= 5.80D-09 at cycle  14 NSaved=  14.
 NSaved=14 IEnMin=14 EnMin= -706.408409349273     IErMin=14 ErrMin= 5.80D-09
 ErrMax= 5.80D-09  0.00D+00 EMaxC= 1.00D-01 BMatC= 4.99D-15 BMatP= 3.40D-13
 IDIUse=1 WtCom= 1.00D+00 WtEn= 0.00D+00
 Coeff-Com:  0.187D-07-0.876D-07-0.945D-08 0.160D-07 0.163D-05 0.364D-05
 Coeff-Com:  0.371D-04 0.458D-04-0.282D-04-0.169D-02-0.544D-02-0.172D-01
 Coeff-Com:  0.522D-01 0.972D+00
 Coeff:      0.187D-07-0.876D-07-0.945D-08 0.160D-07 0.163D-05 0.364D-05
 Coeff:      0.371D-04 0.458D-04-0.282D-04-0.169D-02-0.544D-02-0.172D-01
 Coeff:      0.522D-01 0.972D+00
 Gap=     0.173 Goal=   None    Shift=    0.000
 RMSDP=3.03D-09 MaxDP=1.28D-07 DE=-1.02D-12 OVMax= 1.07D-07

 Error on total polarization charges =  0.02234
 SCF Done:  E(RB3LYP) =  -706.408409349     A.U. after   14 cycles
            NFock= 14  Conv=0.30D-08     -V/T= 2.0055
 KE= 7.025671870963D+02 PE=-2.171905469875D+03 EE= 5.161283725290D+02
 SMD-CDS (non-electrostatic) energy       (kcal/mol) =      -0.78
 (included in total energy above)
 Leave Link  502 at Wed Jan  8 01:05:22 2020, MaxMem=  4294967296 cpu:             969.7 elap:             243.6
 (Enter /home/cwagen/sw/g16/g16/l601.exe)
 Copying SCF densities to generalized density rwf, IOpCl= 0 IROHF=0.

 **********************************************************************

            Population analysis using the SCF density.

 **********************************************************************

 Orbital symmetries:
       Occupied  (A) (A) (A) (A) (A) (A) (A) (A) (A) (A) (A) (A)
                 (A) (A) (A) (A) (A) (A) (A) (A) (A) (A) (A) (A)
                 (A) (A) (A)
       Virtual   (A) (A) (A) (A) (A) (A) (A) (A) (A) (A) (A) (A)
                 (A) (A) (A) (A) (A) (A) (A) (A) (A) (A) (A) (A)
                 (A) (A) (A) (A) (A) (A) (A) (A) (A) (A) (A) (A)
                 (A) (A) (A) (A) (A) (A) (A) (A) (A) (A) (A) (A)
                 (A) (A) (A) (A) (A) (A) (A) (A) (A) (A) (A) (A)
                 (A) (A) (A) (A) (A) (A) (A) (A) (A) (A) (A) (A)
                 (A) (A) (A) (A) (A) (A) (A) (A) (A) (A) (A) (A)
                 (A) (A) (A) (A) (A) (A) (A) (A) (A) (A) (A) (A)
                 (A)
 The electronic state is 1-A.
 Alpha  occ. eigenvalues -- -101.46063 -19.11554 -14.33080 -10.28906 -10.22213
 Alpha  occ. eigenvalues --  -10.17317  -9.37423  -7.13487  -7.13052  -7.13044
 Alpha  occ. eigenvalues --   -0.99365  -0.89363  -0.74464  -0.70987  -0.63369
 Alpha  occ. eigenvalues --   -0.45758  -0.42883  -0.41718  -0.37968  -0.36484
 Alpha  occ. eigenvalues --   -0.35827  -0.31537  -0.30901  -0.25003  -0.24746
 Alpha  occ. eigenvalues --   -0.23916  -0.23051
 Alpha virt. eigenvalues --   -0.05782   0.02592   0.03723   0.04626   0.05480
 Alpha virt. eigenvalues --    0.06980   0.07450   0.09315   0.09745   0.09976
 Alpha virt. eigenvalues --    0.10198   0.11224   0.12073   0.13528   0.14215
 Alpha virt. eigenvalues --    0.14758   0.16460   0.16999   0.20686   0.21748
 Alpha virt. eigenvalues --    0.24558   0.24801   0.25807   0.26458   0.27315
 Alpha virt. eigenvalues --    0.28007   0.30245   0.32730   0.35080   0.35852
 Alpha virt. eigenvalues --    0.37625   0.38910   0.44021   0.58205   0.62921
 Alpha virt. eigenvalues --    0.66739   0.67852   0.68482   0.69798   0.73045
 Alpha virt. eigenvalues --    0.75288   0.76946   0.78128   0.81387   0.82569
 Alpha virt. eigenvalues --    0.85138   0.90186   0.94127   0.95122   0.95935
 Alpha virt. eigenvalues --    0.96901   1.00817   1.02382   1.03887   1.04562
 Alpha virt. eigenvalues --    1.08161   1.11512   1.14636   1.15644   1.23398
 Alpha virt. eigenvalues --    1.30288   1.32811   1.33758   1.43777   1.45999
 Alpha virt. eigenvalues --    1.47538   1.54923   1.59454   1.63197   1.70841
 Alpha virt. eigenvalues --    1.74405   1.82517   1.84306   1.89966   1.92096
 Alpha virt. eigenvalues --    1.95922   2.02016   2.07387   2.12364   2.17254
 Alpha virt. eigenvalues --    2.25026   2.31235   2.33388   2.45658   2.51254
 Alpha virt. eigenvalues --    2.73408   2.85796   2.87230   2.94810   3.08052
 Alpha virt. eigenvalues --    3.31404   4.13632   4.22678   4.35896   4.38310
 Alpha virt. eigenvalues --    4.40661   4.74764
          Condensed to atoms (all electrons):
               1          2          3          4          5          6
     1  C    6.592491   0.599385   0.116687  -0.117738  -0.107436   0.027062
     2  O    0.599385   8.317758  -0.175592   0.009937   0.003386  -0.012589
     3  C    0.116687  -0.175592   5.857799   0.372300   0.395729   0.369342
     4  H   -0.117738   0.009937   0.372300   0.487278  -0.021191  -0.030694
     5  H   -0.107436   0.003386   0.395729  -0.021191   0.474736  -0.023032
     6  H    0.027062  -0.012589   0.369342  -0.030694  -0.023032   0.468680
     7  Cl   0.049783  -0.048453  -0.119289   0.008280   0.000548   0.001029
     8  C   -1.423627  -0.194558  -0.113230   0.061832   0.045852  -0.045264
     9  N   -0.118551  -0.028992   0.020683  -0.001667  -0.000018  -0.001348
               7          8          9
     1  C    0.049783  -1.423627  -0.118551
     2  O   -0.048453  -0.194558  -0.028992
     3  C   -0.119289  -0.113230   0.020683
     4  H    0.008280   0.061832  -0.001667
     5  H    0.000548   0.045852  -0.000018
     6  H    0.001029  -0.045264  -0.001348
     7  Cl  17.661134   0.051969  -0.024731
     8  C    0.051969   6.826479   0.511499
     9  N   -0.024731   0.511499   7.239039
 Mulliken charges:
               1
     1  C    0.381943
     2  O   -0.470281
     3  C   -0.724429
     4  H    0.231664
     5  H    0.231425
     6  H    0.246815
     7  Cl  -0.580270
     8  C    0.279048
     9  N   -0.595915
 Sum of Mulliken charges =  -1.00000
 Mulliken charges with hydrogens summed into heavy atoms:
               1
     1  C    0.381943
     2  O   -0.470281
     3  C   -0.014524
     7  Cl  -0.580270
     8  C    0.279048
     9  N   -0.595915
 Electronic spatial extent (au):  <R**2>=            777.4594
 Charge=             -1.0000 electrons
 Dipole moment (field-independent basis, Debye):
    X=              2.1271    Y=              3.3420    Z=             -3.0720  Tot=              5.0131
 Quadrupole moment (field-independent basis, Debye-Ang):
   XX=            -64.4244   YY=            -52.4584   ZZ=            -50.8036
   XY=              4.5011   XZ=             -2.1608   YZ=             -4.4877
 Traceless Quadrupole moment (field-independent basis, Debye-Ang):
   XX=             -8.5289   YY=              3.4371   ZZ=              5.0918
   XY=              4.5011   XZ=             -2.1608   YZ=             -4.4877
 Octapole moment (field-independent basis, Debye-Ang**2):
  XXX=             10.1584  YYY=             17.3131  ZZZ=             -6.7817  XYY=            -11.2932
  XXY=             21.1103  XXZ=              2.5381  XZZ=             -1.9403  YZZ=             -2.0332
  YYZ=             -0.3300  XYZ=             -4.1820
 Hexadecapole moment (field-independent basis, Debye-Ang**3):
 XXXX=           -693.5179 YYYY=           -331.7448 ZZZZ=           -193.6261 XXXY=             36.1187
 XXXZ=              3.2915 YYYX=             27.1091 YYYZ=             -6.6238 ZZZX=             -3.5186
 ZZZY=             -5.4651 XXYY=           -183.8751 XXZZ=           -139.6609 YYZZ=            -88.5215
 XXYZ=             -6.1506 YYXZ=              2.2559 ZZXY=             -0.0140
 N-N= 2.468015009005D+02 E-N=-2.171905469900D+03  KE= 7.025671870963D+02
 No NMR shielding tensors so no spin-rotation constants.
 Leave Link  601 at Wed Jan  8 01:05:31 2020, MaxMem=  4294967296 cpu:              34.4 elap:               8.7
 (Enter /home/cwagen/sw/g16/g16/l701.exe)
 ... and contract with generalized density number  0.
 Compute integral first derivatives.
 D1PCM: PCM CHGder 1st derivatives, ID1Alg=3 FixD1E=F DoIter=F DoCFld=F I1PDM=0.
 GePol: Maximum number of non-zero 1st derivatives   =     380
 Leave Link  701 at Wed Jan  8 01:06:02 2020, MaxMem=  4294967296 cpu:             125.5 elap:              31.5
 (Enter /home/cwagen/sw/g16/g16/l702.exe)
 L702 exits ... SP integral derivatives will be done elsewhere.
 Leave Link  702 at Wed Jan  8 01:06:03 2020, MaxMem=  4294967296 cpu:               2.8 elap:               0.7
 (Enter /home/cwagen/sw/g16/g16/l703.exe)
 Integral derivatives from FoFJK, PRISM(SPDF).
 Compute integral first derivatives, UseDBF=F ICtDFT=           0.
 Calling FoFJK, ICntrl=      2127 FMM=F ISym2X=0 I1Cent= 0 IOpClX= 0 NMat=1 NMatS=1 NMatT=0.
 FoFJK:  IHMeth= 1 ICntrl=    2127 DoSepK=F KAlg= 0 I1Cent=           0 FoldK=F
 IRaf=         0 NMat=       1 IRICut=       1 DoRegI=T DoRafI=F ISym2E= 0 IDoP0=0 IntGTp=1.
 FoFCou: FMM=F IPFlag=           0 FMFlag=      100000 FMFlg1=         800
         NFxFlg=           0 DoJE=F BraDBF=F KetDBF=F FulRan=T
         wScrn=  0.000000 ICntrl=      2127 IOpCl=  0 I1Cent=           0 NGrid=           0
         NMat0=    1 NMatS0=      1 NMatT0=    0 NMatD0=    1 NMtDS0=    0 NMtDT0=    0
 Symmetry not used in FoFCou.
 Leave Link  703 at Wed Jan  8 01:06:17 2020, MaxMem=  4294967296 cpu:              55.8 elap:              14.0
 (Enter /home/cwagen/sw/g16/g16/l716.exe)
 Dipole        = 8.36867459D-01 1.31486297D+00-1.20863627D+00
 ***** Axes restored to original set *****
 -------------------------------------------------------------------
 Center     Atomic                   Forces (Hartrees/Bohr)
 Number     Number              X              Y              Z
 -------------------------------------------------------------------
      1        6           0.005193678   -0.082249965   -0.040993791
      2        8          -0.024277452    0.025876614    0.030350894
      3        6          -0.038818540    0.010165722    0.006583617
      4        1          -0.000936522    0.000593139   -0.001539251
      5        1           0.000878170   -0.003321444    0.003208758
      6        1           0.001065236    0.003446825   -0.003078550
      7       17           0.007816735   -0.010157086   -0.000522978
      8        6           0.056744161    0.059258216   -0.000349307
      9        7          -0.007665467   -0.003612021    0.006340606
 -------------------------------------------------------------------
 Cartesian Forces:  Max     0.082249965 RMS     0.026779315
 Leave Link  716 at Wed Jan  8 01:06:18 2020, MaxMem=  4294967296 cpu:               3.3 elap:               0.8
 (Enter /home/cwagen/sw/g16/g16/l103.exe)

 GradGradGradGradGradGradGradGradGradGradGradGradGradGradGradGradGradGrad
 Berny optimization.
 FormGI is forming the generalized inverse of G from B-inverse, IUseBI=4.
 Internal  Forces:  Max     0.064903693 RMS     0.020255686
 Search for a local minimum.
 Step number   1 out of a maximum of   41
 All quantities printed in internal units (Hartrees-Bohrs-Radians)
 RMS Force = .16969D-01 SwitMx=.10000D-02 MixMth= 1
 Mixed Optimization -- RFO/linear search
 Second derivative matrix not updated -- first step.
 ITU=  0
     Eigenvalues ---    0.00230   0.04746   0.04746   0.05330   0.05908
     Eigenvalues ---    0.07453   0.10176   0.16000   0.16000   0.16000
     Eigenvalues ---    0.25000   0.25000   0.25000   0.26946   0.33918
     Eigenvalues ---    0.33999   0.34275   0.67840   1.220341000.00000
     Eigenvalues --- 1000.000001000.000001000.000001000.000001000.00000
     Eigenvalues --- 1000.000001000.000001000.000001000.000001000.00000
     Eigenvalues --- 1000.00000
 RFO step:  Lambda=-4.05796947D-02 EMin= 2.30000000D-03
 Linear search not attempted -- first point.
 Maximum step size (   0.300) exceeded in Quadratic search.
    -- Step size scaled by   0.811
 Iteration  1 RMS(Cart)=  0.10469412 RMS(Int)=  0.00791852
 Iteration  2 RMS(Cart)=  0.00799936 RMS(Int)=  0.00544160
 Iteration  3 RMS(Cart)=  0.00002306 RMS(Int)=  0.00544159
 Iteration  4 RMS(Cart)=  0.00000025 RMS(Int)=  0.00544159
 Iteration  1 RMS(Cart)=  0.00000000 RMS(Int)=  0.00000000
 ITry= 1 IFail=0 DXMaxC= 2.82D-01 DCOld= 1.00D+10 DXMaxT= 3.00D-01 DXLimC= 3.00D+00 Rises=F
 Variable       Old X    -DE/DX   Delta X   Delta X   Delta X     New X
                                 (Linear)    (Quad)   (Total)
    R1        2.45227  -0.03535   0.00000  -0.03988  -0.03988   2.41240
    R2        2.94503  -0.00128   0.00000  -0.00334  -0.00334   2.94169
    R3        4.53534  -0.01251   0.00000   0.00000   0.00000   4.53534
    R4        2.64562   0.06490   0.00000   0.00000   0.00000   2.64562
    R5        2.07331  -0.00144   0.00000  -0.00307  -0.00307   2.07024
    R6        2.07468   0.00016   0.00000   0.00034   0.00034   2.07503
    R7        2.06868  -0.00147   0.00000  -0.00311  -0.00311   2.06557
    R8        2.20923  -0.00815   0.00000  -0.00524  -0.00524   2.20399
    A1        1.99667   0.02206   0.00000   0.06497   0.05223   2.04890
    A2        2.01908  -0.01167   0.00000  -0.07833  -0.07935   1.93973
    A3        1.89239  -0.00570   0.00000   0.06953   0.05042   1.94281
    A4        1.92419  -0.02695   0.00000  -0.11342  -0.11056   1.81363
    A5        1.77194   0.05263   0.00000   0.18051   0.17019   1.94214
    A6        1.83479  -0.02520   0.00000  -0.09442  -0.08624   1.74855
    A7        1.97398  -0.00133   0.00000  -0.00594  -0.00615   1.96782
    A8        1.87942   0.00828   0.00000   0.03669   0.03679   1.91621
    A9        1.90140  -0.00737   0.00000  -0.03249  -0.03249   1.86891
   A10        1.90356  -0.00248   0.00000  -0.00511  -0.00521   1.89835
   A11        1.90837   0.00317   0.00000   0.00706   0.00674   1.91511
   A12        1.89554  -0.00020   0.00000   0.00032   0.00068   1.89622
   A13        3.10130  -0.00711   0.00000  -0.06547  -0.06547   3.03582
   A14        2.92901   0.01149   0.00000   0.10583   0.10583   3.03484
    D1        3.04510   0.01822   0.00000   0.12296   0.12710  -3.11099
    D2       -1.13357   0.01995   0.00000   0.13795   0.14216  -0.99141
    D3        0.91915   0.02032   0.00000   0.14114   0.14504   1.06418
    D4       -0.92685  -0.00394   0.00000  -0.03750  -0.03479  -0.96164
    D5        1.17766  -0.00221   0.00000  -0.02251  -0.01973   1.15794
    D6       -3.05280  -0.00184   0.00000  -0.01932  -0.01685  -3.06965
    D7        1.01121  -0.01708   0.00000  -0.09911  -0.10579   0.90542
    D8        3.11572  -0.01535   0.00000  -0.08411  -0.09072   3.02500
    D9       -1.11475  -0.01497   0.00000  -0.08092  -0.08785  -1.20259
         Item               Value     Threshold  Converged?
 Maximum Force            0.052628     0.000450     NO 
 RMS     Force            0.016969     0.000300     NO 
 Maximum Displacement     0.282010     0.001800     NO 
 RMS     Displacement     0.102100     0.001200     NO 
 Predicted change in Energy=-2.370624D-02
 Lowest energy point so far.  Saving SCF results.
 GradGradGradGradGradGradGradGradGradGradGradGradGradGradGradGradGradGrad

 Leave Link  103 at Wed Jan  8 01:07:17 2020, MaxMem=  4294967296 cpu:             232.3 elap:              58.8
 (Enter /home/cwagen/sw/g16/g16/l202.exe)
                          Input orientation:                          
 ---------------------------------------------------------------------
 Center     Atomic      Atomic             Coordinates (Angstroms)
 Number     Number       Type             X           Y           Z
 ---------------------------------------------------------------------
      1          6           0       -0.100798   -0.363694   -0.231631
      2          8           0       -0.281808   -0.663223   -1.459307
      3          6           0       -0.370064   -1.475536    0.824087
      4          1           0       -0.221009   -1.128337    1.852390
      5          1           0       -1.399230   -1.844323    0.721413
      6          1           0        0.318515   -2.296575    0.608414
      7         17           0       -1.541840    1.433275    0.442387
      8          6           0        1.149580    0.233747   -0.032584
      9          7           0        2.252882    0.592047    0.088286
 ---------------------------------------------------------------------
                    Distance matrix (angstroms):
                    1          2          3          4          5
     1  C    0.000000
     2  O    1.276585   0.000000
     3  C    1.556675   2.425186   0.000000
     4  H    2.223123   3.344751   1.095523   0.000000
     5  H    2.187803   2.720141   1.098057   1.783241   0.000000
     6  H    2.148844   2.702535   1.093051   1.789788   1.779874
     7  Cl   2.400000   3.098294   3.159104   3.208514   3.292543
     8  C    1.400000   2.211100   2.442305   2.699428   3.373918
     9  N    2.560389   3.224190   3.419962   3.491692   4.435613
                    6          7          8          9
     6  H    0.000000
     7  Cl   4.171363   0.000000
     8  C    2.739357   2.984662   0.000000
     9  N    3.515173   3.902943   1.166303   0.000000
 Stoichiometry    C3H3ClNO(1-)
 Framework group  C1[X(C3H3ClNO)]
 Deg. of freedom    21
 Full point group                 C1      NOp   1
 RotChk:  IX=0 Diff= 1.10D-01
 Largest Abelian subgroup         C1      NOp   1
 Largest concise Abelian subgroup C1      NOp   1
                         Standard orientation:                         
 ---------------------------------------------------------------------
 Center     Atomic      Atomic             Coordinates (Angstroms)
 Number     Number       Type             X           Y           Z
 ---------------------------------------------------------------------
      1          6           0        0.375486    0.419728    0.210250
      2          8           0        0.570356    0.824197    1.405281
      3          6           0        0.510420    1.468780   -0.931906
      4          1           0        0.298101    1.047972   -1.920852
      5          1           0       -0.175362    2.306821   -0.749921
      6          1           0        1.536523    1.844352   -0.903290
      7         17           0       -1.847289   -0.444304   -0.059409
      8          6           0        1.123567   -0.730976   -0.065895
      9          7           0        1.874995   -1.597820   -0.276132
 ---------------------------------------------------------------------
 Rotational constants (GHZ):           3.4560066           2.0687114           1.7171682
 Leave Link  202 at Wed Jan  8 01:07:18 2020, MaxMem=  4294967296 cpu:               4.7 elap:               1.2
 (Enter /home/cwagen/sw/g16/g16/l301.exe)
 Standard basis: 6-31+G(d) (6D, 7F)
 Ernie: Thresh=  0.10000D-02 Tol=  0.10000D-05 Strict=F.
 There are   124 symmetry adapted cartesian basis functions of A   symmetry.
 There are   124 symmetry adapted basis functions of A   symmetry.
   124 basis functions,   228 primitive gaussians,   124 cartesian basis functions
    27 alpha electrons       27 beta electrons
       nuclear repulsion energy       248.2023912773 Hartrees.
 IExCor=  402 DFT=T Ex+Corr=B3LYP ExCW=0 ScaHFX=  0.200000
 ScaDFX=  0.800000  0.720000  1.000000  0.810000 ScalE2=  1.000000  1.000000
 IRadAn=      5 IRanWt=     -1 IRanGd=            0 ICorTp=0 IEmpDi=  4
 NAtoms=    9 NActive=    9 NUniq=    9 SFac= 1.00D+00 NAtFMM=   60 NAOKFM=F Big=F
 Integral buffers will be    131072 words long.
 Raffenetti 2 integral format.
 Two-electron integral symmetry is turned on.
 ------------------------------------------------------------------------------
 Polarizable Continuum Model (PCM)
 =================================
 Model                : PCM.
 Atomic radii         : SMD-Coulomb.
 Polarization charges : Total charges.
 Charge compensation  : None.
 Solution method      : On-the-fly selection.
 Cavity type          : VdW (van der Waals Surface) (Alpha=1.000).
 Cavity algorithm     : GePol (No added spheres)
                        Default sphere list used, NSphG=    9.
                        Lebedev-Laikov grids with approx.  5.0 points / Ang**2.
                        Smoothing algorithm: York/Karplus (Gamma=1.0000).
                        Polarization charges: spherical gaussians, with
                                              point-specific exponents (IZeta= 3).
                        Self-potential: point-specific (ISelfS= 7).
                        Self-field    : sphere-specific E.n sum rule (ISelfD= 2).
 1st derivatives      : Analytical E(r).r(x)/FMM algorithm (CHGder, D1EAlg=3).
                        Cavity 1st derivative terms included.
 Solvent              : TetraHydroFuran, Eps=   7.425700 Eps(inf)=   1.974025
 ------------------------------------------------------------------------------
 Spheres list:
 ISph  on   Nord     Re0    Alpha      Xe            Ye            Ze
    1   C      1    1.8500  1.000      0.375486      0.419728      0.210250
    2   O      2    2.2940  1.000      0.570356      0.824197      1.405281
    3   C      3    1.8500  1.000      0.510420      1.468780     -0.931906
    4   H      4    1.2000  1.000      0.298101      1.047972     -1.920852
    5   H      5    1.2000  1.000     -0.175362      2.306821     -0.749921
    6   H      6    1.2000  1.000      1.536523      1.844352     -0.903290
    7  Cl      7    2.3800  1.000     -1.847289     -0.444304     -0.059409
    8   C      8    1.8500  1.000      1.123567     -0.730976     -0.065895
    9   N      9    1.8900  1.000      1.874995     -1.597820     -0.276132
 ------------------------------------------------------------------------------
 GePol: Number of generator spheres                  =       9
 GePol: Total number of spheres                      =       9
 GePol: Number of exposed spheres                    =       9 (100.00%)
 GePol: Number of points                             =    1169
 GePol: Average weight of points                     =       0.14
 GePol: Minimum weight of points                     =   0.32D-08
 GePol: Maximum weight of points                     =    0.18138
 GePol: Number of points with low weight             =      32
 GePol: Fraction of low-weight points (<1% of avg)   =       2.74%
 GePol: Cavity surface area                          =    158.504 Ang**2
 GePol: Cavity volume                                =    145.304 Ang**3
 ------------------------------------------------------------------------------
 Atomic radii for non-electrostatic terms: SMD-CDS.
 ------------------------------------------------------------------------------
 PCM non-electrostatic energy =        -0.0012860767 Hartrees.
 Nuclear repulsion after PCM non-electrostatic terms =      248.2011052006 Hartrees.
 Leave Link  301 at Wed Jan  8 01:07:19 2020, MaxMem=  4294967296 cpu:               4.0 elap:               1.1
 (Enter /home/cwagen/sw/g16/g16/l302.exe)
 NPDir=0 NMtPBC=     1 NCelOv=     1 NCel=       1 NClECP=     1 NCelD=      1
         NCelK=      1 NCelE2=     1 NClLst=     1 CellRange=     0.0.
 One-electron integrals computed using PRISM.
 One-electron integral symmetry used in STVInt
 NBasis=   124 RedAO= T EigKep=  3.00D-05  NBF=   124
 NBsUse=   124 1.00D-06 EigRej= -1.00D+00 NBFU=   124
 Precomputing XC quadrature grid using
 IXCGrd= 4 IRadAn=           5 IRanWt=          -1 IRanGd=           0 AccXCQ= 0.00D+00.
 Generated NRdTot=       0 NPtTot=           0 NUsed=           0 NTot=          32
 NSgBfM=   124   124   124   124   124 MxSgAt=     9 MxSgA2=     9.
 Leave Link  302 at Wed Jan  8 01:07:39 2020, MaxMem=  4294967296 cpu:              79.6 elap:              19.9
 (Enter /home/cwagen/sw/g16/g16/l303.exe)
 DipDrv:  MaxL=1.
 Leave Link  303 at Wed Jan  8 01:07:41 2020, MaxMem=  4294967296 cpu:               9.1 elap:               2.3
 (Enter /home/cwagen/sw/g16/g16/l401.exe)
 Initial guess from the checkpoint file:  "/scratch/users/cwagen/cwagen_scan_240_140/Gau-28563.chk"
 B after Tr=     0.000000    0.000000    0.000000
         Rot=    0.999631    0.000891   -0.008987   -0.025623 Ang=   3.11 deg.
 Guess basis will be translated and rotated to current coordinates.
 JPrj=2 DoOrth=T DoCkMO=T.
 Generating alternative initial guess.
 ExpMin= 4.38D-02 ExpMax= 2.52D+04 ExpMxC= 3.78D+03 IAcc=2 IRadAn=         4 AccDes= 0.00D+00
 Harris functional with IExCor=  402 and IRadAn=       4 diagonalized for initial guess.
 HarFok:  IExCor=  402 AccDes= 0.00D+00 IRadAn=         4 IDoV= 1 UseB2=F ITyADJ=14
 ICtDFT=  3500011 ScaDFX=  1.000000  1.000000  1.000000  1.000000
 FoFCou: FMM=F IPFlag=           0 FMFlag=      100000 FMFlg1=           0
         NFxFlg=           0 DoJE=T BraDBF=F KetDBF=T FulRan=T
         wScrn=  0.000000 ICntrl=       500 IOpCl=  0 I1Cent=   200000004 NGrid=           0
         NMat0=    1 NMatS0=      1 NMatT0=    0 NMatD0=    1 NMtDS0=    0 NMtDT0=    0
 Petite list used in FoFCou.
 Harris En= -706.414688354982    
 Leave Link  401 at Wed Jan  8 01:08:08 2020, MaxMem=  4294967296 cpu:             105.2 elap:              26.4
 (Enter /home/cwagen/sw/g16/g16/l502.exe)
 Keep R1 ints in memory in canonical form, NReq=45236517.
 FoFCou: FMM=F IPFlag=           0 FMFlag=           0 FMFlg1=           0
         NFxFlg=           0 DoJE=F BraDBF=F KetDBF=F FulRan=T
         wScrn=  0.000000 ICntrl=       600 IOpCl=  0 I1Cent=           0 NGrid=           0
         NMat0=    1 NMatS0=   7750 NMatT0=    0 NMatD0=    1 NMtDS0=    0 NMtDT0=    0
 Symmetry not used in FoFCou.
 Two-electron integral symmetry not used.
 Closed shell SCF:
 Using DIIS extrapolation, IDIIS=  1040.
 NGot=  4294967296 LenX=  4264898079 LenY=  4264882262
 Requested convergence on RMS density matrix=1.00D-08 within 128 cycles.
 Requested convergence on MAX density matrix=1.00D-06.
 Requested convergence on             energy=1.00D-06.
 No special actions if energy rises.

 Cycle   1  Pass 1  IDiag  1:
 Inv3:  Mode=1 IEnd=     4099683.
 Iteration    1 A*A^-1 deviation from unit magnitude is 3.33D-15 for   1163.
 Iteration    1 A*A^-1 deviation from orthogonality  is 1.73D-15 for    336     98.
 Iteration    1 A^-1*A deviation from unit magnitude is 3.33D-15 for   1163.
 Iteration    1 A^-1*A deviation from orthogonality  is 1.66D-15 for    224     68.
 E= -706.409058089126    
 DIIS: error= 6.12D-03 at cycle   1 NSaved=   1.
 NSaved= 1 IEnMin= 1 EnMin= -706.409058089126     IErMin= 1 ErrMin= 6.12D-03
 ErrMax= 6.12D-03  0.00D+00 EMaxC= 1.00D-01 BMatC= 1.37D-02 BMatP= 1.37D-02
 IDIUse=3 WtCom= 9.39D-01 WtEn= 6.12D-02
 Coeff-Com:  0.100D+01
 Coeff-En:   0.100D+01
 Coeff:      0.100D+01
 Gap=     0.564 Goal=   None    Shift=    0.000
 GapD=    0.564 DampG=2.000 DampE=1.000 DampFc=2.0000 IDamp=-1.
 RMSDP=3.54D-03 MaxDP=7.12D-02              OVMax= 4.23D-02

 Cycle   2  Pass 1  IDiag  1:
 E= -706.430686005042     Delta-E=       -0.021627915916 Rises=F Damp=F
 DIIS: error= 8.77D-04 at cycle   2 NSaved=   2.
 NSaved= 2 IEnMin= 2 EnMin= -706.430686005042     IErMin= 2 ErrMin= 8.77D-04
 ErrMax= 8.77D-04  0.00D+00 EMaxC= 1.00D-01 BMatC= 3.77D-04 BMatP= 1.37D-02
 IDIUse=3 WtCom= 9.91D-01 WtEn= 8.77D-03
 Coeff-Com: -0.224D-01 0.102D+01
 Coeff-En:   0.000D+00 0.100D+01
 Coeff:     -0.222D-01 0.102D+01
 Gap=     0.186 Goal=   None    Shift=    0.000
 RMSDP=6.09D-04 MaxDP=1.04D-02 DE=-2.16D-02 OVMax= 1.28D-02

 Cycle   3  Pass 1  IDiag  1:
 E= -706.430094857786     Delta-E=        0.000591147256 Rises=F Damp=F
 DIIS: error= 1.90D-03 at cycle   3 NSaved=   3.
 NSaved= 3 IEnMin= 2 EnMin= -706.430686005042     IErMin= 2 ErrMin= 8.77D-04
 ErrMax= 1.90D-03  0.00D+00 EMaxC= 1.00D-01 BMatC= 1.16D-03 BMatP= 3.77D-04
 IDIUse=3 WtCom= 1.87D-01 WtEn= 8.13D-01
 Coeff-Com: -0.371D-01 0.684D+00 0.353D+00
 Coeff-En:   0.000D+00 0.697D+00 0.303D+00
 Coeff:     -0.692D-02 0.695D+00 0.312D+00
 Gap=     0.186 Goal=   None    Shift=    0.000
 RMSDP=4.61D-04 MaxDP=1.11D-02 DE= 5.91D-04 OVMax= 1.02D-02

 Cycle   4  Pass 1  IDiag  1:
 E= -706.431149009197     Delta-E=       -0.001054151411 Rises=F Damp=F
 DIIS: error= 2.79D-04 at cycle   4 NSaved=   4.
 NSaved= 4 IEnMin= 4 EnMin= -706.431149009197     IErMin= 4 ErrMin= 2.79D-04
 ErrMax= 2.79D-04  0.00D+00 EMaxC= 1.00D-01 BMatC= 2.87D-05 BMatP= 3.77D-04
 IDIUse=3 WtCom= 9.97D-01 WtEn= 2.79D-03
 Coeff-Com: -0.173D-01 0.216D+00 0.158D+00 0.643D+00
 Coeff-En:   0.000D+00 0.000D+00 0.000D+00 0.100D+01
 Coeff:     -0.173D-01 0.216D+00 0.157D+00 0.644D+00
 Gap=     0.184 Goal=   None    Shift=    0.000
 RMSDP=8.91D-05 MaxDP=2.71D-03 DE=-1.05D-03 OVMax= 1.74D-03

 Cycle   5  Pass 1  IDiag  1:
 E= -706.431170372643     Delta-E=       -0.000021363446 Rises=F Damp=F
 DIIS: error= 1.10D-04 at cycle   5 NSaved=   5.
 NSaved= 5 IEnMin= 5 EnMin= -706.431170372643     IErMin= 5 ErrMin= 1.10D-04
 ErrMax= 1.10D-04  0.00D+00 EMaxC= 1.00D-01 BMatC= 5.67D-06 BMatP= 2.87D-05
 IDIUse=3 WtCom= 9.99D-01 WtEn= 1.10D-03
 Coeff-Com: -0.453D-02 0.414D-01 0.498D-01 0.345D+00 0.568D+00
 Coeff-En:   0.000D+00 0.000D+00 0.000D+00 0.108D+00 0.892D+00
 Coeff:     -0.452D-02 0.413D-01 0.497D-01 0.345D+00 0.569D+00
 Gap=     0.185 Goal=   None    Shift=    0.000
 RMSDP=5.59D-05 MaxDP=1.45D-03 DE=-2.14D-05 OVMax= 8.06D-04

 Cycle   6  Pass 1  IDiag  1:
 E= -706.431175570173     Delta-E=       -0.000005197530 Rises=F Damp=F
 DIIS: error= 3.66D-05 at cycle   6 NSaved=   6.
 NSaved= 6 IEnMin= 6 EnMin= -706.431175570173     IErMin= 6 ErrMin= 3.66D-05
 ErrMax= 3.66D-05  0.00D+00 EMaxC= 1.00D-01 BMatC= 5.35D-07 BMatP= 5.67D-06
 IDIUse=1 WtCom= 1.00D+00 WtEn= 0.00D+00
 Coeff-Com: -0.429D-03-0.551D-02 0.674D-02 0.109D+00 0.294D+00 0.596D+00
 Coeff:     -0.429D-03-0.551D-02 0.674D-02 0.109D+00 0.294D+00 0.596D+00
 Gap=     0.185 Goal=   None    Shift=    0.000
 RMSDP=1.58D-05 MaxDP=3.77D-04 DE=-5.20D-06 OVMax= 2.29D-04

 Cycle   7  Pass 1  IDiag  1:
 E= -706.431175889274     Delta-E=       -0.000000319101 Rises=F Damp=F
 DIIS: error= 2.77D-05 at cycle   7 NSaved=   7.
 NSaved= 7 IEnMin= 7 EnMin= -706.431175889274     IErMin= 7 ErrMin= 2.77D-05
 ErrMax= 2.77D-05  0.00D+00 EMaxC= 1.00D-01 BMatC= 2.12D-07 BMatP= 5.35D-07
 IDIUse=1 WtCom= 1.00D+00 WtEn= 0.00D+00
 Coeff-Com:  0.386D-03-0.109D-01-0.294D-02 0.271D-01 0.130D+00 0.431D+00
 Coeff-Com:  0.425D+00
 Coeff:      0.386D-03-0.109D-01-0.294D-02 0.271D-01 0.130D+00 0.431D+00
 Coeff:      0.425D+00
 Gap=     0.185 Goal=   None    Shift=    0.000
 RMSDP=7.18D-06 MaxDP=1.71D-04 DE=-3.19D-07 OVMax= 1.33D-04

 Cycle   8  Pass 1  IDiag  1:
 E= -706.431176054140     Delta-E=       -0.000000164866 Rises=F Damp=F
 DIIS: error= 5.19D-06 at cycle   8 NSaved=   8.
 NSaved= 8 IEnMin= 8 EnMin= -706.431176054140     IErMin= 8 ErrMin= 5.19D-06
 ErrMax= 5.19D-06  0.00D+00 EMaxC= 1.00D-01 BMatC= 9.72D-09 BMatP= 2.12D-07
 IDIUse=1 WtCom= 1.00D+00 WtEn= 0.00D+00
 Coeff-Com:  0.272D-03-0.583D-02-0.234D-02 0.500D-02 0.457D-01 0.179D+00
 Coeff-Com:  0.239D+00 0.539D+00
 Coeff:      0.272D-03-0.583D-02-0.234D-02 0.500D-02 0.457D-01 0.179D+00
 Coeff:      0.239D+00 0.539D+00
 Gap=     0.185 Goal=   None    Shift=    0.000
 RMSDP=1.62D-06 MaxDP=5.15D-05 DE=-1.65D-07 OVMax= 6.53D-05

 Cycle   9  Pass 1  IDiag  1:
 E= -706.431176064984     Delta-E=       -0.000000010844 Rises=F Damp=F
 DIIS: error= 1.52D-06 at cycle   9 NSaved=   9.
 NSaved= 9 IEnMin= 9 EnMin= -706.431176064984     IErMin= 9 ErrMin= 1.52D-06
 ErrMax= 1.52D-06  0.00D+00 EMaxC= 1.00D-01 BMatC= 5.82D-10 BMatP= 9.72D-09
 IDIUse=1 WtCom= 1.00D+00 WtEn= 0.00D+00
 Coeff-Com:  0.255D-04-0.944D-04-0.280D-03-0.284D-02-0.602D-02-0.138D-01
 Coeff-Com:  0.501D-02 0.205D+00 0.813D+00
 Coeff:      0.255D-04-0.944D-04-0.280D-03-0.284D-02-0.602D-02-0.138D-01
 Coeff:      0.501D-02 0.205D+00 0.813D+00
 Gap=     0.185 Goal=   None    Shift=    0.000
 RMSDP=5.47D-07 MaxDP=1.45D-05 DE=-1.08D-08 OVMax= 2.11D-05

 Cycle  10  Pass 1  IDiag  1:
 E= -706.431176065936     Delta-E=       -0.000000000952 Rises=F Damp=F
 DIIS: error= 1.84D-07 at cycle  10 NSaved=  10.
 NSaved=10 IEnMin=10 EnMin= -706.431176065936     IErMin=10 ErrMin= 1.84D-07
 ErrMax= 1.84D-07  0.00D+00 EMaxC= 1.00D-01 BMatC= 9.92D-12 BMatP= 5.82D-10
 IDIUse=1 WtCom= 1.00D+00 WtEn= 0.00D+00
 Coeff-Com: -0.915D-05 0.284D-03 0.953D-04-0.646D-03-0.306D-02-0.103D-01
 Coeff-Com: -0.110D-01 0.566D-02 0.135D+00 0.884D+00
 Coeff:     -0.915D-05 0.284D-03 0.953D-04-0.646D-03-0.306D-02-0.103D-01
 Coeff:     -0.110D-01 0.566D-02 0.135D+00 0.884D+00
 Gap=     0.185 Goal=   None    Shift=    0.000
 RMSDP=1.47D-07 MaxDP=6.34D-06 DE=-9.52D-10 OVMax= 4.87D-06

 Cycle  11  Pass 1  IDiag  1:
 E= -706.431176065963     Delta-E=       -0.000000000028 Rises=F Damp=F
 DIIS: error= 5.48D-08 at cycle  11 NSaved=  11.
 NSaved=11 IEnMin=11 EnMin= -706.431176065963     IErMin=11 ErrMin= 5.48D-08
 ErrMax= 5.48D-08  0.00D+00 EMaxC= 1.00D-01 BMatC= 9.99D-13 BMatP= 9.92D-12
 IDIUse=1 WtCom= 1.00D+00 WtEn= 0.00D+00
 Coeff-Com: -0.273D-05 0.555D-04 0.337D-04 0.261D-05-0.300D-03-0.111D-02
 Coeff-Com: -0.236D-02-0.108D-01-0.151D-01 0.196D+00 0.833D+00
 Coeff:     -0.273D-05 0.555D-04 0.337D-04 0.261D-05-0.300D-03-0.111D-02
 Coeff:     -0.236D-02-0.108D-01-0.151D-01 0.196D+00 0.833D+00
 Gap=     0.185 Goal=   None    Shift=    0.000
 RMSDP=4.22D-08 MaxDP=1.33D-06 DE=-2.79D-11 OVMax= 1.19D-06

 Cycle  12  Pass 1  IDiag  1:
 E= -706.431176065966     Delta-E=       -0.000000000002 Rises=F Damp=F
 DIIS: error= 2.29D-08 at cycle  12 NSaved=  12.
 NSaved=12 IEnMin=12 EnMin= -706.431176065966     IErMin=12 ErrMin= 2.29D-08
 ErrMax= 2.29D-08  0.00D+00 EMaxC= 1.00D-01 BMatC= 2.20D-13 BMatP= 9.99D-13
 IDIUse=1 WtCom= 1.00D+00 WtEn= 0.00D+00
 Coeff-Com: -0.104D-06-0.107D-04 0.228D-05 0.686D-04 0.222D-03 0.737D-03
 Coeff-Com:  0.389D-03-0.529D-02-0.221D-01-0.214D-01 0.349D+00 0.698D+00
 Coeff:     -0.104D-06-0.107D-04 0.228D-05 0.686D-04 0.222D-03 0.737D-03
 Coeff:      0.389D-03-0.529D-02-0.221D-01-0.214D-01 0.349D+00 0.698D+00
 Gap=     0.185 Goal=   None    Shift=    0.000
 RMSDP=1.12D-08 MaxDP=2.42D-07 DE=-2.16D-12 OVMax= 3.81D-07

 Cycle  13  Pass 1  IDiag  1:
 E= -706.431176065965     Delta-E=        0.000000000001 Rises=F Damp=F
 DIIS: error= 6.37D-09 at cycle  13 NSaved=  13.
 NSaved=13 IEnMin=12 EnMin= -706.431176065966     IErMin=13 ErrMin= 6.37D-09
 ErrMax= 6.37D-09  0.00D+00 EMaxC= 1.00D-01 BMatC= 1.37D-14 BMatP= 2.20D-13
 IDIUse=1 WtCom= 1.00D+00 WtEn= 0.00D+00
 Coeff-Com:  0.120D-06-0.741D-05-0.110D-05 0.285D-04 0.108D-03 0.360D-03
 Coeff-Com:  0.300D-03-0.147D-02-0.848D-02-0.217D-01 0.816D-01 0.273D+00
 Coeff-Com:  0.676D+00
 Coeff:      0.120D-06-0.741D-05-0.110D-05 0.285D-04 0.108D-03 0.360D-03
 Coeff:      0.300D-03-0.147D-02-0.848D-02-0.217D-01 0.816D-01 0.273D+00
 Coeff:      0.676D+00
 Gap=     0.185 Goal=   None    Shift=    0.000
 RMSDP=2.82D-09 MaxDP=7.43D-08 DE= 1.02D-12 OVMax= 7.32D-08

 Error on total polarization charges =  0.02255
 SCF Done:  E(RB3LYP) =  -706.431176066     A.U. after   13 cycles
            NFock= 13  Conv=0.28D-08     -V/T= 2.0054
 KE= 7.026100917970D+02 PE=-2.174846309848D+03 EE= 5.176039367848D+02
 SMD-CDS (non-electrostatic) energy       (kcal/mol) =      -0.81
 (included in total energy above)
 Leave Link  502 at Wed Jan  8 01:12:14 2020, MaxMem=  4294967296 cpu:             978.4 elap:             245.8
 (Enter /home/cwagen/sw/g16/g16/l701.exe)
 ... and contract with generalized density number  0.
 Compute integral first derivatives.
 D1PCM: PCM CHGder 1st derivatives, ID1Alg=3 FixD1E=F DoIter=F DoCFld=F I1PDM=0.
 GePol: Maximum number of non-zero 1st derivatives   =     367
 Leave Link  701 at Wed Jan  8 01:12:47 2020, MaxMem=  4294967296 cpu:             131.2 elap:              33.0
 (Enter /home/cwagen/sw/g16/g16/l702.exe)
 L702 exits ... SP integral derivatives will be done elsewhere.
 Leave Link  702 at Wed Jan  8 01:12:47 2020, MaxMem=  4294967296 cpu:               2.7 elap:               0.7
 (Enter /home/cwagen/sw/g16/g16/l703.exe)
 Integral derivatives from FoFJK, PRISM(SPDF).
 Compute integral first derivatives, UseDBF=F ICtDFT=           0.
 Calling FoFJK, ICntrl=      2127 FMM=F ISym2X=0 I1Cent= 0 IOpClX= 0 NMat=1 NMatS=1 NMatT=0.
 FoFJK:  IHMeth= 1 ICntrl=    2127 DoSepK=F KAlg= 0 I1Cent=           0 FoldK=F
 IRaf=         0 NMat=       1 IRICut=       1 DoRegI=T DoRafI=F ISym2E= 0 IDoP0=0 IntGTp=1.
 FoFCou: FMM=F IPFlag=           0 FMFlag=      100000 FMFlg1=         800
         NFxFlg=           0 DoJE=F BraDBF=F KetDBF=F FulRan=T
         wScrn=  0.000000 ICntrl=      2127 IOpCl=  0 I1Cent=           0 NGrid=           0
         NMat0=    1 NMatS0=      1 NMatT0=    0 NMatD0=    1 NMtDS0=    0 NMtDT0=    0
 Symmetry not used in FoFCou.
 Leave Link  703 at Wed Jan  8 01:13:02 2020, MaxMem=  4294967296 cpu:              58.5 elap:              14.7
 (Enter /home/cwagen/sw/g16/g16/l716.exe)
 Dipole        = 1.00737836D+00 1.44457721D+00-1.16763117D+00
 ***** Axes restored to original set *****
 -------------------------------------------------------------------
 Center     Atomic                   Forces (Hartrees/Bohr)
 Number     Number              X              Y              Z
 -------------------------------------------------------------------
      1        6          -0.022573676   -0.069169396   -0.038072865
      2        8          -0.011320985    0.013765359    0.023368287
      3        6          -0.016430569    0.017264541    0.000165579
      4        1           0.000601219    0.000083124   -0.001001933
      5        1           0.002125617    0.001162715   -0.000801605
      6        1           0.002410848   -0.000143696   -0.001033538
      7       17           0.002193120   -0.001817375    0.002308738
      8        6           0.047587707    0.039442319    0.015808888
      9        7          -0.004593281   -0.000587591   -0.000741552
 -------------------------------------------------------------------
 Cartesian Forces:  Max     0.069169396 RMS     0.021340043
 Leave Link  716 at Wed Jan  8 01:13:03 2020, MaxMem=  4294967296 cpu:               2.3 elap:               0.6
 (Enter /home/cwagen/sw/g16/g16/l103.exe)

 GradGradGradGradGradGradGradGradGradGradGradGradGradGradGradGradGradGrad
 Berny optimization.
 Using GEDIIS/GDIIS optimizer.
 FormGI is forming the generalized inverse of G from B-inverse, IUseBI=4.
 Internal  Forces:  Max     0.057122268 RMS     0.013074503
 Search for a local minimum.
 Step number   2 out of a maximum of   41
 All quantities printed in internal units (Hartrees-Bohrs-Radians)
 RMS Force = .83708D-02 SwitMx=.10000D-02 MixMth= 1
 Mixed Optimization -- RFO/linear search
 Update second derivatives using D2CorX and points    1    2
 DE= -2.28D-02 DEPred=-2.37D-02 R= 9.60D-01
 TightC=F SS=  1.41D+00  RLast= 4.08D-01 DXNew= 5.0454D-01 1.2233D+00
 Trust test= 9.60D-01 RLast= 4.08D-01 DXMaxT set to 5.05D-01
 ITU=  1  0
 Use linear search instead of GDIIS.
     Eigenvalues ---    0.00230   0.04701   0.04795   0.05355   0.05905
     Eigenvalues ---    0.07080   0.09571   0.15958   0.16000   0.16302
     Eigenvalues ---    0.24048   0.25000   0.25606   0.30951   0.33995
     Eigenvalues ---    0.34006   0.34488   0.64669   1.218821000.00000
     Eigenvalues --- 1000.000001000.000001000.000001000.000001000.00000
     Eigenvalues --- 1000.000001000.000001000.000001000.000001000.00000
     Eigenvalues --- 1000.00000
 RFO step:  Lambda=-1.06219386D-02 EMin= 2.30201716D-03
 Quartic linear search produced a step of  0.85878.
 Iteration  1 RMS(Cart)=  0.13779630 RMS(Int)=  0.01653934
 Iteration  2 RMS(Cart)=  0.01538671 RMS(Int)=  0.01288610
 Iteration  3 RMS(Cart)=  0.00005279 RMS(Int)=  0.01288605
 Iteration  4 RMS(Cart)=  0.00000178 RMS(Int)=  0.01288605
 Iteration  5 RMS(Cart)=  0.00000005 RMS(Int)=  0.01288605
 Iteration  1 RMS(Cart)=  0.00000000 RMS(Int)=  0.00000000
 ITry= 1 IFail=0 DXMaxC= 3.60D-01 DCOld= 1.00D+10 DXMaxT= 5.05D-01 DXLimC= 3.00D+00 Rises=F
 Variable       Old X    -DE/DX   Delta X   Delta X   Delta X     New X
                                 (Linear)    (Quad)   (Total)
    R1        2.41240  -0.02408  -0.03425  -0.03175  -0.06600   2.34640
    R2        2.94169  -0.01297  -0.00287  -0.08377  -0.08664   2.85505
    R3        4.53534  -0.00205   0.00000   0.00000   0.00000   4.53534
    R4        2.64562   0.05712   0.00000   0.00000   0.00000   2.64562
    R5        2.07024  -0.00080  -0.00264  -0.00158  -0.00422   2.06602
    R6        2.07503  -0.00230   0.00029  -0.01261  -0.01232   2.06271
    R7        2.06557   0.00181  -0.00267   0.01233   0.00966   2.07523
    R8        2.20399  -0.00460  -0.00450  -0.00263  -0.00713   2.19686
    A1        2.04890   0.00818   0.04485   0.03514   0.04349   2.09238
    A2        1.93973  -0.00262  -0.06814  -0.01185  -0.07926   1.86048
    A3        1.94281   0.00177   0.04330   0.10666   0.10834   2.05115
    A4        1.81363  -0.01428  -0.09495  -0.07602  -0.16298   1.65065
    A5        1.94214   0.01179   0.14616  -0.01829   0.09280   2.03494
    A6        1.74855  -0.00906  -0.07406  -0.06615  -0.12351   1.62504
    A7        1.96782  -0.00031  -0.00528   0.00179  -0.00375   1.96407
    A8        1.91621  -0.00085   0.03160  -0.04040  -0.00877   1.90744
    A9        1.86891  -0.00216  -0.02790   0.00382  -0.02423   1.84467
   A10        1.89835   0.00111  -0.00448   0.02201   0.01745   1.91580
   A11        1.91511   0.00076   0.00579  -0.00363   0.00170   1.91681
   A12        1.89622   0.00148   0.00058   0.01660   0.01736   1.91359
   A13        3.03582   0.00189  -0.05623   0.13671   0.08049   3.11631
   A14        3.03484   0.00003   0.09088  -0.12139  -0.03051   3.00433
    D1       -3.11099   0.01021   0.10915   0.08256   0.19769  -2.91330
    D2       -0.99141   0.01082   0.12208   0.08317   0.21121  -0.78020
    D3        1.06418   0.01090   0.12455   0.08341   0.21367   1.27785
    D4       -0.96164   0.00086  -0.02988   0.03018   0.00515  -0.95649
    D5        1.15794   0.00147  -0.01694   0.03079   0.01866   1.17660
    D6       -3.06965   0.00155  -0.01447   0.03104   0.02113  -3.04852
    D7        0.90542  -0.01188  -0.09085  -0.08869  -0.19006   0.71537
    D8        3.02500  -0.01127  -0.07791  -0.08808  -0.17654   2.84846
    D9       -1.20259  -0.01119  -0.07544  -0.08784  -0.17408  -1.37667
         Item               Value     Threshold  Converged?
 Maximum Force            0.024084     0.000450     NO 
 RMS     Force            0.008371     0.000300     NO 
 Maximum Displacement     0.359706     0.001800     NO 
 RMS     Displacement     0.135410     0.001200     NO 
 Predicted change in Energy=-1.140177D-02
 Lowest energy point so far.  Saving SCF results.
 GradGradGradGradGradGradGradGradGradGradGradGradGradGradGradGradGradGrad

 Leave Link  103 at Wed Jan  8 01:14:07 2020, MaxMem=  4294967296 cpu:             253.5 elap:              64.2
 (Enter /home/cwagen/sw/g16/g16/l202.exe)
                          Input orientation:                          
 ---------------------------------------------------------------------
 Center     Atomic      Atomic             Coordinates (Angstroms)
 Number     Number       Type             X           Y           Z
 ---------------------------------------------------------------------
      1          6           0        0.008228   -0.488104   -0.266174
      2          8           0       -0.318514   -0.692223   -1.446555
      3          6           0       -0.400140   -1.468602    0.808283
      4          1           0       -0.255502   -1.070102    1.816032
      5          1           0       -1.447002   -1.743343    0.666681
      6          1           0        0.236227   -2.351558    0.662047
      7         17           0       -1.402660    1.278056    0.540098
      8          6           0        1.181178    0.240862   -0.036399
      9          7           0        2.204415    0.782395    0.069442
 ---------------------------------------------------------------------
                    Distance matrix (angstroms):
                    1          2          3          4          5
     1  C    0.000000
     2  O    1.241662   0.000000
     3  C    1.510827   2.386151   0.000000
     4  H    2.178039   3.285001   1.093289   0.000000
     5  H    2.136243   2.616124   1.091537   1.787157   0.000000
     6  H    2.094287   2.739950   1.098162   1.793211   1.789750
     7  Cl   2.400000   3.000693   2.936171   2.908234   3.024374
     8  C    1.400000   2.260147   2.477160   2.685922   3.367301
     9  N    2.559306   3.292099   3.520878   3.540270   4.479832
                    6          7          8          9
     6  H    0.000000
     7  Cl   3.984334   0.000000
     8  C    2.846296   2.843297   0.000000
     9  N    3.747881   3.671266   1.162530   0.000000
 Stoichiometry    C3H3ClNO(1-)
 Framework group  C1[X(C3H3ClNO)]
 Deg. of freedom    21
 Full point group                 C1      NOp   1
 RotChk:  IX=0 Diff= 2.13D-01
 Largest Abelian subgroup         C1      NOp   1
 Largest concise Abelian subgroup C1      NOp   1
                         Standard orientation:                         
 ---------------------------------------------------------------------
 Center     Atomic      Atomic             Coordinates (Angstroms)
 Number     Number       Type             X           Y           Z
 ---------------------------------------------------------------------
      1          6           0        0.444925    0.527423    0.184225
      2          8           0        0.507021    0.988292    1.335515
      3          6           0        0.188870    1.451123   -0.983598
      4          1           0       -0.068124    0.909365   -1.897782
      5          1           0       -0.614972    2.143296   -0.726329
      6          1           0        1.123146    2.009003   -1.131440
      7         17           0       -1.669338   -0.594561    0.008037
      8          6           0        1.172066   -0.637970   -0.086192
      9          7           0        1.863908   -1.557704   -0.250258
 ---------------------------------------------------------------------
 Rotational constants (GHZ):           3.3356408           2.3247768           1.8287259
 Leave Link  202 at Wed Jan  8 01:14:08 2020, MaxMem=  4294967296 cpu:               4.3 elap:               1.1
 (Enter /home/cwagen/sw/g16/g16/l301.exe)
 Standard basis: 6-31+G(d) (6D, 7F)
 Ernie: Thresh=  0.10000D-02 Tol=  0.10000D-05 Strict=F.
 There are   124 symmetry adapted cartesian basis functions of A   symmetry.
 There are   124 symmetry adapted basis functions of A   symmetry.
   124 basis functions,   228 primitive gaussians,   124 cartesian basis functions
    27 alpha electrons       27 beta electrons
       nuclear repulsion energy       253.2878638908 Hartrees.
 IExCor=  402 DFT=T Ex+Corr=B3LYP ExCW=0 ScaHFX=  0.200000
 ScaDFX=  0.800000  0.720000  1.000000  0.810000 ScalE2=  1.000000  1.000000
 IRadAn=      5 IRanWt=     -1 IRanGd=            0 ICorTp=0 IEmpDi=  4
 NAtoms=    9 NActive=    9 NUniq=    9 SFac= 1.00D+00 NAtFMM=   60 NAOKFM=F Big=F
 Integral buffers will be    131072 words long.
 Raffenetti 2 integral format.
 Two-electron integral symmetry is turned on.
 ------------------------------------------------------------------------------
 Polarizable Continuum Model (PCM)
 =================================
 Model                : PCM.
 Atomic radii         : SMD-Coulomb.
 Polarization charges : Total charges.
 Charge compensation  : None.
 Solution method      : On-the-fly selection.
 Cavity type          : VdW (van der Waals Surface) (Alpha=1.000).
 Cavity algorithm     : GePol (No added spheres)
                        Default sphere list used, NSphG=    9.
                        Lebedev-Laikov grids with approx.  5.0 points / Ang**2.
                        Smoothing algorithm: York/Karplus (Gamma=1.0000).
                        Polarization charges: spherical gaussians, with
                                              point-specific exponents (IZeta= 3).
                        Self-potential: point-specific (ISelfS= 7).
                        Self-field    : sphere-specific E.n sum rule (ISelfD= 2).
 1st derivatives      : Analytical E(r).r(x)/FMM algorithm (CHGder, D1EAlg=3).
                        Cavity 1st derivative terms included.
 Solvent              : TetraHydroFuran, Eps=   7.425700 Eps(inf)=   1.974025
 ------------------------------------------------------------------------------
 Spheres list:
 ISph  on   Nord     Re0    Alpha      Xe            Ye            Ze
    1   C      1    1.8500  1.000      0.444925      0.527423      0.184225
    2   O      2    2.2940  1.000      0.507021      0.988292      1.335515
    3   C      3    1.8500  1.000      0.188870      1.451123     -0.983598
    4   H      4    1.2000  1.000     -0.068124      0.909365     -1.897782
    5   H      5    1.2000  1.000     -0.614972      2.143296     -0.726329
    6   H      6    1.2000  1.000      1.123146      2.009003     -1.131440
    7  Cl      7    2.3800  1.000     -1.669338     -0.594561      0.008037
    8   C      8    1.8500  1.000      1.172066     -0.637970     -0.086192
    9   N      9    1.8900  1.000      1.863908     -1.557704     -0.250258
 ------------------------------------------------------------------------------
 GePol: Number of generator spheres                  =       9
 GePol: Total number of spheres                      =       9
 GePol: Number of exposed spheres                    =       9 (100.00%)
 GePol: Number of points                             =    1140
 GePol: Average weight of points                     =       0.14
 GePol: Minimum weight of points                     =   0.65D-09
 GePol: Maximum weight of points                     =    0.18138
 GePol: Number of points with low weight             =      37
 GePol: Fraction of low-weight points (<1% of avg)   =       3.25%
 GePol: Cavity surface area                          =    155.421 Ang**2
 GePol: Cavity volume                                =    143.470 Ang**3
 ------------------------------------------------------------------------------
 Atomic radii for non-electrostatic terms: SMD-CDS.
 ------------------------------------------------------------------------------
 PCM non-electrostatic energy =        -0.0012770949 Hartrees.
[...]
 (Enter /home/cwagen/sw/g16/g16/l103.exe)

 GradGradGradGradGradGradGradGradGradGradGradGradGradGradGradGradGradGrad
 Berny optimization.
 Using GEDIIS/GDIIS optimizer.
 FormGI is forming the generalized inverse of G from B-inverse, IUseBI=4.
 Internal  Forces:  Max     0.057657945 RMS     0.010722934
 Search for a local minimum.
 Step number   7 out of a maximum of   41
 All quantities printed in internal units (Hartrees-Bohrs-Radians)
 RMS Force = .43404D-04 SwitMx=.10000D-02 MixMth= 2
 Mixed Optimization -- En-DIIS/RFO-DIIS
 Swapping is turned off.
 Update second derivatives using D2CorX and points    2    3    4    5    6
                                                      7
 DE= -2.27D-06 DEPred=-2.23D-06 R= 1.02D+00
 TightC=F SS=  1.41D+00  RLast= 6.67D-03 DXNew= 1.4270D+00 2.0023D-02
 Trust test= 1.02D+00 RLast= 6.67D-03 DXMaxT set to 8.49D-01
 ITU=  1  1  1  1  1  1  0
     Eigenvalues ---    0.00232   0.04681   0.05188   0.05688   0.06052
     Eigenvalues ---    0.06199   0.09204   0.15251   0.16179   0.17118
     Eigenvalues ---    0.23724   0.25018   0.27177   0.32200   0.34046
     Eigenvalues ---    0.34290   0.34511   0.68484   1.218691000.00000
     Eigenvalues --- 1000.000001000.000001000.000001000.000001000.00000
     Eigenvalues --- 1000.000001000.000001000.000001000.000001000.00000
     Eigenvalues --- 1000.00000
 En-DIIS/RFO-DIIS/Sim-DIIS IScMMF=       -3 using points:     7    6    5    4
 RFO step:  Lambda=-3.87491073D-06.
 NNeg= 0 NGDIIS= 4 SimSw=  2.50D-01 Rises=F DC= -2.27D-06 SmlDif=  1.00D-05
 NRisDI= 0 DoIntr=F SqrtH=F CThrHd= 10.0 CDAdj=  3.0
 RMS Error=  0.3130210909D-03 NUsed= 4 OKEnD=F EnDIS=F
 InvSVX:  RCond= 4.96D-06 Info=           0 Equed=N FErr=  1.93D-15 BErr=  5.06D-17
 DidBck=F Rises=F RFO-DIIS coefs:    1.10068   -0.09443   -0.01524    0.00899
 Iteration  1 RMS(Cart)=  0.00047175 RMS(Int)=  0.00000016
 Iteration  2 RMS(Cart)=  0.00000012 RMS(Int)=  0.00000010
 Iteration  1 RMS(Cart)=  0.00000000 RMS(Int)=  0.00000000
 ITry= 1 IFail=0 DXMaxC= 1.26D-03 DCOld= 1.00D+10 DXMaxT= 8.49D-01 DXLimC= 3.00D+00 Rises=F
 Variable       Old X    -DE/DX   Delta X   Delta X   Delta X     New X
                                 (Linear)    (Quad)   (Total)
    R1        2.34936  -0.00008   0.00009  -0.00019  -0.00010   2.34926
    R2        2.87635   0.00000  -0.00004   0.00003  -0.00001   2.87634
    R3        4.53534   0.01549   0.00000   0.00000   0.00000   4.53534
    R4        2.64562   0.05766   0.00000   0.00000   0.00000   2.64562
    R5        2.06395  -0.00002   0.00005  -0.00008  -0.00003   2.06392
    R6        2.06507  -0.00003  -0.00005  -0.00005  -0.00010   2.06497
    R7        2.07880   0.00000  -0.00004   0.00000  -0.00004   2.07877
    R8        2.20080  -0.00003  -0.00002  -0.00001  -0.00003   2.20076
    A1        2.11352  -0.00007  -0.00013  -0.00027  -0.00040   2.11311
    A2        1.88846   0.00011   0.00011   0.00058   0.00069   1.88915
    A3        2.04819   0.00003   0.00005   0.00003   0.00008   2.04827
    A4        1.67224  -0.00012  -0.00003  -0.00039  -0.00042   1.67182
    A5        2.02141   0.00002  -0.00003   0.00009   0.00006   2.02147
    A6        1.55872   0.00006   0.00018   0.00014   0.00033   1.55905
    A7        1.96914   0.00005   0.00016   0.00021   0.00038   1.96951
    A8        1.90732  -0.00005  -0.00012  -0.00033  -0.00046   1.90686
    A9        1.87266  -0.00003  -0.00023   0.00003  -0.00019   1.87247
   A10        1.91746  -0.00001  -0.00010  -0.00021  -0.00031   1.91715
   A11        1.89982   0.00000   0.00016   0.00010   0.00026   1.90008
   A12        1.89568   0.00004   0.00013   0.00021   0.00034   1.89602
   A13        3.06260  -0.00001  -0.00002  -0.00001  -0.00002   3.06258
   A14        2.98692   0.00003  -0.00029   0.00091   0.00062   2.98754
    D1       -2.94273   0.00000  -0.00009   0.00021   0.00012  -2.94261
    D2       -0.80416  -0.00002  -0.00019  -0.00016  -0.00035  -0.80452
    D3        1.24813  -0.00002  -0.00023  -0.00006  -0.00030   1.24784
    D4       -0.92960   0.00002  -0.00003   0.00054   0.00051  -0.92909
    D5        1.20896  -0.00001  -0.00013   0.00017   0.00004   1.20900
    D6       -3.02193   0.00000  -0.00017   0.00026   0.00009  -3.02184
    D7        0.67697   0.00002   0.00016   0.00052   0.00067   0.67764
    D8        2.81553   0.00000   0.00005   0.00015   0.00020   2.81573
    D9       -1.41536   0.00001   0.00002   0.00024   0.00026  -1.41510
         Item               Value     Threshold  Converged?
 Maximum Force            0.000122     0.000450     YES
 RMS     Force            0.000043     0.000300     YES
 Maximum Displacement     0.001259     0.001800     YES
 RMS     Displacement     0.000472     0.001200     YES
 Predicted change in Energy=-1.552701D-07
 Optimization completed.
    -- Stationary point found.
                           ----------------------------
                           !   Optimized Parameters   !
                           ! (Angstroms and Degrees)  !
 --------------------------                            --------------------------
 ! Name  Definition              Value          Derivative Info.                !
 --------------------------------------------------------------------------------
 ! R1    R(1,2)                  1.2432         -DE/DX =   -0.0001              !
 ! R2    R(1,3)                  1.5221         -DE/DX =    0.0                 !
 ! R3    R(1,7)                  2.4            -DE/DX =    0.0155              !
 ! R4    R(1,8)                  1.4            -DE/DX =    0.0577              !
 ! R5    R(3,4)                  1.0922         -DE/DX =    0.0                 !
 ! R6    R(3,5)                  1.0928         -DE/DX =    0.0                 !
 ! R7    R(3,6)                  1.1001         -DE/DX =    0.0                 !
 ! R8    R(8,9)                  1.1646         -DE/DX =    0.0                 !
 ! A1    A(2,1,3)              121.0955         -DE/DX =   -0.0001              !
 ! A2    A(2,1,7)              108.201          -DE/DX =    0.0001              !
 ! A3    A(2,1,8)              117.3527         -DE/DX =    0.0                 !
 ! A4    A(3,1,7)               95.8121         -DE/DX =   -0.0001              !
 ! A5    A(3,1,8)              115.8183         -DE/DX =    0.0                 !
 ! A6    A(7,1,8)               89.3082         -DE/DX =    0.0001              !
 ! A7    A(1,3,4)              112.8232         -DE/DX =    0.0                 !
 ! A8    A(1,3,5)              109.2814         -DE/DX =   -0.0001              !
 ! A9    A(1,3,6)              107.2955         -DE/DX =    0.0                 !
 ! A10   A(4,3,5)              109.8623         -DE/DX =    0.0                 !
 ! A11   A(4,3,6)              108.8516         -DE/DX =    0.0                 !
 ! A12   A(5,3,6)              108.6144         -DE/DX =    0.0                 !
 ! A13   L(1,8,9,6,-1)         175.4743         -DE/DX =    0.0                 !
 ! A14   L(1,8,9,6,-2)         171.138          -DE/DX =    0.0                 !
 ! D1    D(2,1,3,4)           -168.6057         -DE/DX =    0.0                 !
 ! D2    D(2,1,3,5)            -46.0752         -DE/DX =    0.0                 !
 ! D3    D(2,1,3,6)             71.5128         -DE/DX =    0.0                 !
 ! D4    D(7,1,3,4)            -53.2623         -DE/DX =    0.0                 !
 ! D5    D(7,1,3,5)             69.2683         -DE/DX =    0.0                 !
 ! D6    D(7,1,3,6)           -173.1437         -DE/DX =    0.0                 !
 ! D7    D(8,1,3,4)             38.7873         -DE/DX =    0.0                 !
 ! D8    D(8,1,3,5)            161.3179         -DE/DX =    0.0                 !
 ! D9    D(8,1,3,6)            -81.0941         -DE/DX =    0.0                 !
 --------------------------------------------------------------------------------
 Lowest energy point so far.  Saving SCF results.
 Largest change from initial coordinates is atom    6       0.220 Angstoms.
 GradGradGradGradGradGradGradGradGradGradGradGradGradGradGradGradGradGrad

 Leave Link  103 at Wed Jan  8 01:43:46 2020, MaxMem=  4294967296 cpu:             167.4 elap:              42.5
 (Enter /home/cwagen/sw/g16/g16/l202.exe)
                          Input orientation:                          
 ---------------------------------------------------------------------
 Center     Atomic      Atomic             Coordinates (Angstroms)
 Number     Number       Type             X           Y           Z
 ---------------------------------------------------------------------
      1          6           0       -0.006646   -0.492859   -0.285197
      2          8           0       -0.312667   -0.697869   -1.472606
      3          6           0       -0.394683   -1.478300    0.808017
      4          1           0       -0.238398   -1.079587    1.812752
      5          1           0       -1.441632   -1.764496    0.680833
      6          1           0        0.232080   -2.373120    0.679232
      7         17           0       -1.350447    1.319483    0.533106
      8          6           0        1.141392    0.269711   -0.039239
      9          7           0        2.177230    0.784417    0.096556
 ---------------------------------------------------------------------
                    Distance matrix (angstroms):
                    1          2          3          4          5
     1  C    0.000000
     2  O    1.243230   0.000000
     3  C    1.522098   2.411854   0.000000
     4  H    2.190742   3.308294   1.092195   0.000000
     5  H    2.146966   2.655101   1.092789   1.788327   0.000000
     6  H    2.126616   2.780940   1.100055   1.783100   1.780937
     7  Cl   2.400000   3.028131   2.969284   2.937632   3.088861
     8  C    1.400000   2.259434   2.476471   2.674752   3.365787
     9  N    2.558610   3.295305   3.498686   3.500729   4.464807
                    6          7          8          9
     6  H    0.000000
     7  Cl   4.020082   0.000000
     8  C    2.885759   2.763849   0.000000
     9  N    3.754086   3.594631   1.164613   0.000000
 Stoichiometry    C3H3ClNO(1-)
 Framework group  C1[X(C3H3ClNO)]
 Deg. of freedom    21
 Full point group                 C1      NOp   1
 RotChk:  IX=0 Diff= 1.63D-15
 Largest Abelian subgroup         C1      NOp   1
 Largest concise Abelian subgroup C1      NOp   1
                         Standard orientation:                         
 ---------------------------------------------------------------------
 Center     Atomic      Atomic             Coordinates (Angstroms)
 Number     Number       Type             X           Y           Z
 ---------------------------------------------------------------------
      1          6           0        0.481179    0.515972    0.195140
      2          8           0        0.602476    0.969640    1.346266
      3          6           0        0.324669    1.442291   -1.002450
      4          1           0        0.032314    0.913070   -1.912034
      5          1           0       -0.413271    2.213477   -0.768134
      6          1           0        1.297814    1.926952   -1.170415
      7         17           0       -1.690399   -0.489082    0.010440
      8          6           0        1.061751   -0.730151   -0.069650
      9          7           0        1.684931   -1.694983   -0.262181
 ---------------------------------------------------------------------
 Rotational constants (GHZ):           3.2513160           2.3799130           1.8521082
 Leave Link  202 at Wed Jan  8 01:43:48 2020, MaxMem=  4294967296 cpu:               5.8 elap:               1.5
 (Enter /home/cwagen/sw/g16/g16/l601.exe)
 Copying SCF densities to generalized density rwf, IOpCl= 0 IROHF=0.

 **********************************************************************

            Population analysis using the SCF density.

 **********************************************************************

 Orbital symmetries:
       Occupied  (A) (A) (A) (A) (A) (A) (A) (A) (A) (A) (A) (A)
                 (A) (A) (A) (A) (A) (A) (A) (A) (A) (A) (A) (A)
                 (A) (A) (A)
       Virtual   (A) (A) (A) (A) (A) (A) (A) (A) (A) (A) (A) (A)
                 (A) (A) (A) (A) (A) (A) (A) (A) (A) (A) (A) (A)
                 (A) (A) (A) (A) (A) (A) (A) (A) (A) (A) (A) (A)
                 (A) (A) (A) (A) (A) (A) (A) (A) (A) (A) (A) (A)
                 (A) (A) (A) (A) (A) (A) (A) (A) (A) (A) (A) (A)
                 (A) (A) (A) (A) (A) (A) (A) (A) (A) (A) (A) (A)
                 (A) (A) (A) (A) (A) (A) (A) (A) (A) (A) (A) (A)
                 (A) (A) (A) (A) (A) (A) (A) (A) (A) (A) (A) (A)
                 (A)
 The electronic state is 1-A.
 Alpha  occ. eigenvalues -- -101.43794 -19.11802 -14.33513 -10.28605 -10.22451
 Alpha  occ. eigenvalues --  -10.16916  -9.35301  -7.11250  -7.10974  -7.10958
 Alpha  occ. eigenvalues --   -1.01737  -0.90043  -0.74761  -0.69415  -0.64606
 Alpha  occ. eigenvalues --   -0.46544  -0.43143  -0.42545  -0.38404  -0.36769
 Alpha  occ. eigenvalues --   -0.36324  -0.32799  -0.31651  -0.24451  -0.23499
 Alpha  occ. eigenvalues --   -0.23128  -0.22742
 Alpha virt. eigenvalues --   -0.03845   0.02569   0.03242   0.04784   0.05861
 Alpha virt. eigenvalues --    0.07060   0.08019   0.08939   0.09637   0.10417
 Alpha virt. eigenvalues --    0.10643   0.11723   0.13134   0.13782   0.14414
 Alpha virt. eigenvalues --    0.14613   0.16803   0.17564   0.20438   0.21869
 Alpha virt. eigenvalues --    0.25033   0.25343   0.26043   0.26670   0.28575
 Alpha virt. eigenvalues --    0.29298   0.30464   0.32201   0.34803   0.36348
 Alpha virt. eigenvalues --    0.40035   0.41603   0.46088   0.61254   0.63764
 Alpha virt. eigenvalues --    0.65226   0.68025   0.69247   0.70641   0.72436
 Alpha virt. eigenvalues --    0.73928   0.77060   0.79004   0.80265   0.84812
 Alpha virt. eigenvalues --    0.86269   0.88234   0.94577   0.97034   0.97853
 Alpha virt. eigenvalues --    0.99041   1.00586   1.02198   1.03441   1.05583
 Alpha virt. eigenvalues --    1.07190   1.10714   1.15276   1.17795   1.28804
 Alpha virt. eigenvalues --    1.33021   1.35323   1.37566   1.43322   1.44600
 Alpha virt. eigenvalues --    1.47433   1.54873   1.57205   1.66604   1.69769
 Alpha virt. eigenvalues --    1.74045   1.83515   1.84425   1.88779   1.96242
 Alpha virt. eigenvalues --    1.97478   1.99459   2.04233   2.09195   2.25944
 Alpha virt. eigenvalues --    2.26920   2.31808   2.33832   2.45315   2.60513
 Alpha virt. eigenvalues --    2.73819   2.88529   2.93639   3.03875   3.14767
 Alpha virt. eigenvalues --    3.33964   4.18446   4.26492   4.36696   4.38373
 Alpha virt. eigenvalues --    4.43641   4.76894
          Condensed to atoms (all electrons):
               1          2          3          4          5          6
     1  C    7.040672   0.665083   0.213459  -0.123163  -0.081894   0.013420
     2  O    0.665083   8.253777  -0.173434   0.009343  -0.000147  -0.005843
     3  C    0.213459  -0.173434   5.890882   0.388340   0.399655   0.348389
     4  H   -0.123163   0.009343   0.388340   0.478295  -0.021821  -0.027569
     5  H   -0.081894  -0.000147   0.399655  -0.021821   0.460035  -0.024700
     6  H    0.013420  -0.005843   0.348389  -0.027569  -0.024700   0.488871
     7  Cl   0.144414  -0.081022  -0.138179   0.002707  -0.007292   0.006287
     8  C   -1.906194  -0.207665  -0.295403   0.057441   0.029333  -0.032953
     9  N   -0.054312  -0.016289  -0.029649   0.001353   0.000127  -0.001300
               7          8          9
     1  C    0.144414  -1.906194  -0.054312
     2  O   -0.081022  -0.207665  -0.016289
     3  C   -0.138179  -0.295403  -0.029649
     4  H    0.002707   0.057441   0.001353
     5  H   -0.007292   0.029333   0.000127
     6  H    0.006287  -0.032953  -0.001300
     7  Cl  17.802518  -0.053021  -0.023201
     8  C   -0.053021   7.419262   0.485656
     9  N   -0.023201   0.485656   7.245772
 Mulliken charges:
               1
     1  C    0.088515
     2  O   -0.443804
     3  C   -0.604060
     4  H    0.235072
     5  H    0.246704
     6  H    0.235398
     7  Cl  -0.653212
     8  C    0.503543
     9  N   -0.608157
 Sum of Mulliken charges =  -1.00000
 Mulliken charges with hydrogens summed into heavy atoms:
               1
     1  C    0.088515
     2  O   -0.443804
     3  C    0.113115
     7  Cl  -0.653212
     8  C    0.503543
     9  N   -0.608157
 Electronic spatial extent (au):  <R**2>=            720.4799
 Charge=             -1.0000 electrons
 Dipole moment (field-independent basis, Debye):
    X=              2.7871    Y=              4.0117    Z=             -3.0916  Tot=              5.7810
 Quadrupole moment (field-independent basis, Debye-Ang):
   XX=            -61.7306   YY=            -53.9069   ZZ=            -49.8428
   XY=              2.2088   XZ=             -1.1256   YZ=             -5.2074
 Traceless Quadrupole moment (field-independent basis, Debye-Ang):
   XX=             -6.5705   YY=              1.2532   ZZ=              5.3173
   XY=              2.2088   XZ=             -1.1256   YZ=             -5.2074
 Octapole moment (field-independent basis, Debye-Ang**2):
  XXX=             13.1986  YYY=             21.2759  ZZZ=             -5.5670  XYY=            -10.4849
  XXY=             20.1629  XXZ=              1.3471  XZZ=             -1.2214  YZZ=             -1.6320
  YYZ=             -1.4982  XYZ=             -4.5975
 Hexadecapole moment (field-independent basis, Debye-Ang**3):
 XXXX=           -550.7960 YYYY=           -384.6096 ZZZZ=           -191.7955 XXXY=             20.2080
 XXXZ=              4.3033 YYYX=             23.9567 YYYZ=             -9.5470 ZZZX=             -1.7050
 ZZZY=             -4.9141 XXYY=           -168.2918 XXZZ=           -118.2025 YYZZ=            -96.9385
 XXYZ=             -5.9490 YYXZ=              2.1234 ZZXY=             -1.3197
 N-N= 2.533411221308D+02 E-N=-2.185422410828D+03  KE= 7.028009719315D+02
 No NMR shielding tensors so no spin-rotation constants.
 Leave Link  601 at Wed Jan  8 01:43:57 2020, MaxMem=  4294967296 cpu:              38.5 elap:               9.7
 (Enter /home/cwagen/sw/g16/g16/l9999.exe)
 1\1\GINC-NODE013\FOpt\RB3LYP\6-31+G(d)\C3H3Cl1N1O1(1-)\CWAGEN\08-Jan-2
 020\0\\#p opt=modredundant b3lyp/6-31+g(d) scrf=(smd, solvent=tetrahyd
 rofuran)\\title\\-1,1\C,-0.0066461272,-0.4928585083,-0.2851967879\O,-0
 .3126670437,-0.6978692721,-1.4726064637\C,-0.3946827313,-1.478299705,0
 .8080169257\H,-0.2383982214,-1.0795865897,1.8127523339\H,-1.4416321589
 ,-1.7644961505,0.6808334993\H,0.2320801192,-2.3731200075,0.6792323092\
 Cl,-1.3504468982,1.3194826027,0.533105834\C,1.1413921342,0.2697113805,
 -0.0392388136\N,2.1772300673,0.78441743,0.0965561531\\Version=AS64L-G1
 6RevA.03\State=1-A\HF=-706.4418579\RMSD=8.667e-09\RMSF=1.628e-02\Dipol
 e=0.3729006,-2.1201678,0.7340787\Quadrupole=-5.0233742,2.7442928,2.279
 0814,0.9178651,0.5236416,-4.297637\PG=C01 [X(C3H3Cl1N1O1)]\\@


 10 WHATSOEVER THY HAND FINDETH TO DO, DO IT WITH THY  
 MIGHT. FOR THERE IS NO WORK, NOR DEVICE, NOR KNOWLEDGE, NOR  
 WISDOM, IN THE GRAVE, WHITHER THOU GOEST.                    
 11 I RETURNED AND SAW UNDER THE SUN, THAT THE RACE IS NOT TO 
 THE SWIFT, NOR THE BATTLE TO THE STRONG, NEITHER YET BREAD TO
 THE WISE, NOR YET RICHES TO MEN OF UNDERSTANDING, NOR YET    
 FAVOR TO MEN OF SKILL. BUT TIME AND CHANCE HAPPEN TO THEM ALL.
 12 FOR MAN ALSO KNOWETH NOT HIS TIME. AS THE FISHES   
 THAT ARE TAKEN IN AN EVIL NET, AND AS THE BIRDS THAT ARE     
 CAUGHT IN THE SNARE. SO ARE THE SONS OF MEN SNARED IN AN EVIL
 TIME, WHEN IT FALLETH SUDDENLY UPON THEM.
                                         ECCLESIASTES 9
 Job cpu time:       0 days  2 hours 52 minutes  2.4 seconds.
 Elapsed time:       0 days  0 hours 43 minutes 19.0 seconds.
 File lengths (MBytes):  RWF=     34 Int=      0 D2E=      0 Chk=      3 Scr=      1
 Normal termination of Gaussian 16 at Wed Jan  8 01:43:59 2020.
