 Entering Gaussian System, Link 0=g16
 Input=scan_290_180.gjf
 Output=scan_290_180.out
 Initial command:
 /home/cwagen/sw/g16/g16/l1.exe "/scratch/users/cwagen/cwagen_scan_290_180/Gau-14518.inp" -scrdir="/scratch/users/cwagen/cwagen_scan_290_180/"
 Entering Link 1 = /home/cwagen/sw/g16/g16/l1.exe PID=     14519.
  
 Copyright (c) 1988,1990,1992,1993,1995,1998,2003,2009,2016,
            Gaussian, Inc.  All Rights Reserved.
  
 This is part of the Gaussian(R) 16 program.  It is based on
 the Gaussian(R) 09 system (copyright 2009, Gaussian, Inc.),
 the Gaussian(R) 03 system (copyright 2003, Gaussian, Inc.),
 the Gaussian(R) 98 system (copyright 1998, Gaussian, Inc.),
 the Gaussian(R) 94 system (copyright 1995, Gaussian, Inc.),
 the Gaussian 92(TM) system (copyright 1992, Gaussian, Inc.),
 the Gaussian 90(TM) system (copyright 1990, Gaussian, Inc.),
 the Gaussian 88(TM) system (copyright 1988, Gaussian, Inc.),
 the Gaussian 86(TM) system (copyright 1986, Carnegie Mellon
 University), and the Gaussian 82(TM) system (copyright 1983,
 Carnegie Mellon University). Gaussian is a federally registered
 trademark of Gaussian, Inc.
  
 This software contains proprietary and confidential information,
 including trade secrets, belonging to Gaussian, Inc.
  
 This software is provided under written license and may be
 used, copied, transmitted, or stored only in accord with that
 written license.
  
 The following legend is applicable only to US Government
 contracts under FAR:
  
                    RESTRICTED RIGHTS LEGEND
  
 Use, reproduction and disclosure by the US Government is
 subject to restrictions as set forth in subparagraphs (a)
 and (c) of the Commercial Computer Software - Restricted
 Rights clause in FAR 52.227-19.
  
 Gaussian, Inc.
 340 Quinnipiac St., Bldg. 40, Wallingford CT 06492
  
  
 ---------------------------------------------------------------
 Warning -- This program may not be used in any manner that
 competes with the business of Gaussian, Inc. or will provide
 assistance to any competitor of Gaussian, Inc.  The licensee
 of this program is prohibited from giving any competitor of
 Gaussian, Inc. access to this program.  By using this program,
 the user acknowledges that Gaussian, Inc. is engaged in the
 business of creating and licensing software in the field of
 computational chemistry and represents and warrants to the
 licensee that it is not a competitor of Gaussian, Inc. and that
 it will not use this program in any manner prohibited above.
 ---------------------------------------------------------------
  

 Cite this work as:
 Gaussian 16, Revision A.03,
 M. J. Frisch, G. W. Trucks, H. B. Schlegel, G. E. Scuseria, 
 M. A. Robb, J. R. Cheeseman, G. Scalmani, V. Barone, 
 G. A. Petersson, H. Nakatsuji, X. Li, M. Caricato, A. V. Marenich, 
 J. Bloino, B. G. Janesko, R. Gomperts, B. Mennucci, H. P. Hratchian, 
 J. V. Ortiz, A. F. Izmaylov, J. L. Sonnenberg, D. Williams-Young, 
 F. Ding, F. Lipparini, F. Egidi, J. Goings, B. Peng, A. Petrone, 
 T. Henderson, D. Ranasinghe, V. G. Zakrzewski, J. Gao, N. Rega, 
 G. Zheng, W. Liang, M. Hada, M. Ehara, K. Toyota, R. Fukuda, 
 J. Hasegawa, M. Ishida, T. Nakajima, Y. Honda, O. Kitao, H. Nakai, 
 T. Vreven, K. Throssell, J. A. Montgomery, Jr., J. E. Peralta, 
 F. Ogliaro, M. J. Bearpark, J. J. Heyd, E. N. Brothers, K. N. Kudin, 
 V. N. Staroverov, T. A. Keith, R. Kobayashi, J. Normand, 
 K. Raghavachari, A. P. Rendell, J. C. Burant, S. S. Iyengar, 
 J. Tomasi, M. Cossi, J. M. Millam, M. Klene, C. Adamo, R. Cammi, 
 J. W. Ochterski, R. L. Martin, K. Morokuma, O. Farkas, 
 J. B. Foresman, and D. J. Fox, Gaussian, Inc., Wallingford CT, 2016.
 
 ******************************************
 Gaussian 16:  AS64L-G16RevA.03 25-Dec-2016
                 8-Jan-2020 
 ******************************************
 %nprocshared=16
 Will use up to   16 processors via shared memory.
 %mem=32GB
 ----------------------------------------------------------------------
 #p opt=modredundant b3lyp/6-31+g(d) scrf=(smd, solvent=tetrahydrofuran
 )
 ----------------------------------------------------------------------
 1/18=120,19=15,26=3,38=1/1,3;
 2/9=110,12=2,17=6,18=5,40=1/2;
 3/5=1,6=6,7=11,11=2,25=1,30=1,70=32201,71=1,72=20,74=-5/1,2,3;
 4//1;
 5/5=2,38=5,53=20/2;
 6/7=2,8=2,9=2,10=2,28=1/1;
 7//1,2,3,16;
 1/18=20,19=15,26=3/3(2);
 2/9=110/2;
 99//99;
 2/9=110/2;
 3/5=1,6=6,7=11,11=2,25=1,30=1,70=32205,71=1,72=20,74=-5/1,2,3;
 4/5=5,16=3,69=1/1;
 5/5=2,38=5,53=20/2;
 7//1,2,3,16;
 1/18=20,19=15,26=3/3(-5);
 2/9=110/2;
 6/7=2,8=2,9=2,10=2,19=2,28=1/1;
 99/9=1/99;
 Leave Link    1 at Wed Jan  8 02:02:09 2020, MaxMem=  4294967296 cpu:               1.7 elap:               0.1
 (Enter /home/cwagen/sw/g16/g16/l101.exe)
 -----
 title
 -----
 Symbolic Z-matrix:
 Charge = -1 Multiplicity = 1
 6                    -0.19426  -0.292    -0.21291 
 8                    -0.25532  -0.66526  -1.45426 
 6                    -0.33095  -1.45422   0.81632 
 1                    -0.18039  -1.13044   1.85373 
 1                    -1.34067  -1.87301   0.71427 
 1                     0.39707  -2.23395   0.57058 
 17                   -1.93061   1.9107    0.52413 
 6                     1.47456   0.29238   0.12406 
 7                     2.60913   0.57268   0.15436 
 
 Add virtual bond connecting atoms Cl7        and C1         Dist= 5.48D+00.
 The following ModRedundant input section has been read:
 B       1       7 F                                                           
 B       1       8 F                                                           
 
 ITRead=  0  0  0  0  0  0  0  0  0
 MicOpt= -1 -1 -1 -1 -1 -1 -1 -1 -1
 NAtoms=      9 NQM=        9 NQMF=       0 NMMI=      0 NMMIF=      0
                NMic=       0 NMicF=      0.
                    Isotopes and Nuclear Properties:
 (Nuclear quadrupole moments (NQMom) in fm**2, nuclear magnetic moments (NMagM)
  in nuclear magnetons)

  Atom         1           2           3           4           5           6           7           8           9
 IAtWgt=          12          16          12           1           1           1          35          12          14
 AtmWgt=  12.0000000  15.9949146  12.0000000   1.0078250   1.0078250   1.0078250  34.9688527  12.0000000  14.0030740
 NucSpn=           0           0           0           1           1           1           3           0           2
 AtZEff=   0.0000000   0.0000000   0.0000000   0.0000000   0.0000000   0.0000000   0.0000000   0.0000000   0.0000000
 NQMom=    0.0000000   0.0000000   0.0000000   0.0000000   0.0000000   0.0000000  -8.1650000   0.0000000   2.0440000
 NMagM=    0.0000000   0.0000000   0.0000000   2.7928460   2.7928460   2.7928460   0.8218740   0.0000000   0.4037610
 AtZNuc=   6.0000000   8.0000000   6.0000000   1.0000000   1.0000000   1.0000000  17.0000000   6.0000000   7.0000000
 Leave Link  101 at Wed Jan  8 02:02:09 2020, MaxMem=  4294967296 cpu:               6.6 elap:               0.6
 (Enter /home/cwagen/sw/g16/g16/l103.exe)

 GradGradGradGradGradGradGradGradGradGradGradGradGradGradGradGradGradGrad
 Berny optimization.
 Initialization pass.
                           ----------------------------
                           !    Initial Parameters    !
                           ! (Angstroms and Degrees)  !
 --------------------------                            --------------------------
 ! Name  Definition              Value          Derivative Info.                !
 --------------------------------------------------------------------------------
 ! R1    R(1,2)                  1.2977         estimate D2E/DX2                !
 ! R2    R(1,3)                  1.5584         estimate D2E/DX2                !
 ! R3    R(1,7)                  2.9            Frozen                          !
 ! R4    R(1,8)                  1.8            Frozen                          !
 ! R5    R(3,4)                  1.0971         estimate D2E/DX2                !
 ! R6    R(3,5)                  1.0979         estimate D2E/DX2                !
 ! R7    R(3,6)                  1.0947         estimate D2E/DX2                !
 ! R8    R(8,9)                  1.1691         estimate D2E/DX2                !
 ! A1    A(2,1,3)              114.4006         estimate D2E/DX2                !
 ! A2    A(2,1,7)              115.6846         estimate D2E/DX2                !
 ! A3    A(2,1,8)              108.426          estimate D2E/DX2                !
 ! A4    A(3,1,7)              110.248          estimate D2E/DX2                !
 ! A5    A(3,1,8)              101.5248         estimate D2E/DX2                !
 ! A6    A(7,1,8)              105.1256         estimate D2E/DX2                !
 ! A7    A(1,3,4)              113.1005         estimate D2E/DX2                !
 ! A8    A(1,3,5)              107.683          estimate D2E/DX2                !
 ! A9    A(1,3,6)              108.9421         estimate D2E/DX2                !
 ! A10   A(4,3,5)              109.0662         estimate D2E/DX2                !
 ! A11   A(4,3,6)              109.3417         estimate D2E/DX2                !
 ! A12   A(5,3,6)              108.6067         estimate D2E/DX2                !
 ! A13   L(1,8,9,6,-1)         177.5203         estimate D2E/DX2                !
 ! A14   L(1,8,9,6,-2)         166.8283         estimate D2E/DX2                !
 ! D1    D(2,1,3,4)            174.4714         estimate D2E/DX2                !
 ! D2    D(2,1,3,5)            -64.9488         estimate D2E/DX2                !
 ! D3    D(2,1,3,6)             52.6633         estimate D2E/DX2                !
 ! D4    D(7,1,3,4)            -53.1046         estimate D2E/DX2                !
 ! D5    D(7,1,3,5)             67.4752         estimate D2E/DX2                !
 ! D6    D(7,1,3,6)           -174.9127         estimate D2E/DX2                !
 ! D7    D(8,1,3,4)             57.938          estimate D2E/DX2                !
 ! D8    D(8,1,3,5)            178.5177         estimate D2E/DX2                !
 ! D9    D(8,1,3,6)            -63.8702         estimate D2E/DX2                !
 --------------------------------------------------------------------------------
 Trust Radius=3.00D-01 FncErr=1.00D-07 GrdErr=1.00D-06 EigMax=2.50D+02 EigMin=1.00D-04
 Number of steps in this run=     41 maximum allowed number of steps=    100.
 GradGradGradGradGradGradGradGradGradGradGradGradGradGradGradGradGradGrad

 Leave Link  103 at Wed Jan  8 02:02:10 2020, MaxMem=  4294967296 cpu:               0.8 elap:               0.1
 (Enter /home/cwagen/sw/g16/g16/l202.exe)
                          Input orientation:                          
 ---------------------------------------------------------------------
 Center     Atomic      Atomic             Coordinates (Angstroms)
 Number     Number       Type             X           Y           Z
 ---------------------------------------------------------------------
      1          6           0       -0.194263   -0.291999   -0.212908
      2          8           0       -0.255321   -0.665256   -1.454255
      3          6           0       -0.330945   -1.454221    0.816316
      4          1           0       -0.180394   -1.130438    1.853734
      5          1           0       -1.340665   -1.873010    0.714272
      6          1           0        0.397068   -2.233949    0.570583
      7         17           0       -1.930607    1.910701    0.524130
      8          6           0        1.474556    0.292377    0.124059
      9          7           0        2.609127    0.572675    0.154362
 ---------------------------------------------------------------------
                    Distance matrix (angstroms):
                    1          2          3          4          5
     1  C    0.000000
     2  O    1.297687   0.000000
     3  C    1.558443   2.404928   0.000000
     4  H    2.230287   3.341377   1.097150   0.000000
     5  H    2.161827   2.709087   1.097876   1.787740   0.000000
     6  H    2.175937   2.643176   1.094698   1.788205   1.780629
     7  Cl   2.900000   3.654606   3.737243   3.752281   3.834143
     8  C    1.800000   2.529943   2.605697   2.784787   3.600378
     9  N    2.956610   3.510724   3.631875   3.683733   4.679288
                    6          7          8          9
     6  H    0.000000
     7  Cl   4.753772   0.000000
     8  C    2.782569   3.791327   0.000000
     9  N    3.597719   4.747233   1.169075   0.000000
 Stoichiometry    C3H3ClNO(1-)
 Framework group  C1[X(C3H3ClNO)]
 Deg. of freedom    21
 Full point group                 C1      NOp   1
 Largest Abelian subgroup         C1      NOp   1
 Largest concise Abelian subgroup C1      NOp   1
                         Standard orientation:                         
 ---------------------------------------------------------------------
 Center     Atomic      Atomic             Coordinates (Angstroms)
 Number     Number       Type             X           Y           Z
 ---------------------------------------------------------------------
      1          6           0        0.395932    0.534486    0.208713
      2          8           0        0.705814    1.030838    1.366987
      3          6           0        0.759523    1.447240   -1.001008
      4          1           0        0.577759    0.968568   -1.971354
      5          1           0        0.147435    2.355812   -0.929054
      6          1           0        1.814525    1.730152   -0.928246
      7         17           0       -2.321463   -0.443854   -0.053232
      8          6           0        1.442292   -0.898385   -0.094626
      9          7           0        2.241736   -1.750824   -0.125825
 ---------------------------------------------------------------------
 Rotational constants (GHZ):           3.1077897           1.4360217           1.2064118
 Leave Link  202 at Wed Jan  8 02:02:10 2020, MaxMem=  4294967296 cpu:               1.9 elap:               0.2
 (Enter /home/cwagen/sw/g16/g16/l301.exe)
 Standard basis: 6-31+G(d) (6D, 7F)
 Ernie: Thresh=  0.10000D-02 Tol=  0.10000D-05 Strict=F.
 There are   124 symmetry adapted cartesian basis functions of A   symmetry.
 There are   124 symmetry adapted basis functions of A   symmetry.
   124 basis functions,   228 primitive gaussians,   124 cartesian basis functions
    27 alpha electrons       27 beta electrons
       nuclear repulsion energy       222.6165208251 Hartrees.
 IExCor=  402 DFT=T Ex+Corr=B3LYP ExCW=0 ScaHFX=  0.200000
 ScaDFX=  0.800000  0.720000  1.000000  0.810000 ScalE2=  1.000000  1.000000
 IRadAn=      5 IRanWt=     -1 IRanGd=            0 ICorTp=0 IEmpDi=  4
 NAtoms=    9 NActive=    9 NUniq=    9 SFac= 1.00D+00 NAtFMM=   60 NAOKFM=F Big=F
 Integral buffers will be    131072 words long.
 Raffenetti 2 integral format.
 Two-electron integral symmetry is turned on.
 ------------------------------------------------------------------------------
 Polarizable Continuum Model (PCM)
 =================================
 Model                : PCM.
 Atomic radii         : SMD-Coulomb.
 Polarization charges : Total charges.
 Charge compensation  : None.
 Solution method      : On-the-fly selection.
 Cavity type          : VdW (van der Waals Surface) (Alpha=1.000).
 Cavity algorithm     : GePol (No added spheres)
                        Default sphere list used, NSphG=    9.
                        Lebedev-Laikov grids with approx.  5.0 points / Ang**2.
                        Smoothing algorithm: York/Karplus (Gamma=1.0000).
                        Polarization charges: spherical gaussians, with
                                              point-specific exponents (IZeta= 3).
                        Self-potential: point-specific (ISelfS= 7).
                        Self-field    : sphere-specific E.n sum rule (ISelfD= 2).
 1st derivatives      : Analytical E(r).r(x)/FMM algorithm (CHGder, D1EAlg=3).
                        Cavity 1st derivative terms included.
 Solvent              : TetraHydroFuran, Eps=   7.425700 Eps(inf)=   1.974025
 ------------------------------------------------------------------------------
 Spheres list:
 ISph  on   Nord     Re0    Alpha      Xe            Ye            Ze
    1   C      1    1.8500  1.000      0.395932      0.534486      0.208713
    2   O      2    2.2940  1.000      0.705814      1.030838      1.366987
    3   C      3    1.8500  1.000      0.759523      1.447240     -1.001008
    4   H      4    1.2000  1.000      0.577759      0.968568     -1.971354
    5   H      5    1.2000  1.000      0.147435      2.355812     -0.929054
    6   H      6    1.2000  1.000      1.814525      1.730152     -0.928246
    7  Cl      7    2.3800  1.000     -2.321463     -0.443854     -0.053232
    8   C      8    1.8500  1.000      1.442292     -0.898385     -0.094626
    9   N      9    1.8900  1.000      2.241736     -1.750824     -0.125825
 ------------------------------------------------------------------------------
 GePol: Number of generator spheres                  =       9
 GePol: Total number of spheres                      =       9
 GePol: Number of exposed spheres                    =       9 (100.00%)
 GePol: Number of points                             =    1267
 GePol: Average weight of points                     =       0.14
 GePol: Minimum weight of points                     =   0.19D-10
 GePol: Maximum weight of points                     =    0.18138
 GePol: Number of points with low weight             =      33
 GePol: Fraction of low-weight points (<1% of avg)   =       2.60%
 GePol: Cavity surface area                          =    174.153 Ang**2
 GePol: Cavity volume                                =    155.704 Ang**3
 ------------------------------------------------------------------------------
 Atomic radii for non-electrostatic terms: SMD-CDS.
 ------------------------------------------------------------------------------
 PCM non-electrostatic energy =        -0.0008121894 Hartrees.
 Nuclear repulsion after PCM non-electrostatic terms =      222.6157086357 Hartrees.
 Leave Link  301 at Wed Jan  8 02:02:10 2020, MaxMem=  4294967296 cpu:               2.1 elap:               0.2
 (Enter /home/cwagen/sw/g16/g16/l302.exe)
 NPDir=0 NMtPBC=     1 NCelOv=     1 NCel=       1 NClECP=     1 NCelD=      1
         NCelK=      1 NCelE2=     1 NClLst=     1 CellRange=     0.0.
 One-electron integrals computed using PRISM.
 One-electron integral symmetry used in STVInt
 NBasis=   124 RedAO= T EigKep=  1.11D-04  NBF=   124
 NBsUse=   124 1.00D-06 EigRej= -1.00D+00 NBFU=   124
 Precomputing XC quadrature grid using
 IXCGrd= 4 IRadAn=           5 IRanWt=          -1 IRanGd=           0 AccXCQ= 0.00D+00.
 Generated NRdTot=       0 NPtTot=           0 NUsed=           0 NTot=          32
 NSgBfM=   123   123   123   123   123 MxSgAt=     9 MxSgA2=     9.
 Leave Link  302 at Wed Jan  8 02:02:13 2020, MaxMem=  4294967296 cpu:              32.9 elap:               3.1
 (Enter /home/cwagen/sw/g16/g16/l303.exe)
 DipDrv:  MaxL=1.
 Leave Link  303 at Wed Jan  8 02:02:14 2020, MaxMem=  4294967296 cpu:               3.6 elap:               0.4
 (Enter /home/cwagen/sw/g16/g16/l401.exe)
 ExpMin= 4.38D-02 ExpMax= 2.52D+04 ExpMxC= 3.78D+03 IAcc=3 IRadAn=         5 AccDes= 0.00D+00
 Harris functional with IExCor=  402 and IRadAn=       5 diagonalized for initial guess.
 HarFok:  IExCor=  402 AccDes= 0.00D+00 IRadAn=         5 IDoV= 1 UseB2=F ITyADJ=14
 ICtDFT=  3500011 ScaDFX=  1.000000  1.000000  1.000000  1.000000
 FoFCou: FMM=F IPFlag=           0 FMFlag=      100000 FMFlg1=           0
         NFxFlg=           0 DoJE=T BraDBF=F KetDBF=T FulRan=T
         wScrn=  0.000000 ICntrl=       500 IOpCl=  0 I1Cent=   200000004 NGrid=           0
         NMat0=    1 NMatS0=      1 NMatT0=    0 NMatD0=    1 NMtDS0=    0 NMtDT0=    0
 Petite list used in FoFCou.
 Harris En= -706.361335401817    
 JPrj=0 DoOrth=F DoCkMO=F.
 Leave Link  401 at Wed Jan  8 02:02:16 2020, MaxMem=  4294967296 cpu:              24.7 elap:               1.9
 (Enter /home/cwagen/sw/g16/g16/l502.exe)
 Keep R1 ints in memory in canonical form, NReq=45236517.
 FoFCou: FMM=F IPFlag=           0 FMFlag=           0 FMFlg1=           0
         NFxFlg=           0 DoJE=F BraDBF=F KetDBF=F FulRan=T
         wScrn=  0.000000 ICntrl=       600 IOpCl=  0 I1Cent=           0 NGrid=           0
         NMat0=    1 NMatS0=   7750 NMatT0=    0 NMatD0=    1 NMtDS0=    0 NMtDT0=    0
 Symmetry not used in FoFCou.
 Two-electron integral symmetry not used.
 Closed shell SCF:
 Using DIIS extrapolation, IDIIS=  1040.
 NGot=  4294967296 LenX=  4264898079 LenY=  4264882262
 Requested convergence on RMS density matrix=1.00D-08 within 128 cycles.
 Requested convergence on MAX density matrix=1.00D-06.
 Requested convergence on             energy=1.00D-06.
 No special actions if energy rises.

 Cycle   1  Pass 1  IDiag  1:
 Inv3:  Mode=1 IEnd=     4815867.
 Iteration    1 A*A^-1 deviation from unit magnitude is 6.22D-15 for   1254.
 Iteration    1 A*A^-1 deviation from orthogonality  is 2.39D-15 for   1267   1266.
 Iteration    1 A^-1*A deviation from unit magnitude is 6.00D-15 for   1254.
 Iteration    1 A^-1*A deviation from orthogonality  is 2.33D-15 for   1267   1266.
 E= -706.203268365202    
 DIIS: error= 2.36D-02 at cycle   1 NSaved=   1.
 NSaved= 1 IEnMin= 1 EnMin= -706.203268365202     IErMin= 1 ErrMin= 2.36D-02
 ErrMax= 2.36D-02  0.00D+00 EMaxC= 1.00D-01 BMatC= 2.03D-01 BMatP= 2.03D-01
 IDIUse=3 WtCom= 7.64D-01 WtEn= 2.36D-01
 Coeff-Com:  0.100D+01
 Coeff-En:   0.100D+01
 Coeff:      0.100D+01
 Gap=     0.093 Goal=   None    Shift=    0.000
 GapD=    0.093 DampG=0.500 DampE=0.500 DampFc=0.2500 IDamp=-1.
 Damping current iteration by 2.50D-01
 RMSDP=1.12D-02 MaxDP=2.22D-01              OVMax= 2.69D-01

 Cycle   2  Pass 1  IDiag  1:
 E= -706.255076293490     Delta-E=       -0.051807928288 Rises=F Damp=T
 DIIS: error= 1.76D-02 at cycle   2 NSaved=   2.
 NSaved= 2 IEnMin= 2 EnMin= -706.255076293490     IErMin= 2 ErrMin= 1.76D-02
 ErrMax= 1.76D-02  0.00D+00 EMaxC= 1.00D-01 BMatC= 3.00D-02 BMatP= 2.03D-01
 IDIUse=3 WtCom= 8.24D-01 WtEn= 1.76D-01
 Coeff-Com: -0.190D+00 0.119D+01
 Coeff-En:   0.160D+00 0.840D+00
 Coeff:     -0.128D+00 0.113D+01
 Gap=     0.137 Goal=   None    Shift=    0.000
 RMSDP=3.15D-03 MaxDP=6.33D-02 DE=-5.18D-02 OVMax= 2.63D-01

 Cycle   3  Pass 1  IDiag  1:
 E= -706.336048499283     Delta-E=       -0.080972205793 Rises=F Damp=F
 DIIS: error= 1.34D-02 at cycle   3 NSaved=   3.
 NSaved= 3 IEnMin= 3 EnMin= -706.336048499283     IErMin= 3 ErrMin= 1.34D-02
 ErrMax= 1.34D-02  0.00D+00 EMaxC= 1.00D-01 BMatC= 4.64D-02 BMatP= 3.00D-02
 IDIUse=2 WtCom= 0.00D+00 WtEn= 1.00D+00
 Coeff-En:   0.000D+00 0.000D+00 0.100D+01
 Coeff:      0.000D+00 0.000D+00 0.100D+01
 Gap=     0.172 Goal=   None    Shift=    0.000
 RMSDP=6.16D-03 MaxDP=1.57D-01 DE=-8.10D-02 OVMax= 3.26D-01

 Cycle   4  Pass 1  IDiag  1:
 E= -706.068445343820     Delta-E=        0.267603155463 Rises=F Damp=F
 DIIS: error= 3.97D-02 at cycle   4 NSaved=   4.
 NSaved= 4 IEnMin= 3 EnMin= -706.336048499283     IErMin= 3 ErrMin= 1.34D-02
 ErrMax= 3.97D-02  0.00D+00 EMaxC= 1.00D-01 BMatC= 3.57D-01 BMatP= 3.00D-02
 IDIUse=2 WtCom= 0.00D+00 WtEn= 1.00D+00
 Coeff-En:   0.000D+00 0.000D+00 0.820D+00 0.180D+00
 Coeff:      0.000D+00 0.000D+00 0.820D+00 0.180D+00
 Gap=     0.154 Goal=   None    Shift=    0.000
 RMSDP=3.70D-03 MaxDP=9.13D-02 DE= 2.68D-01 OVMax= 1.30D-01

 Cycle   5  Pass 1  IDiag  1:
 E= -706.360849921211     Delta-E=       -0.292404577390 Rises=F Damp=F
 DIIS: error= 8.63D-03 at cycle   5 NSaved=   5.
 NSaved= 5 IEnMin= 5 EnMin= -706.360849921211     IErMin= 5 ErrMin= 8.63D-03
 ErrMax= 8.63D-03  0.00D+00 EMaxC= 1.00D-01 BMatC= 2.21D-02 BMatP= 3.00D-02
 IDIUse=3 WtCom= 9.14D-01 WtEn= 8.63D-02
 Coeff-Com: -0.495D-01 0.111D+00 0.385D+00-0.257D-01 0.578D+00
 Coeff-En:   0.000D+00 0.000D+00 0.353D+00 0.000D+00 0.647D+00
 Coeff:     -0.452D-01 0.102D+00 0.383D+00-0.235D-01 0.584D+00
 Gap=     0.129 Goal=   None    Shift=    0.000
 RMSDP=1.42D-03 MaxDP=3.88D-02 DE=-2.92D-01 OVMax= 6.33D-02

 Cycle   6  Pass 1  IDiag  1:
 E= -706.381996510407     Delta-E=       -0.021146589196 Rises=F Damp=F
 DIIS: error= 8.86D-04 at cycle   6 NSaved=   6.
 NSaved= 6 IEnMin= 6 EnMin= -706.381996510407     IErMin= 6 ErrMin= 8.86D-04
 ErrMax= 8.86D-04  0.00D+00 EMaxC= 1.00D-01 BMatC= 3.09D-04 BMatP= 2.21D-02
 IDIUse=3 WtCom= 9.91D-01 WtEn= 8.86D-03
 Coeff-Com: -0.410D-01 0.625D-01 0.168D+00-0.406D-01 0.359D+00 0.492D+00
 Coeff-En:   0.000D+00 0.000D+00 0.000D+00 0.000D+00 0.000D+00 0.100D+01
 Coeff:     -0.406D-01 0.620D-01 0.167D+00-0.403D-01 0.356D+00 0.496D+00
 Gap=     0.133 Goal=   None    Shift=    0.000
 RMSDP=3.30D-04 MaxDP=1.39D-02 DE=-2.11D-02 OVMax= 1.38D-02

 Cycle   7  Pass 1  IDiag  1:
 E= -706.382326222061     Delta-E=       -0.000329711654 Rises=F Damp=F
 DIIS: error= 2.37D-04 at cycle   7 NSaved=   7.
 NSaved= 7 IEnMin= 7 EnMin= -706.382326222061     IErMin= 7 ErrMin= 2.37D-04
 ErrMax= 2.37D-04  0.00D+00 EMaxC= 1.00D-01 BMatC= 1.73D-05 BMatP= 3.09D-04
 IDIUse=3 WtCom= 9.98D-01 WtEn= 2.37D-03
 Coeff-Com: -0.142D-01 0.216D-01 0.457D-01-0.162D-01 0.108D+00 0.245D+00
 Coeff-Com:  0.611D+00
 Coeff-En:   0.000D+00 0.000D+00 0.000D+00 0.000D+00 0.000D+00 0.000D+00
 Coeff-En:   0.100D+01
 Coeff:     -0.142D-01 0.215D-01 0.456D-01-0.161D-01 0.107D+00 0.244D+00
 Coeff:      0.611D+00
 Gap=     0.132 Goal=   None    Shift=    0.000
 RMSDP=8.61D-05 MaxDP=3.28D-03 DE=-3.30D-04 OVMax= 3.09D-03

 Cycle   8  Pass 1  IDiag  1:
 E= -706.382345427317     Delta-E=       -0.000019205256 Rises=F Damp=F
 DIIS: error= 8.90D-05 at cycle   8 NSaved=   8.
 NSaved= 8 IEnMin= 8 EnMin= -706.382345427317     IErMin= 8 ErrMin= 8.90D-05
 ErrMax= 8.90D-05  0.00D+00 EMaxC= 1.00D-01 BMatC= 2.33D-06 BMatP= 1.73D-05
 IDIUse=1 WtCom= 1.00D+00 WtEn= 0.00D+00
 Coeff-Com: -0.496D-03-0.318D-03 0.448D-02-0.209D-02 0.115D-01 0.868D-01
 Coeff-Com:  0.327D+00 0.573D+00
 Coeff:     -0.496D-03-0.318D-03 0.448D-02-0.209D-02 0.115D-01 0.868D-01
 Coeff:      0.327D+00 0.573D+00
 Gap=     0.132 Goal=   None    Shift=    0.000
 RMSDP=1.60D-05 MaxDP=3.96D-04 DE=-1.92D-05 OVMax= 7.39D-04

 Cycle   9  Pass 1  IDiag  1:
 E= -706.382347653292     Delta-E=       -0.000002225975 Rises=F Damp=F
 DIIS: error= 1.60D-05 at cycle   9 NSaved=   9.
 NSaved= 9 IEnMin= 9 EnMin= -706.382347653292     IErMin= 9 ErrMin= 1.60D-05
 ErrMax= 1.60D-05  0.00D+00 EMaxC= 1.00D-01 BMatC= 8.28D-08 BMatP= 2.33D-06
 IDIUse=1 WtCom= 1.00D+00 WtEn= 0.00D+00
 Coeff-Com:  0.164D-03-0.281D-03-0.168D-02-0.161D-03-0.280D-02 0.135D-01
 Coeff-Com:  0.466D-01 0.182D+00 0.762D+00
 Coeff:      0.164D-03-0.281D-03-0.168D-02-0.161D-03-0.280D-02 0.135D-01
 Coeff:      0.466D-01 0.182D+00 0.762D+00
 Gap=     0.132 Goal=   None    Shift=    0.000
 RMSDP=6.71D-06 MaxDP=2.89D-04 DE=-2.23D-06 OVMax= 1.74D-04

 Cycle  10  Pass 1  IDiag  1:
 E= -706.382347752237     Delta-E=       -0.000000098945 Rises=F Damp=F
 DIIS: error= 5.02D-06 at cycle  10 NSaved=  10.
 NSaved=10 IEnMin=10 EnMin= -706.382347752237     IErMin=10 ErrMin= 5.02D-06
 ErrMax= 5.02D-06  0.00D+00 EMaxC= 1.00D-01 BMatC= 6.88D-09 BMatP= 8.28D-08
 IDIUse=1 WtCom= 1.00D+00 WtEn= 0.00D+00
 Coeff-Com:  0.156D-03-0.247D-03-0.791D-03 0.110D-03-0.156D-02 0.176D-03
 Coeff-Com: -0.726D-02 0.320D-01 0.328D+00 0.650D+00
 Coeff:      0.156D-03-0.247D-03-0.791D-03 0.110D-03-0.156D-02 0.176D-03
 Coeff:     -0.726D-02 0.320D-01 0.328D+00 0.650D+00
 Gap=     0.132 Goal=   None    Shift=    0.000
 RMSDP=1.48D-06 MaxDP=3.42D-05 DE=-9.89D-08 OVMax= 5.62D-05

 Cycle  11  Pass 1  IDiag  1:
 E= -706.382347760297     Delta-E=       -0.000000008060 Rises=F Damp=F
 DIIS: error= 1.34D-06 at cycle  11 NSaved=  11.
 NSaved=11 IEnMin=11 EnMin= -706.382347760297     IErMin=11 ErrMin= 1.34D-06
 ErrMax= 1.34D-06  0.00D+00 EMaxC= 1.00D-01 BMatC= 7.63D-10 BMatP= 6.88D-09
 IDIUse=1 WtCom= 1.00D+00 WtEn= 0.00D+00
 Coeff-Com:  0.183D-04-0.174D-04-0.733D-04 0.307D-04-0.145D-03-0.143D-02
 Coeff-Com: -0.908D-02-0.102D-01 0.413D-01 0.296D+00 0.683D+00
 Coeff:      0.183D-04-0.174D-04-0.733D-04 0.307D-04-0.145D-03-0.143D-02
 Coeff:     -0.908D-02-0.102D-01 0.413D-01 0.296D+00 0.683D+00
 Gap=     0.132 Goal=   None    Shift=    0.000
 RMSDP=4.86D-07 MaxDP=8.85D-06 DE=-8.06D-09 OVMax= 1.06D-05

 Cycle  12  Pass 1  IDiag  1:
 E= -706.382347761249     Delta-E=       -0.000000000952 Rises=F Damp=F
 DIIS: error= 3.48D-07 at cycle  12 NSaved=  12.
 NSaved=12 IEnMin=12 EnMin= -706.382347761249     IErMin=12 ErrMin= 3.48D-07
 ErrMax= 3.48D-07  0.00D+00 EMaxC= 1.00D-01 BMatC= 4.38D-11 BMatP= 7.63D-10
 IDIUse=1 WtCom= 1.00D+00 WtEn= 0.00D+00
 Coeff-Com: -0.646D-05 0.176D-04-0.946D-05 0.205D-05-0.807D-05-0.729D-03
 Coeff-Com: -0.334D-02-0.648D-02-0.684D-02 0.794D-01 0.228D+00 0.710D+00
 Coeff:     -0.646D-05 0.176D-04-0.946D-05 0.205D-05-0.807D-05-0.729D-03
 Coeff:     -0.334D-02-0.648D-02-0.684D-02 0.794D-01 0.228D+00 0.710D+00
 Gap=     0.132 Goal=   None    Shift=    0.000
 RMSDP=1.29D-07 MaxDP=3.65D-06 DE=-9.52D-10 OVMax= 3.37D-06

 Cycle  13  Pass 1  IDiag  1:
 E= -706.382347761292     Delta-E=       -0.000000000043 Rises=F Damp=F
 DIIS: error= 1.10D-07 at cycle  13 NSaved=  13.
 NSaved=13 IEnMin=13 EnMin= -706.382347761292     IErMin=13 ErrMin= 1.10D-07
 ErrMax= 1.10D-07  0.00D+00 EMaxC= 1.00D-01 BMatC= 2.57D-12 BMatP= 4.38D-11
 IDIUse=1 WtCom= 1.00D+00 WtEn= 0.00D+00
 Coeff-Com: -0.914D-06 0.141D-05 0.140D-04-0.134D-05 0.238D-04-0.421D-04
 Coeff-Com: -0.772D-04-0.924D-03-0.593D-02 0.292D-02 0.109D-01 0.212D+00
 Coeff-Com:  0.781D+00
 Coeff:     -0.914D-06 0.141D-05 0.140D-04-0.134D-05 0.238D-04-0.421D-04
 Coeff:     -0.772D-04-0.924D-03-0.593D-02 0.292D-02 0.109D-01 0.212D+00
 Coeff:      0.781D+00
 Gap=     0.132 Goal=   None    Shift=    0.000
 RMSDP=3.66D-08 MaxDP=1.48D-06 DE=-4.32D-11 OVMax= 1.03D-06

 Cycle  14  Pass 1  IDiag  1:
 E= -706.382347761297     Delta-E=       -0.000000000005 Rises=F Damp=F
 DIIS: error= 3.33D-08 at cycle  14 NSaved=  14.
 NSaved=14 IEnMin=14 EnMin= -706.382347761297     IErMin=14 ErrMin= 3.33D-08
 ErrMax= 3.33D-08  0.00D+00 EMaxC= 1.00D-01 BMatC= 2.57D-13 BMatP= 2.57D-12
 IDIUse=1 WtCom= 1.00D+00 WtEn= 0.00D+00
 Coeff-Com:  0.527D-06-0.999D-06 0.216D-05-0.344D-06 0.199D-05 0.254D-04
 Coeff-Com:  0.165D-03 0.182D-03-0.113D-02-0.319D-02-0.126D-01-0.483D-02
 Coeff-Com:  0.163D+00 0.858D+00
 Coeff:      0.527D-06-0.999D-06 0.216D-05-0.344D-06 0.199D-05 0.254D-04
 Coeff:      0.165D-03 0.182D-03-0.113D-02-0.319D-02-0.126D-01-0.483D-02
 Coeff:      0.163D+00 0.858D+00
 Gap=     0.132 Goal=   None    Shift=    0.000
 RMSDP=9.28D-09 MaxDP=1.62D-07 DE=-4.66D-12 OVMax= 4.17D-07

 Error on total polarization charges =  0.02339
 SCF Done:  E(RB3LYP) =  -706.382347761     A.U. after   14 cycles
            NFock= 14  Conv=0.93D-08     -V/T= 2.0063
 KE= 7.019509693593D+02 PE=-2.122541035328D+03 EE= 4.915920095721D+02
 SMD-CDS (non-electrostatic) energy       (kcal/mol) =      -0.51
 (included in total energy above)
 Leave Link  502 at Wed Jan  8 02:02:54 2020, MaxMem=  4294967296 cpu:             509.1 elap:              38.1
 (Enter /home/cwagen/sw/g16/g16/l601.exe)
 Copying SCF densities to generalized density rwf, IOpCl= 0 IROHF=0.

 **********************************************************************

            Population analysis using the SCF density.

 **********************************************************************

 Orbital symmetries:
       Occupied  (A) (A) (A) (A) (A) (A) (A) (A) (A) (A) (A) (A)
                 (A) (A) (A) (A) (A) (A) (A) (A) (A) (A) (A) (A)
                 (A) (A) (A)
       Virtual   (A) (A) (A) (A) (A) (A) (A) (A) (A) (A) (A) (A)
                 (A) (A) (A) (A) (A) (A) (A) (A) (A) (A) (A) (A)
                 (A) (A) (A) (A) (A) (A) (A) (A) (A) (A) (A) (A)
                 (A) (A) (A) (A) (A) (A) (A) (A) (A) (A) (A) (A)
                 (A) (A) (A) (A) (A) (A) (A) (A) (A) (A) (A) (A)
                 (A) (A) (A) (A) (A) (A) (A) (A) (A) (A) (A) (A)
                 (A) (A) (A) (A) (A) (A) (A) (A) (A) (A) (A) (A)
                 (A) (A) (A) (A) (A) (A) (A) (A) (A) (A) (A) (A)
                 (A)
 The electronic state is 1-A.
 Alpha  occ. eigenvalues -- -101.44407 -19.17127 -14.33310 -10.34254 -10.22517
 Alpha  occ. eigenvalues --  -10.19567  -9.35662  -7.11642  -7.11348  -7.11346
 Alpha  occ. eigenvalues --   -1.02111  -0.89110  -0.73606  -0.69051  -0.57538
 Alpha  occ. eigenvalues --   -0.47629  -0.43193  -0.42676  -0.39446  -0.36688
 Alpha  occ. eigenvalues --   -0.35435  -0.32796  -0.32559  -0.27144  -0.23696
 Alpha  occ. eigenvalues --   -0.23213  -0.23183
 Alpha virt. eigenvalues --   -0.09990   0.01087   0.03146   0.03735   0.04879
 Alpha virt. eigenvalues --    0.05957   0.06773   0.08009   0.08697   0.09556
 Alpha virt. eigenvalues --    0.09853   0.10255   0.11021   0.12222   0.13273
 Alpha virt. eigenvalues --    0.14012   0.14913   0.16484   0.16720   0.20381
 Alpha virt. eigenvalues --    0.22568   0.23969   0.24205   0.25450   0.25792
 Alpha virt. eigenvalues --    0.26823   0.28313   0.29091   0.32470   0.33229
 Alpha virt. eigenvalues --    0.35171   0.36571   0.40472   0.61131   0.63777
 Alpha virt. eigenvalues --    0.64944   0.66813   0.67642   0.68502   0.70755
 Alpha virt. eigenvalues --    0.72244   0.74940   0.76847   0.79193   0.79329
 Alpha virt. eigenvalues --    0.85391   0.87881   0.94629   0.96463   0.97288
 Alpha virt. eigenvalues --    0.97708   0.97956   0.98564   0.99613   1.00430
 Alpha virt. eigenvalues --    1.04234   1.11200   1.12396   1.14332   1.21926
 Alpha virt. eigenvalues --    1.28016   1.29765   1.31080   1.34225   1.45216
 Alpha virt. eigenvalues --    1.46177   1.52885   1.55018   1.56463   1.59789
 Alpha virt. eigenvalues --    1.65210   1.67432   1.77065   1.82565   1.88753
 Alpha virt. eigenvalues --    1.91926   1.97077   1.99051   1.99585   2.11115
 Alpha virt. eigenvalues --    2.17272   2.23843   2.29543   2.43483   2.48399
 Alpha virt. eigenvalues --    2.63226   2.67999   2.70256   2.77745   2.95491
 Alpha virt. eigenvalues --    3.09951   4.05185   4.12089   4.28225   4.30109
 Alpha virt. eigenvalues --    4.37675   4.49426
          Condensed to atoms (all electrons):
               1          2          3          4          5          6
     1  C    5.400076   0.542282   0.057854  -0.074384  -0.076938   0.020512
     2  O    0.542282   8.088890  -0.138586   0.008341   0.002174  -0.014168
     3  C    0.057854  -0.138586   5.769010   0.375796   0.384997   0.365051
     4  H   -0.074384   0.008341   0.375796   0.462569  -0.020124  -0.028598
     5  H   -0.076938   0.002174   0.384997  -0.020124   0.456186  -0.022751
     6  H    0.020512  -0.014168   0.365051  -0.028598  -0.022751   0.445766
     7  Cl   0.164838  -0.026078  -0.074105   0.002728  -0.001020   0.000543
     8  C   -0.381773  -0.137497  -0.033296   0.025573   0.027704  -0.035326
     9  N   -0.049386  -0.006843   0.004765  -0.001163  -0.000041   0.000028
               7          8          9
     1  C    0.164838  -0.381773  -0.049386
     2  O   -0.026078  -0.137497  -0.006843
     3  C   -0.074105  -0.033296   0.004765
     4  H    0.002728   0.025573  -0.001163
     5  H   -0.001020   0.027704  -0.000041
     6  H    0.000543  -0.035326   0.000028
     7  Cl  17.742328  -0.051925  -0.005690
     8  C   -0.051925   5.800334   0.612714
     9  N   -0.005690   0.612714   7.002423
 Mulliken charges:
               1
     1  C    0.396919
     2  O   -0.318514
     3  C   -0.711485
     4  H    0.249262
     5  H    0.249812
     6  H    0.268942
     7  Cl  -0.751620
     8  C    0.173493
     9  N   -0.556809
 Sum of Mulliken charges =  -1.00000
 Mulliken charges with hydrogens summed into heavy atoms:
               1
     1  C    0.396919
     2  O   -0.318514
     3  C    0.056531
     7  Cl  -0.751620
     8  C    0.173493
     9  N   -0.556809
 Electronic spatial extent (au):  <R**2>=            990.0758
 Charge=             -1.0000 electrons
 Dipole moment (field-independent basis, Debye):
    X=              4.6471    Y=              5.2053    Z=             -2.7604  Tot=              7.5040
 Quadrupole moment (field-independent basis, Debye-Ang):
   XX=            -75.6084   YY=            -53.1148   ZZ=            -48.8983
   XY=              5.3037   XZ=             -2.3832   YZ=             -4.7930
 Traceless Quadrupole moment (field-independent basis, Debye-Ang):
   XX=            -16.4013   YY=              6.0924   ZZ=             10.3088
   XY=              5.3037   XZ=             -2.3832   YZ=             -4.7930
 Octapole moment (field-independent basis, Debye-Ang**2):
  XXX=             29.9248  YYY=             27.1527  ZZZ=             -4.7830  XYY=            -11.7222
  XXY=             34.9791  XXZ=              1.8452  XZZ=              1.4959  YZZ=              0.7292
  YYZ=             -3.0129  XYZ=             -4.2960
 Hexadecapole moment (field-independent basis, Debye-Ang**3):
 XXXX=          -1049.7523 YYYY=           -395.5144 ZZZZ=           -185.6760 XXXY=             49.9948
 XXXZ=              1.2976 YYYX=             40.7290 YYYZ=             -9.0735 ZZZX=             -3.1742
 ZZZY=             -5.2737 XXYY=           -253.7207 XXZZ=           -181.9109 YYZZ=            -96.4981
 XXYZ=             -6.4323 YYXZ=             -0.2343 ZZXY=              1.0997
 N-N= 2.226157086357D+02 E-N=-2.122541036106D+03  KE= 7.019509693593D+02
 No NMR shielding tensors so no spin-rotation constants.
 Leave Link  601 at Wed Jan  8 02:02:55 2020, MaxMem=  4294967296 cpu:              13.4 elap:               1.3
 (Enter /home/cwagen/sw/g16/g16/l701.exe)
 ... and contract with generalized density number  0.
 Compute integral first derivatives.
 D1PCM: PCM CHGder 1st derivatives, ID1Alg=3 FixD1E=F DoIter=F DoCFld=F I1PDM=0.
 GePol: Maximum number of non-zero 1st derivatives   =     406
 Leave Link  701 at Wed Jan  8 02:03:00 2020, MaxMem=  4294967296 cpu:              63.0 elap:               5.1
 (Enter /home/cwagen/sw/g16/g16/l702.exe)
 L702 exits ... SP integral derivatives will be done elsewhere.
 Leave Link  702 at Wed Jan  8 02:03:00 2020, MaxMem=  4294967296 cpu:               1.0 elap:               0.1
 (Enter /home/cwagen/sw/g16/g16/l703.exe)
 Integral derivatives from FoFJK, PRISM(SPDF).
 Compute integral first derivatives, UseDBF=F ICtDFT=           0.
 Calling FoFJK, ICntrl=      2127 FMM=F ISym2X=0 I1Cent= 0 IOpClX= 0 NMat=1 NMatS=1 NMatT=0.
 FoFJK:  IHMeth= 1 ICntrl=    2127 DoSepK=F KAlg= 0 I1Cent=           0 FoldK=F
 IRaf=         0 NMat=       1 IRICut=       1 DoRegI=T DoRafI=F ISym2E= 0 IDoP0=0 IntGTp=1.
 FoFCou: FMM=F IPFlag=           0 FMFlag=      100000 FMFlg1=         800
         NFxFlg=           0 DoJE=F BraDBF=F KetDBF=F FulRan=T
         wScrn=  0.000000 ICntrl=      2127 IOpCl=  0 I1Cent=           0 NGrid=           0
         NMat0=    1 NMatS0=      1 NMatT0=    0 NMatD0=    1 NMtDS0=    0 NMtDT0=    0
 Symmetry not used in FoFCou.
 Leave Link  703 at Wed Jan  8 02:03:03 2020, MaxMem=  4294967296 cpu:              34.3 elap:               3.1
 (Enter /home/cwagen/sw/g16/g16/l716.exe)
 Dipole        = 1.82830150D+00 2.04790982D+00-1.08603074D+00
 ***** Axes restored to original set *****
 -------------------------------------------------------------------
 Center     Atomic                   Forces (Hartrees/Bohr)
 Number     Number              X              Y              Z
 -------------------------------------------------------------------
      1        6           0.082572954   -0.081394007   -0.082142003
      2        8          -0.014374243    0.056988588    0.092173364
      3        6          -0.030121931    0.023743139    0.009145805
      4        1          -0.000712495    0.001669104   -0.003395161
      5        1           0.001412172   -0.001016349    0.001795421
      6        1           0.002390580    0.005488020   -0.004963700
      7       17           0.009186523   -0.011103759   -0.002628425
      8        6          -0.043374538    0.009114998   -0.011954283
      9        7          -0.006979024   -0.003489734    0.001968983
 -------------------------------------------------------------------
 Cartesian Forces:  Max     0.092173364 RMS     0.036597806
 Leave Link  716 at Wed Jan  8 02:03:04 2020, MaxMem=  4294967296 cpu:               1.2 elap:               0.1
 (Enter /home/cwagen/sw/g16/g16/l103.exe)

 GradGradGradGradGradGradGradGradGradGradGradGradGradGradGradGradGradGrad
 Berny optimization.
 FormGI is forming the generalized inverse of G from B-inverse, IUseBI=4.
 Internal  Forces:  Max     0.103897061 RMS     0.025361510
 Search for a local minimum.
 Step number   1 out of a maximum of   41
 All quantities printed in internal units (Hartrees-Bohrs-Radians)
 RMS Force = .24600D-01 SwitMx=.10000D-02 MixMth= 1
 Mixed Optimization -- RFO/linear search
 Second derivative matrix not updated -- first step.
 ITU=  0
     Eigenvalues ---    0.00230   0.04746   0.04746   0.05330   0.05908
     Eigenvalues ---    0.07453   0.10176   0.16000   0.16000   0.16000
     Eigenvalues ---    0.25000   0.25000   0.25000   0.26946   0.33918
     Eigenvalues ---    0.33999   0.34275   0.67840   1.220341000.00000
     Eigenvalues --- 1000.000001000.000001000.000001000.000001000.00000
     Eigenvalues --- 1000.000001000.000001000.000001000.000001000.00000
     Eigenvalues --- 1000.00000
 RFO step:  Lambda=-4.58383072D-02 EMin= 2.30000000D-03
 Linear search not attempted -- first point.
 Maximum step size (   0.300) exceeded in Quadratic search.
    -- Step size scaled by   0.872
 Iteration  1 RMS(Cart)=  0.08756965 RMS(Int)=  0.00864841
 Iteration  2 RMS(Cart)=  0.00837915 RMS(Int)=  0.00559290
 Iteration  3 RMS(Cart)=  0.00003538 RMS(Int)=  0.00559277
 Iteration  4 RMS(Cart)=  0.00000102 RMS(Int)=  0.00559277
 Iteration  5 RMS(Cart)=  0.00000002 RMS(Int)=  0.00559277
 Iteration  1 RMS(Cart)=  0.00000000 RMS(Int)=  0.00000000
 ITry= 1 IFail=0 DXMaxC= 1.89D-01 DCOld= 1.00D+10 DXMaxT= 3.00D-01 DXLimC= 3.00D+00 Rises=F
 Variable       Old X    -DE/DX   Delta X   Delta X   Delta X     New X
                                 (Linear)    (Quad)   (Total)
    R1        2.45227  -0.10390   0.00000  -0.12516  -0.12516   2.32711
    R2        2.94503  -0.01815   0.00000  -0.05022  -0.05022   2.89481
    R3        5.48021  -0.01459   0.00000   0.00000   0.00000   5.48021
    R4        3.40151  -0.04667   0.00000   0.00000   0.00000   3.40151
    R5        2.07331  -0.00284   0.00000  -0.00642  -0.00642   2.06689
    R6        2.07468  -0.00108   0.00000  -0.00246  -0.00246   2.07223
    R7        2.06868  -0.00138   0.00000  -0.00310  -0.00310   2.06558
    R8        2.20923  -0.00757   0.00000  -0.00521  -0.00521   2.20402
    A1        1.99667   0.04484   0.00000   0.13971   0.12986   2.12652
    A2        2.01908  -0.02164   0.00000  -0.09361  -0.08893   1.93014
    A3        1.89239  -0.01077   0.00000   0.03767   0.01710   1.90950
    A4        1.92419  -0.02528   0.00000  -0.10444  -0.09941   1.82478
    A5        1.77194   0.03503   0.00000   0.12571   0.11290   1.88484
    A6        1.83479  -0.01991   0.00000  -0.09002  -0.08504   1.74975
    A7        1.97398  -0.00245   0.00000  -0.01119  -0.01154   1.96244
    A8        1.87942   0.00579   0.00000   0.02835   0.02853   1.90796
    A9        1.90140  -0.01112   0.00000  -0.05021  -0.05040   1.85100
   A10        1.90356  -0.00038   0.00000   0.00392   0.00392   1.90749
   A11        1.90837   0.00554   0.00000   0.01665   0.01592   1.92429
   A12        1.89554   0.00282   0.00000   0.01362   0.01404   1.90958
   A13        3.09831  -0.00464   0.00000  -0.04335  -0.04335   3.05497
   A14        2.91170   0.00317   0.00000   0.02961   0.02961   2.94132
    D1        3.04510   0.01320   0.00000   0.09074   0.09668  -3.14140
    D2       -1.13357   0.01516   0.00000   0.10808   0.11394  -1.01963
    D3        0.91915   0.01572   0.00000   0.11287   0.11830   1.03745
    D4       -0.92685  -0.00079   0.00000  -0.01466  -0.01408  -0.94093
    D5        1.17766   0.00117   0.00000   0.00268   0.00318   1.18085
    D6       -3.05280   0.00173   0.00000   0.00747   0.00754  -3.04526
    D7        1.01121  -0.01571   0.00000  -0.09405  -0.09998   0.91123
    D8        3.11572  -0.01374   0.00000  -0.07671  -0.08272   3.03300
    D9       -1.11475  -0.01319   0.00000  -0.07191  -0.07836  -1.19311
         Item               Value     Threshold  Converged?
 Maximum Force            0.103897     0.000450     NO 
 RMS     Force            0.024600     0.000300     NO 
 Maximum Displacement     0.188962     0.001800     NO 
 RMS     Displacement     0.085962     0.001200     NO 
 Predicted change in Energy=-2.651513D-02
 Lowest energy point so far.  Saving SCF results.
 GradGradGradGradGradGradGradGradGradGradGradGradGradGradGradGradGradGrad

 Leave Link  103 at Wed Jan  8 02:03:10 2020, MaxMem=  4294967296 cpu:              69.8 elap:               6.1
 (Enter /home/cwagen/sw/g16/g16/l202.exe)
                          Input orientation:                          
 ---------------------------------------------------------------------
 Center     Atomic      Atomic             Coordinates (Angstroms)
 Number     Number       Type             X           Y           Z
 ---------------------------------------------------------------------
      1          6           0       -0.124881   -0.387908   -0.236291
      2          8           0       -0.245460   -0.618201   -1.439995
      3          6           0       -0.369025   -1.468505    0.821691
      4          1           0       -0.219172   -1.097557    1.839645
      5          1           0       -1.392521   -1.849251    0.721860
      6          1           0        0.340077   -2.271136    0.603218
      7         17           0       -1.840899    1.810706    0.558302
      8          6           0        1.492116    0.339246    0.074466
      9          7           0        2.608322    0.669486    0.147398
 ---------------------------------------------------------------------
                    Distance matrix (angstroms):
                    1          2          3          4          5
     1  C    0.000000
     2  O    1.231454   0.000000
     3  C    1.531869   2.419403   0.000000
     4  H    2.195906   3.314591   1.093750   0.000000
     5  H    2.158817   2.739499   1.096576   1.786403   0.000000
     6  H    2.113649   2.692540   1.093056   1.794101   1.787165
     7  Cl   2.900000   3.526785   3.604027   3.567889   3.690946
     8  C    1.800000   2.495890   2.700028   2.847589   3.678284
     9  N    2.955621   3.510274   3.726965   3.739100   4.762435
                    6          7          8          9
     6  H    0.000000
     7  Cl   4.628186   0.000000
     8  C    2.901873   3.675361   0.000000
     9  N    3.741653   4.611593   1.166317   0.000000
 Stoichiometry    C3H3ClNO(1-)
 Framework group  C1[X(C3H3ClNO)]
 Deg. of freedom    21
 Full point group                 C1      NOp   1
 RotChk:  IX=0 Diff= 7.77D-02
 Largest Abelian subgroup         C1      NOp   1
 Largest concise Abelian subgroup C1      NOp   1
                         Standard orientation:                         
 ---------------------------------------------------------------------
 Center     Atomic      Atomic             Coordinates (Angstroms)
 Number     Number       Type             X           Y           Z
 ---------------------------------------------------------------------
      1          6           0        0.452324    0.595944    0.223489
      2          8           0        0.645916    0.981232    1.376986
      3          6           0        0.608493    1.532782   -0.978413
      4          1           0        0.399789    1.031894   -1.928066
      5          1           0       -0.069156    2.387137   -0.862871
      6          1           0        1.643275    1.884158   -0.955346
      7         17           0       -2.217853   -0.501834   -0.050445
      8          6           0        1.438060   -0.877532   -0.088269
      9          7           0        2.224142   -1.732719   -0.193269
 ---------------------------------------------------------------------
 Rotational constants (GHZ):           3.0377806           1.5300029           1.2604259
 Leave Link  202 at Wed Jan  8 02:03:10 2020, MaxMem=  4294967296 cpu:               2.0 elap:               0.2
 (Enter /home/cwagen/sw/g16/g16/l301.exe)
 Standard basis: 6-31+G(d) (6D, 7F)
 Ernie: Thresh=  0.10000D-02 Tol=  0.10000D-05 Strict=F.
 There are   124 symmetry adapted cartesian basis functions of A   symmetry.
 There are   124 symmetry adapted basis functions of A   symmetry.
   124 basis functions,   228 primitive gaussians,   124 cartesian basis functions
    27 alpha electrons       27 beta electrons
       nuclear repulsion energy       225.8320927174 Hartrees.
 IExCor=  402 DFT=T Ex+Corr=B3LYP ExCW=0 ScaHFX=  0.200000
 ScaDFX=  0.800000  0.720000  1.000000  0.810000 ScalE2=  1.000000  1.000000
 IRadAn=      5 IRanWt=     -1 IRanGd=            0 ICorTp=0 IEmpDi=  4
 NAtoms=    9 NActive=    9 NUniq=    9 SFac= 1.00D+00 NAtFMM=   60 NAOKFM=F Big=F
 Integral buffers will be    131072 words long.
 Raffenetti 2 integral format.
 Two-electron integral symmetry is turned on.
 ------------------------------------------------------------------------------
 Polarizable Continuum Model (PCM)
 =================================
 Model                : PCM.
 Atomic radii         : SMD-Coulomb.
 Polarization charges : Total charges.
 Charge compensation  : None.
 Solution method      : On-the-fly selection.
 Cavity type          : VdW (van der Waals Surface) (Alpha=1.000).
 Cavity algorithm     : GePol (No added spheres)
                        Default sphere list used, NSphG=    9.
                        Lebedev-Laikov grids with approx.  5.0 points / Ang**2.
                        Smoothing algorithm: York/Karplus (Gamma=1.0000).
                        Polarization charges: spherical gaussians, with
                                              point-specific exponents (IZeta= 3).
                        Self-potential: point-specific (ISelfS= 7).
                        Self-field    : sphere-specific E.n sum rule (ISelfD= 2).
 1st derivatives      : Analytical E(r).r(x)/FMM algorithm (CHGder, D1EAlg=3).
                        Cavity 1st derivative terms included.
 Solvent              : TetraHydroFuran, Eps=   7.425700 Eps(inf)=   1.974025
 ------------------------------------------------------------------------------
 Spheres list:
 ISph  on   Nord     Re0    Alpha      Xe            Ye            Ze
    1   C      1    1.8500  1.000      0.452324      0.595944      0.223489
    2   O      2    2.2940  1.000      0.645916      0.981232      1.376986
    3   C      3    1.8500  1.000      0.608493      1.532782     -0.978413
    4   H      4    1.2000  1.000      0.399789      1.031894     -1.928066
    5   H      5    1.2000  1.000     -0.069156      2.387137     -0.862871
    6   H      6    1.2000  1.000      1.643275      1.884158     -0.955346
    7  Cl      7    2.3800  1.000     -2.217853     -0.501834     -0.050445
    8   C      8    1.8500  1.000      1.438060     -0.877532     -0.088269
    9   N      9    1.8900  1.000      2.224142     -1.732719     -0.193269
 ------------------------------------------------------------------------------
 GePol: Number of generator spheres                  =       9
 GePol: Total number of spheres                      =       9
 GePol: Number of exposed spheres                    =       9 (100.00%)
 GePol: Number of points                             =    1246
 GePol: Average weight of points                     =       0.14
 GePol: Minimum weight of points                     =   0.79D-09
 GePol: Maximum weight of points                     =    0.18138
 GePol: Number of points with low weight             =      27
 GePol: Fraction of low-weight points (<1% of avg)   =       2.17%
 GePol: Cavity surface area                          =    172.185 Ang**2
 GePol: Cavity volume                                =    154.505 Ang**3
 ------------------------------------------------------------------------------
 Atomic radii for non-electrostatic terms: SMD-CDS.
 ------------------------------------------------------------------------------
 PCM non-electrostatic energy =        -0.0009412584 Hartrees.
 Nuclear repulsion after PCM non-electrostatic terms =      225.8311514589 Hartrees.
 Leave Link  301 at Wed Jan  8 02:03:10 2020, MaxMem=  4294967296 cpu:               2.0 elap:               0.2
 (Enter /home/cwagen/sw/g16/g16/l302.exe)
 NPDir=0 NMtPBC=     1 NCelOv=     1 NCel=       1 NClECP=     1 NCelD=      1
         NCelK=      1 NCelE2=     1 NClLst=     1 CellRange=     0.0.
 One-electron integrals computed using PRISM.
 One-electron integral symmetry used in STVInt
 NBasis=   124 RedAO= T EigKep=  1.06D-04  NBF=   124
 NBsUse=   124 1.00D-06 EigRej= -1.00D+00 NBFU=   124
 Precomputing XC quadrature grid using
 IXCGrd= 4 IRadAn=           5 IRanWt=          -1 IRanGd=           0 AccXCQ= 0.00D+00.
 Generated NRdTot=       0 NPtTot=           0 NUsed=           0 NTot=          32
 NSgBfM=   124   124   124   124   124 MxSgAt=     9 MxSgA2=     9.
 Leave Link  302 at Wed Jan  8 02:03:12 2020, MaxMem=  4294967296 cpu:              24.4 elap:               2.0
 (Enter /home/cwagen/sw/g16/g16/l303.exe)
 DipDrv:  MaxL=1.
 Leave Link  303 at Wed Jan  8 02:03:12 2020, MaxMem=  4294967296 cpu:               2.7 elap:               0.3
 (Enter /home/cwagen/sw/g16/g16/l401.exe)
 Initial guess from the checkpoint file:  "/scratch/users/cwagen/cwagen_scan_290_180/Gau-14519.chk"
 B after Tr=     0.000000    0.000000    0.000000
         Rot=    0.999768   -0.013894   -0.005484   -0.015520 Ang=  -2.47 deg.
 Guess basis will be translated and rotated to current coordinates.
 JPrj=2 DoOrth=T DoCkMO=T.
 Generating alternative initial guess.
 ExpMin= 4.38D-02 ExpMax= 2.52D+04 ExpMxC= 3.78D+03 IAcc=2 IRadAn=         4 AccDes= 0.00D+00
 Harris functional with IExCor=  402 and IRadAn=       4 diagonalized for initial guess.
 HarFok:  IExCor=  402 AccDes= 0.00D+00 IRadAn=         4 IDoV= 1 UseB2=F ITyADJ=14
 ICtDFT=  3500011 ScaDFX=  1.000000  1.000000  1.000000  1.000000
 FoFCou: FMM=F IPFlag=           0 FMFlag=      100000 FMFlg1=           0
         NFxFlg=           0 DoJE=T BraDBF=F KetDBF=T FulRan=T
         wScrn=  0.000000 ICntrl=       500 IOpCl=  0 I1Cent=   200000004 NGrid=           0
         NMat0=    1 NMatS0=      1 NMatT0=    0 NMatD0=    1 NMtDS0=    0 NMtDT0=    0
 Petite list used in FoFCou.
 Harris En= -706.390552784499    
 Leave Link  401 at Wed Jan  8 02:03:15 2020, MaxMem=  4294967296 cpu:              35.5 elap:               3.0
 (Enter /home/cwagen/sw/g16/g16/l502.exe)
 Keep R1 ints in memory in canonical form, NReq=45236517.
 FoFCou: FMM=F IPFlag=           0 FMFlag=           0 FMFlg1=           0
         NFxFlg=           0 DoJE=F BraDBF=F KetDBF=F FulRan=T
         wScrn=  0.000000 ICntrl=       600 IOpCl=  0 I1Cent=           0 NGrid=           0
         NMat0=    1 NMatS0=   7750 NMatT0=    0 NMatD0=    1 NMtDS0=    0 NMtDT0=    0
 Symmetry not used in FoFCou.
 Two-electron integral symmetry not used.
 Closed shell SCF:
 Using DIIS extrapolation, IDIIS=  1040.
 NGot=  4294967296 LenX=  4264898079 LenY=  4264882262
 Requested convergence on RMS density matrix=1.00D-08 within 128 cycles.
 Requested convergence on MAX density matrix=1.00D-06.
 Requested convergence on             energy=1.00D-06.
 No special actions if energy rises.

 Cycle   1  Pass 1  IDiag  1:
 Inv3:  Mode=1 IEnd=     4657548.
 Iteration    1 A*A^-1 deviation from unit magnitude is 5.11D-15 for   1232.
 Iteration    1 A*A^-1 deviation from orthogonality  is 1.78D-15 for   1245   1084.
 Iteration    1 A^-1*A deviation from unit magnitude is 4.88D-15 for   1246.
 Iteration    1 A^-1*A deviation from orthogonality  is 1.86D-15 for    356     98.
 E= -706.396386357722    
 DIIS: error= 5.18D-03 at cycle   1 NSaved=   1.
 NSaved= 1 IEnMin= 1 EnMin= -706.396386357722     IErMin= 1 ErrMin= 5.18D-03
 ErrMax= 5.18D-03  0.00D+00 EMaxC= 1.00D-01 BMatC= 9.59D-03 BMatP= 9.59D-03
 IDIUse=3 WtCom= 9.48D-01 WtEn= 5.18D-02
 Coeff-Com:  0.100D+01
 Coeff-En:   0.100D+01
 Coeff:      0.100D+01
 Gap=     0.547 Goal=   None    Shift=    0.000
 GapD=    0.547 DampG=2.000 DampE=1.000 DampFc=2.0000 IDamp=-1.
 RMSDP=2.05D-03 MaxDP=4.27D-02              OVMax= 4.33D-02

 Cycle   2  Pass 1  IDiag  1:
 E= -706.412633696555     Delta-E=       -0.016247338833 Rises=F Damp=F
 DIIS: error= 1.64D-03 at cycle   2 NSaved=   2.
 NSaved= 2 IEnMin= 2 EnMin= -706.412633696555     IErMin= 2 ErrMin= 1.64D-03
 ErrMax= 1.64D-03  0.00D+00 EMaxC= 1.00D-01 BMatC= 6.26D-04 BMatP= 9.59D-03
 IDIUse=3 WtCom= 9.84D-01 WtEn= 1.64D-02
 Coeff-Com:  0.539D-01 0.946D+00
 Coeff-En:   0.000D+00 0.100D+01
 Coeff:      0.530D-01 0.947D+00
 Gap=     0.160 Goal=   None    Shift=    0.000
 RMSDP=5.89D-04 MaxDP=1.25D-02 DE=-1.62D-02 OVMax= 2.35D-02

 Cycle   3  Pass 1  IDiag  1:
 E= -706.412092641429     Delta-E=        0.000541055126 Rises=F Damp=F
 DIIS: error= 2.75D-03 at cycle   3 NSaved=   3.
 NSaved= 3 IEnMin= 2 EnMin= -706.412633696555     IErMin= 2 ErrMin= 1.64D-03
 ErrMax= 2.75D-03  0.00D+00 EMaxC= 1.00D-01 BMatC= 1.37D-03 BMatP= 6.26D-04
 IDIUse=3 WtCom= 1.60D-01 WtEn= 8.40D-01
 Coeff-Com: -0.294D-01 0.617D+00 0.412D+00
 Coeff-En:   0.000D+00 0.642D+00 0.358D+00
 Coeff:     -0.471D-02 0.638D+00 0.367D+00
 Gap=     0.153 Goal=   None    Shift=    0.000
 RMSDP=3.99D-04 MaxDP=1.26D-02 DE= 5.41D-04 OVMax= 1.24D-02

 Cycle   4  Pass 1  IDiag  1:
 E= -706.413228024286     Delta-E=       -0.001135382857 Rises=F Damp=F
 DIIS: error= 7.36D-04 at cycle   4 NSaved=   4.
 NSaved= 4 IEnMin= 4 EnMin= -706.413228024286     IErMin= 4 ErrMin= 7.36D-04
 ErrMax= 7.36D-04  0.00D+00 EMaxC= 1.00D-01 BMatC= 7.05D-05 BMatP= 6.26D-04
 IDIUse=3 WtCom= 9.93D-01 WtEn= 7.36D-03
 Coeff-Com: -0.247D-01 0.274D+00 0.230D+00 0.521D+00
 Coeff-En:   0.000D+00 0.000D+00 0.000D+00 0.100D+01
 Coeff:     -0.245D-01 0.272D+00 0.228D+00 0.524D+00
 Gap=     0.152 Goal=   None    Shift=    0.000
 RMSDP=1.18D-04 MaxDP=3.89D-03 DE=-1.14D-03 OVMax= 2.71D-03

 Cycle   5  Pass 1  IDiag  1:
 E= -706.413282068170     Delta-E=       -0.000054043884 Rises=F Damp=F
 DIIS: error= 1.83D-04 at cycle   5 NSaved=   5.
 NSaved= 5 IEnMin= 5 EnMin= -706.413282068170     IErMin= 5 ErrMin= 1.83D-04
 ErrMax= 1.83D-04  0.00D+00 EMaxC= 1.00D-01 BMatC= 7.99D-06 BMatP= 7.05D-05
 IDIUse=3 WtCom= 9.98D-01 WtEn= 1.83D-03
 Coeff-Com: -0.731D-02 0.708D-01 0.791D-01 0.286D+00 0.571D+00
 Coeff-En:   0.000D+00 0.000D+00 0.000D+00 0.737D-01 0.926D+00
 Coeff:     -0.730D-02 0.707D-01 0.790D-01 0.286D+00 0.572D+00
 Gap=     0.153 Goal=   None    Shift=    0.000
 RMSDP=7.41D-05 MaxDP=3.84D-03 DE=-5.40D-05 OVMax= 1.45D-03

 Cycle   6  Pass 1  IDiag  1:
 E= -706.413290194021     Delta-E=       -0.000008125851 Rises=F Damp=F
 DIIS: error= 5.62D-05 at cycle   6 NSaved=   6.
 NSaved= 6 IEnMin= 6 EnMin= -706.413290194021     IErMin= 6 ErrMin= 5.62D-05
 ErrMax= 5.62D-05  0.00D+00 EMaxC= 1.00D-01 BMatC= 1.00D-06 BMatP= 7.99D-06
 IDIUse=1 WtCom= 1.00D+00 WtEn= 0.00D+00
 Coeff-Com: -0.204D-02 0.131D-01 0.224D-01 0.114D+00 0.330D+00 0.523D+00
 Coeff:     -0.204D-02 0.131D-01 0.224D-01 0.114D+00 0.330D+00 0.523D+00
 Gap=     0.152 Goal=   None    Shift=    0.000
 RMSDP=1.54D-05 MaxDP=6.99D-04 DE=-8.13D-06 OVMax= 3.92D-04

 Cycle   7  Pass 1  IDiag  1:
 E= -706.413290984969     Delta-E=       -0.000000790949 Rises=F Damp=F
 DIIS: error= 3.18D-05 at cycle   7 NSaved=   7.
 NSaved= 7 IEnMin= 7 EnMin= -706.413290984969     IErMin= 7 ErrMin= 3.18D-05
 ErrMax= 3.18D-05  0.00D+00 EMaxC= 1.00D-01 BMatC= 2.49D-07 BMatP= 1.00D-06
 IDIUse=1 WtCom= 1.00D+00 WtEn= 0.00D+00
 Coeff-Com: -0.141D-03-0.408D-02 0.128D-02 0.317D-01 0.146D+00 0.361D+00
 Coeff-Com:  0.464D+00
 Coeff:     -0.141D-03-0.408D-02 0.128D-02 0.317D-01 0.146D+00 0.361D+00
 Coeff:      0.464D+00
 Gap=     0.152 Goal=   None    Shift=    0.000
 RMSDP=4.56D-06 MaxDP=1.12D-04 DE=-7.91D-07 OVMax= 1.96D-04

 Cycle   8  Pass 1  IDiag  1:
 E= -706.413291189781     Delta-E=       -0.000000204811 Rises=F Damp=F
 DIIS: error= 7.56D-06 at cycle   8 NSaved=   8.
 NSaved= 8 IEnMin= 8 EnMin= -706.413291189781     IErMin= 8 ErrMin= 7.56D-06
 ErrMax= 7.56D-06  0.00D+00 EMaxC= 1.00D-01 BMatC= 2.15D-08 BMatP= 2.49D-07
 IDIUse=1 WtCom= 1.00D+00 WtEn= 0.00D+00
 Coeff-Com:  0.263D-03-0.463D-02-0.326D-02-0.399D-03 0.357D-01 0.115D+00
 Coeff-Com:  0.273D+00 0.585D+00
 Coeff:      0.263D-03-0.463D-02-0.326D-02-0.399D-03 0.357D-01 0.115D+00
 Coeff:      0.273D+00 0.585D+00
 Gap=     0.152 Goal=   None    Shift=    0.000
 RMSDP=1.98D-06 MaxDP=5.29D-05 DE=-2.05D-07 OVMax= 6.61D-05

 Cycle   9  Pass 1  IDiag  1:
 E= -706.413291210576     Delta-E=       -0.000000020796 Rises=F Damp=F
 DIIS: error= 2.34D-06 at cycle   9 NSaved=   9.
 NSaved= 9 IEnMin= 9 EnMin= -706.413291210576     IErMin= 9 ErrMin= 2.34D-06
 ErrMax= 2.34D-06  0.00D+00 EMaxC= 1.00D-01 BMatC= 1.19D-09 BMatP= 2.15D-08
 IDIUse=1 WtCom= 1.00D+00 WtEn= 0.00D+00
 Coeff-Com:  0.117D-03-0.170D-02-0.174D-02-0.262D-02 0.568D-02 0.189D-01
 Coeff-Com:  0.845D-01 0.259D+00 0.638D+00
 Coeff:      0.117D-03-0.170D-02-0.174D-02-0.262D-02 0.568D-02 0.189D-01
 Coeff:      0.845D-01 0.259D+00 0.638D+00
 Gap=     0.152 Goal=   None    Shift=    0.000
 RMSDP=6.96D-07 MaxDP=3.15D-05 DE=-2.08D-08 OVMax= 2.18D-05

 Cycle  10  Pass 1  IDiag  1:
 E= -706.413291212105     Delta-E=       -0.000000001529 Rises=F Damp=F
 DIIS: error= 5.28D-07 at cycle  10 NSaved=  10.
 NSaved=10 IEnMin=10 EnMin= -706.413291212105     IErMin=10 ErrMin= 5.28D-07
 ErrMax= 5.28D-07  0.00D+00 EMaxC= 1.00D-01 BMatC= 8.76D-11 BMatP= 1.19D-09
 IDIUse=1 WtCom= 1.00D+00 WtEn= 0.00D+00
 Coeff-Com:  0.177D-04-0.100D-03-0.337D-03-0.889D-03-0.140D-02-0.630D-02
 Coeff-Com: -0.385D-03 0.347D-01 0.256D+00 0.718D+00
 Coeff:      0.177D-04-0.100D-03-0.337D-03-0.889D-03-0.140D-02-0.630D-02
 Coeff:     -0.385D-03 0.347D-01 0.256D+00 0.718D+00
 Gap=     0.152 Goal=   None    Shift=    0.000
 RMSDP=2.00D-07 MaxDP=8.99D-06 DE=-1.53D-09 OVMax= 4.37D-06

 Cycle  11  Pass 1  IDiag  1:
 E= -706.413291212216     Delta-E=       -0.000000000111 Rises=F Damp=F
 DIIS: error= 9.41D-08 at cycle  11 NSaved=  11.
 NSaved=11 IEnMin=11 EnMin= -706.413291212216     IErMin=11 ErrMin= 9.41D-08
 ErrMax= 9.41D-08  0.00D+00 EMaxC= 1.00D-01 BMatC= 1.68D-12 BMatP= 8.76D-11
 IDIUse=1 WtCom= 1.00D+00 WtEn= 0.00D+00
 Coeff-Com: -0.806D-06 0.542D-04 0.543D-05-0.109D-03-0.601D-03-0.222D-02
 Coeff-Com: -0.443D-02-0.312D-02 0.298D-01 0.160D+00 0.821D+00
 Coeff:     -0.806D-06 0.542D-04 0.543D-05-0.109D-03-0.601D-03-0.222D-02
 Coeff:     -0.443D-02-0.312D-02 0.298D-01 0.160D+00 0.821D+00
 Gap=     0.152 Goal=   None    Shift=    0.000
 RMSDP=6.23D-08 MaxDP=3.35D-06 DE=-1.11D-10 OVMax= 1.15D-06

 Cycle  12  Pass 1  IDiag  1:
 E= -706.413291212219     Delta-E=       -0.000000000003 Rises=F Damp=F
 DIIS: error= 1.74D-08 at cycle  12 NSaved=  12.
 NSaved=12 IEnMin=12 EnMin= -706.413291212219     IErMin=12 ErrMin= 1.74D-08
 ErrMax= 1.74D-08  0.00D+00 EMaxC= 1.00D-01 BMatC= 8.28D-14 BMatP= 1.68D-12
 IDIUse=1 WtCom= 1.00D+00 WtEn= 0.00D+00
 Coeff-Com: -0.805D-06 0.111D-04 0.154D-04 0.121D-04-0.394D-04-0.368D-04
 Coeff-Com: -0.726D-03-0.164D-02-0.539D-02-0.817D-02 0.133D+00 0.883D+00
 Coeff:     -0.805D-06 0.111D-04 0.154D-04 0.121D-04-0.394D-04-0.368D-04
 Coeff:     -0.726D-03-0.164D-02-0.539D-02-0.817D-02 0.133D+00 0.883D+00
 Gap=     0.152 Goal=   None    Shift=    0.000
 RMSDP=1.32D-08 MaxDP=5.91D-07 DE=-3.18D-12 OVMax= 3.94D-07

 Cycle  13  Pass 1  IDiag  1:
 E= -706.413291212220     Delta-E=       -0.000000000001 Rises=F Damp=F
 DIIS: error= 9.25D-09 at cycle  13 NSaved=  13.
 NSaved=13 IEnMin=13 EnMin= -706.413291212220     IErMin=13 ErrMin= 9.25D-09
 ErrMax= 9.25D-09  0.00D+00 EMaxC= 1.00D-01 BMatC= 1.86D-14 BMatP= 8.28D-14
 IDIUse=1 WtCom= 1.00D+00 WtEn= 0.00D+00
 Coeff-Com: -0.270D-06 0.835D-06 0.590D-05 0.152D-04 0.337D-04 0.157D-03
 Coeff-Com:  0.313D-04-0.450D-03-0.458D-02-0.160D-01-0.345D-02 0.377D+00
 Coeff-Com:  0.647D+00
 Coeff:     -0.270D-06 0.835D-06 0.590D-05 0.152D-04 0.337D-04 0.157D-03
 Coeff:      0.313D-04-0.450D-03-0.458D-02-0.160D-01-0.345D-02 0.377D+00
 Coeff:      0.647D+00
 Gap=     0.152 Goal=   None    Shift=    0.000
 RMSDP=1.62D-09 MaxDP=3.60D-08 DE=-1.14D-12 OVMax= 8.46D-08

 Error on total polarization charges =  0.02378
 SCF Done:  E(RB3LYP) =  -706.413291212     A.U. after   13 cycles
            NFock= 13  Conv=0.16D-08     -V/T= 2.0061
 KE= 7.021647791310D+02 PE=-2.129209855380D+03 EE= 4.948006335775D+02
 SMD-CDS (non-electrostatic) energy       (kcal/mol) =      -0.59
 (included in total energy above)
 Leave Link  502 at Wed Jan  8 02:03:51 2020, MaxMem=  4294967296 cpu:             483.7 elap:              35.8
 (Enter /home/cwagen/sw/g16/g16/l701.exe)
 ... and contract with generalized density number  0.
 Compute integral first derivatives.
 D1PCM: PCM CHGder 1st derivatives, ID1Alg=3 FixD1E=F DoIter=F DoCFld=F I1PDM=0.
 GePol: Maximum number of non-zero 1st derivatives   =     396
 Leave Link  701 at Wed Jan  8 02:03:56 2020, MaxMem=  4294967296 cpu:              63.0 elap:               5.0
 (Enter /home/cwagen/sw/g16/g16/l702.exe)
 L702 exits ... SP integral derivatives will be done elsewhere.
 Leave Link  702 at Wed Jan  8 02:03:56 2020, MaxMem=  4294967296 cpu:               1.2 elap:               0.1
 (Enter /home/cwagen/sw/g16/g16/l703.exe)
 Integral derivatives from FoFJK, PRISM(SPDF).
 Compute integral first derivatives, UseDBF=F ICtDFT=           0.
 Calling FoFJK, ICntrl=      2127 FMM=F ISym2X=0 I1Cent= 0 IOpClX= 0 NMat=1 NMatS=1 NMatT=0.
 FoFJK:  IHMeth= 1 ICntrl=    2127 DoSepK=F KAlg= 0 I1Cent=           0 FoldK=F
 IRaf=         0 NMat=       1 IRICut=       1 DoRegI=T DoRafI=F ISym2E= 0 IDoP0=0 IntGTp=1.
 FoFCou: FMM=F IPFlag=           0 FMFlag=      100000 FMFlg1=         800
         NFxFlg=           0 DoJE=F BraDBF=F KetDBF=F FulRan=T
         wScrn=  0.000000 ICntrl=      2127 IOpCl=  0 I1Cent=           0 NGrid=           0
         NMat0=    1 NMatS0=      1 NMatT0=    0 NMatD0=    1 NMtDS0=    0 NMtDT0=    0
 Symmetry not used in FoFCou.
 Leave Link  703 at Wed Jan  8 02:03:59 2020, MaxMem=  4294967296 cpu:              34.6 elap:               3.1
 (Enter /home/cwagen/sw/g16/g16/l716.exe)
 Dipole        = 2.01636980D+00 2.42913457D+00-9.78155310D-01
 ***** Axes restored to original set *****
 -------------------------------------------------------------------
 Center     Atomic                   Forces (Hartrees/Bohr)
 Number     Number              X              Y              Z
 -------------------------------------------------------------------
      1        6           0.066987268   -0.037031527   -0.044918369
      2        8          -0.013618214    0.027073960    0.045770829
      3        6          -0.016476685    0.023309365    0.005086101
      4        1           0.000550931    0.000063901   -0.001547038
      5        1           0.001475398    0.000292965   -0.000607116
      6        1           0.002485762    0.000692829   -0.001445394
      7       17           0.005550615   -0.007278206   -0.001160443
      8        6          -0.045220975   -0.006666605   -0.000991880
      9        7          -0.001734100   -0.000456682   -0.000186689
 -------------------------------------------------------------------
 Cartesian Forces:  Max     0.066987268 RMS     0.022708467
 Leave Link  716 at Wed Jan  8 02:04:00 2020, MaxMem=  4294967296 cpu:               1.0 elap:               0.1
 (Enter /home/cwagen/sw/g16/g16/l103.exe)

 GradGradGradGradGradGradGradGradGradGradGradGradGradGradGradGradGradGrad
 Berny optimization.
 Using GEDIIS/GDIIS optimizer.
 FormGI is forming the generalized inverse of G from B-inverse, IUseBI=4.
 Internal  Forces:  Max     0.048467912 RMS     0.014725240
 Search for a local minimum.
 Step number   2 out of a maximum of   41
 All quantities printed in internal units (Hartrees-Bohrs-Radians)
 RMS Force = .12580D-01 SwitMx=.10000D-02 MixMth= 1
 Mixed Optimization -- RFO/linear search
 Update second derivatives using D2CorX and points    1    2
 DE= -3.09D-02 DEPred=-2.65D-02 R= 1.17D+00
 TightC=F SS=  1.41D+00  RLast= 3.73D-01 DXNew= 5.0454D-01 1.1204D+00
 Trust test= 1.17D+00 RLast= 3.73D-01 DXMaxT set to 5.05D-01
 ITU=  1  0
 Use linear search instead of GDIIS.
     Eigenvalues ---    0.00230   0.04683   0.04746   0.05362   0.05438
     Eigenvalues ---    0.06041   0.09067   0.15970   0.16000   0.16213
     Eigenvalues ---    0.22920   0.25000   0.26403   0.28598   0.33915
     Eigenvalues ---    0.33995   0.34336   0.58184   1.220671000.00000
     Eigenvalues --- 1000.000001000.000001000.000001000.000001000.00000
     Eigenvalues --- 1000.000001000.000001000.000001000.000001000.00000
     Eigenvalues --- 1000.00000
 RFO step:  Lambda=-7.36417148D-03 EMin= 2.30185103D-03
 Quartic linear search produced a step of  0.90218.
 Iteration  1 RMS(Cart)=  0.11497534 RMS(Int)=  0.01782672
 Iteration  2 RMS(Cart)=  0.01591901 RMS(Int)=  0.01282426
 Iteration  3 RMS(Cart)=  0.00016709 RMS(Int)=  0.01282344
 Iteration  4 RMS(Cart)=  0.00000545 RMS(Int)=  0.01282344
 Iteration  5 RMS(Cart)=  0.00000015 RMS(Int)=  0.01282344
 Iteration  1 RMS(Cart)=  0.00000000 RMS(Int)=  0.00000000
 ITry= 1 IFail=0 DXMaxC= 2.78D-01 DCOld= 1.00D+10 DXMaxT= 5.05D-01 DXLimC= 3.00D+00 Rises=F
 Variable       Old X    -DE/DX   Delta X   Delta X   Delta X     New X
                                 (Linear)    (Quad)   (Total)
    R1        2.32711  -0.04847  -0.11292  -0.01341  -0.12633   2.20078
    R2        2.89481  -0.01424  -0.04530  -0.04139  -0.08669   2.80812
    R3        5.48021  -0.00912   0.00000   0.00000   0.00000   5.48021
    R4        3.40151  -0.04527   0.00000   0.00000   0.00000   3.40151
    R5        2.06689  -0.00133  -0.00580  -0.00037  -0.00617   2.06072
    R6        2.07223  -0.00142  -0.00222  -0.00522  -0.00744   2.06479
    R7        2.06558   0.00139  -0.00280   0.01106   0.00826   2.07383
    R8        2.20402  -0.00180  -0.00470   0.00203  -0.00267   2.20134
    A1        2.12652   0.02383   0.11715   0.05230   0.13968   2.26621
    A2        1.93014  -0.01004  -0.08023  -0.02900  -0.09280   1.83734
    A3        1.90950  -0.00075   0.01543   0.10737   0.07992   1.98941
    A4        1.82478  -0.01632  -0.08969  -0.07113  -0.14776   1.67702
    A5        1.88484   0.00511   0.10185  -0.04575   0.01835   1.90319
    A6        1.74975  -0.00831  -0.07672  -0.03893  -0.11087   1.63888
    A7        1.96244  -0.00051  -0.01041   0.01002  -0.00072   1.96172
    A8        1.90796   0.00031   0.02574  -0.03261  -0.00676   1.90120
    A9        1.85100  -0.00351  -0.04547   0.02485  -0.02089   1.83011
   A10        1.90749   0.00093   0.00354   0.00997   0.01351   1.92100
   A11        1.92429   0.00121   0.01436  -0.01025   0.00337   1.92766
   A12        1.90958   0.00152   0.01267  -0.00241   0.01052   1.92011
   A13        3.05497   0.00012  -0.03911   0.10449   0.06538   3.12035
   A14        2.94132  -0.00014   0.02672  -0.07338  -0.04667   2.89465
    D1       -3.14140   0.01181   0.08723   0.06639   0.16374  -2.97766
    D2       -1.01963   0.01287   0.10280   0.06288   0.17568  -0.84395
    D3        1.03745   0.01290   0.10673   0.05702   0.17339   1.21084
    D4       -0.94093   0.00047  -0.01270  -0.00212  -0.01703  -0.95796
    D5        1.18085   0.00153   0.00287  -0.00563  -0.00509   1.17575
    D6       -3.04526   0.00156   0.00680  -0.01149  -0.00738  -3.05264
    D7        0.91123  -0.01366  -0.09020  -0.09149  -0.18899   0.72224
    D8        3.03300  -0.01260  -0.07463  -0.09499  -0.17705   2.85595
    D9       -1.19311  -0.01257  -0.07070  -0.10085  -0.17934  -1.37244
         Item               Value     Threshold  Converged?
 Maximum Force            0.048468     0.000450     NO 
 RMS     Force            0.012580     0.000300     NO 
 Maximum Displacement     0.277641     0.001800     NO 
 RMS     Displacement     0.118121     0.001200     NO 
 Predicted change in Energy=-1.933173D-02
 Lowest energy point so far.  Saving SCF results.
 GradGradGradGradGradGradGradGradGradGradGradGradGradGradGradGradGradGrad

 Leave Link  103 at Wed Jan  8 02:04:06 2020, MaxMem=  4294967296 cpu:              77.8 elap:               6.1
 (Enter /home/cwagen/sw/g16/g16/l202.exe)
                          Input orientation:                          
 ---------------------------------------------------------------------
 Center     Atomic      Atomic             Coordinates (Angstroms)
 Number     Number       Type             X           Y           Z
 ---------------------------------------------------------------------
      1          6           0       -0.050905   -0.519034   -0.302632
      2          8           0       -0.265798   -0.608517   -1.443735
      3          6           0       -0.384183   -1.451941    0.804971
      4          1           0       -0.196258   -1.015591    1.786522
      5          1           0       -1.433666   -1.743614    0.719094
      6          1           0        0.262407   -2.323700    0.642797
      7         17           0       -1.722159    1.663785    0.620520
      8          6           0        1.487103    0.330703    0.087854
      9          7           0        2.552016    0.794790    0.174904
 ---------------------------------------------------------------------
                    Distance matrix (angstroms):
                    1          2          3          4          5
     1  C    0.000000
     2  O    1.164604   0.000000
     3  C    1.485993   2.404591   0.000000
     4  H    2.152269   3.256548   1.090485   0.000000
     5  H    2.110817   2.707432   1.092641   1.789022   0.000000
     6  H    2.061267   2.752175   1.097426   1.797117   1.794153
     7  Cl   2.900000   3.397866   3.395873   3.296512   3.421011
     8  C    1.800000   2.510092   2.682123   2.744391   3.637602
     9  N    2.954551   3.539682   3.750473   3.664396   4.756606
                    6          7          8          9
     6  H    0.000000
     7  Cl   4.454103   0.000000
     8  C    2.975516   3.515708   0.000000
     9  N    3.896949   4.384324   1.164902   0.000000
 Stoichiometry    C3H3ClNO(1-)
 Framework group  C1[X(C3H3ClNO)]
 Deg. of freedom    21
 Full point group                 C1      NOp   1
 RotChk:  IX=0 Diff= 1.08D-01
 Largest Abelian subgroup         C1      NOp   1
 Largest concise Abelian subgroup C1      NOp   1
                         Standard orientation:                         
 ---------------------------------------------------------------------
 Center     Atomic      Atomic             Coordinates (Angstroms)
 Number     Number       Type             X           Y           Z
 ---------------------------------------------------------------------
      1          6           0        0.522024    0.698400    0.233799
      2          8           0        0.581758    1.057211    1.340139
      3          6           0        0.435910    1.490359   -1.020617
      4          1           0        0.229248    0.867769   -1.891726
      5          1           0       -0.342873    2.248499   -0.908434
      6          1           0        1.417414    1.971614   -1.117505
      7         17           0       -2.076383   -0.563970   -0.020580
      8          6           0        1.429129   -0.821718   -0.092393
      9          7           0        2.145468   -1.737189   -0.168331
 ---------------------------------------------------------------------
 Rotational constants (GHZ):           2.9858100           1.6832091           1.3489837
 Leave Link  202 at Wed Jan  8 02:04:06 2020, MaxMem=  4294967296 cpu:               2.0 elap:               0.2
 (Enter /home/cwagen/sw/g16/g16/l301.exe)
 Standard basis: 6-31+G(d) (6D, 7F)
 Ernie: Thresh=  0.10000D-02 Tol=  0.10000D-05 Strict=F.
 There are   124 symmetry adapted cartesian basis functions of A   symmetry.
 There are   124 symmetry adapted basis functions of A   symmetry.
   124 basis functions,   228 primitive gaussians,   124 cartesian basis functions
    27 alpha electrons       27 beta electrons
       nuclear repulsion energy       231.0349961038 Hartrees.
 IExCor=  402 DFT=T Ex+Corr=B3LYP ExCW=0 ScaHFX=  0.200000
 ScaDFX=  0.800000  0.720000  1.000000  0.810000 ScalE2=  1.000000  1.000000
 IRadAn=      5 IRanWt=     -1 IRanGd=            0 ICorTp=0 IEmpDi=  4
 NAtoms=    9 NActive=    9 NUniq=    9 SFac= 1.00D+00 NAtFMM=   60 NAOKFM=F Big=F
 Integral buffers will be    131072 words long.
 Raffenetti 2 integral format.
 Two-electron integral symmetry is turned on.
 ------------------------------------------------------------------------------
 Polarizable Continuum Model (PCM)
 =================================
 Model                : PCM.
 Atomic radii         : SMD-Coulomb.
 Polarization charges : Total charges.
 Charge compensation  : None.
 Solution method      : On-the-fly selection.
 Cavity type          : VdW (van der Waals Surface) (Alpha=1.000).
 Cavity algorithm     : GePol (No added spheres)
                        Default sphere list used, NSphG=    9.
                        Lebedev-Laikov grids with approx.  5.0 points / Ang**2.
                        Smoothing algorithm: York/Karplus (Gamma=1.0000).
                        Polarization charges: spherical gaussians, with
                                              point-specific exponents (IZeta= 3).
                        Self-potential: point-specific (ISelfS= 7).
                        Self-field    : sphere-specific E.n sum rule (ISelfD= 2).
 1st derivatives      : Analytical E(r).r(x)/FMM algorithm (CHGder, D1EAlg=3).
                        Cavity 1st derivative terms included.
 Solvent              : TetraHydroFuran, Eps=   7.425700 Eps(inf)=   1.974025
 ------------------------------------------------------------------------------
 Spheres list:
 ISph  on   Nord     Re0    Alpha      Xe            Ye            Ze
    1   C      1    1.8500  1.000      0.522024      0.698400      0.233799
    2   O      2    2.2940  1.000      0.581758      1.057211      1.340139
    3   C      3    1.8500  1.000      0.435910      1.490359     -1.020617
    4   H      4    1.2000  1.000      0.229248      0.867769     -1.891726
    5   H      5    1.2000  1.000     -0.342873      2.248499     -0.908434
    6   H      6    1.2000  1.000      1.417414      1.971614     -1.117505
    7  Cl      7    2.3800  1.000     -2.076383     -0.563970     -0.020580
    8   C      8    1.8500  1.000      1.429129     -0.821718     -0.092393
    9   N      9    1.8900  1.000      2.145468     -1.737189     -0.168331
 ------------------------------------------------------------------------------
 GePol: Number of generator spheres                  =       9
 GePol: Total number of spheres                      =       9
 GePol: Number of exposed spheres                    =       9 (100.00%)
 GePol: Number of points                             =    1232
 GePol: Average weight of points                     =       0.14
 GePol: Minimum weight of points                     =   0.80D-07
 GePol: Maximum weight of points                     =    0.18138
 GePol: Number of points with low weight             =      27
 GePol: Fraction of low-weight points (<1% of avg)   =       2.19%
 GePol: Cavity surface area                          =    168.635 Ang**2
 GePol: Cavity volume                                =    152.619 Ang**3
 ------------------------------------------------------------------------------
 Atomic radii for non-electrostatic terms: SMD-CDS.
 ------------------------------------------------------------------------------
 PCM non-electrostatic energy =        -0.0009869151 Hartrees.
 Nuclear repulsion after PCM non-electrostatic terms =      231.0340091887 Hartrees.
[...]
 DIIS inversion failure, remove point   4.
 InvSVX:  RCond= 3.78D-08 Info=           0 Equed=N FErr=  1.39D-14 BErr=  8.26D-17
 DIIS inversion failure, remove point   3.
 InvSVX:  RCond= 5.16D-03 Info=           0 Equed=N FErr=  9.25D-16 BErr=  8.48D-17
 RFO-DIIS uses    2 points instead of   10
 EnCoef did   100 forward-backward iterations
 IWarn =    2
 Energies =   -706.433769131      -706.433758248      -706.433754955      -706.433769452      -706.433751354    
 Energies =   -706.433749156      -706.433769203      -706.433749076      -706.433769269      -706.433748254    
 Point number   8 has energy  -0.7064337491D+03 and has been removed
 EnCoef did   100 forward-backward iterations
 IWarn =    2
 Energies =   -706.433769131      -706.433758248      -706.433754955      -706.433769452      -706.433751354    
 Energies =   -706.433749156      -706.433769203      -706.433769269      -706.433748254    
 Point number   6 has energy  -0.7064337492D+03 and has been removed
 EnCoef did   100 forward-backward iterations
 Rare condition: small coef for last iteration:  0.470D-06
 IWarn =    1
 Energies =   -706.433769131      -706.433758248      -706.433754955      -706.433769452      -706.433751354    
 Energies =   -706.433769203      -706.433769269      -706.433748254    
 Point number   5 has energy  -0.7064337514D+03 and has been removed
 EnCoef did   100 forward-backward iterations
 IWarn =    2
 Energies =   -706.433769131      -706.433758248      -706.433754955      -706.433769452      -706.433769203    
 Energies =   -706.433769269      -706.433748254    
 Point number   3 has energy  -0.7064337550D+03 and has been removed
 EnCoef did   100 forward-backward iterations
 IWarn =    2
 Energies =   -706.433769131      -706.433758248      -706.433769452      -706.433769203      -706.433769269    
 Energies =   -706.433748254    
 Point number   2 has energy  -0.7064337582D+03 and has been removed
 EnCoef did   100 forward-backward iterations
 IWarn =    2
 Energies =   -706.433769131      -706.433769452      -706.433769203      -706.433769269      -706.433748254    
 Point number   1 has energy  -0.7064337691D+03 and has been removed
 IWarn =    0
 DidBck=T Rises=T En-DIIS coefs:    0.01255    0.98745    0.00000    0.00000    0.00000
                  En-DIIS coefs:    0.00000    0.00000    0.00000    0.00000    0.00000
 Iteration  1 RMS(Cart)=  0.00016315 RMS(Int)=  0.00000675
 Iteration  2 RMS(Cart)=  0.00000001 RMS(Int)=  0.00000675
 Iteration  1 RMS(Cart)=  0.00000000 RMS(Int)=  0.00000000
 ITry= 1 IFail=0 DXMaxC= 4.90D-04 DCOld= 1.00D+10 DXMaxT= 5.00D-02 DXLimC= 3.00D+00 Rises=F
 Variable       Old X    -DE/DX   Delta X   Delta X   Delta X     New X
                                 (Linear)    (Quad)   (Total)
    R1        2.24300   0.00000  -0.00040   0.00040   0.00000   2.24300
    R2        2.81043   0.00000  -0.00039   0.00039   0.00000   2.81043
    R3        5.48021   0.00202   0.00000   0.00000   0.00000   5.48021
    R4        3.40151  -0.04671   0.00000   0.00000   0.00000   3.40151
    R5        2.05844   0.00000  -0.00026   0.00026   0.00000   2.05844
    R6        2.06578   0.00000  -0.00041   0.00041   0.00000   2.06578
    R7        2.07901   0.00000   0.00033  -0.00033   0.00000   2.07901
    R8        2.20245   0.00000  -0.00017   0.00017   0.00000   2.20245
    A1        2.30267   0.00000  -0.00122   0.00122   0.00000   2.30268
    A2        1.78915   0.00000  -0.00224   0.00221   0.00000   1.78915
    A3        2.02985   0.00000  -0.00287   0.00284  -0.00003   2.02983
    A4        1.59404  -0.00001  -0.00929   0.00921  -0.00007   1.59397
    A5        1.92218   0.00000   0.00385  -0.00383   0.00002   1.92220
    A6        1.51847   0.00000   0.01602  -0.01589   0.00012   1.51859
    A7        1.94091   0.00000   0.00183  -0.00182   0.00001   1.94092
    A8        1.91115   0.00000  -0.00213   0.00213   0.00001   1.91115
    A9        1.86484   0.00000   0.00019  -0.00020  -0.00001   1.86483
   A10        1.93330   0.00000   0.00149  -0.00150  -0.00001   1.93329
   A11        1.90266   0.00000  -0.00091   0.00093   0.00001   1.90268
   A12        1.90952   0.00000  -0.00055   0.00054  -0.00001   1.90951
   A13        3.13184   0.00000   0.00192  -0.00196  -0.00003   3.13181
   A14        3.00793   0.00000  -0.00237   0.00220  -0.00017   3.00776
    D1       -2.66381   0.00000  -0.01730   0.01708  -0.00022  -2.66403
    D2       -0.52148   0.00000  -0.01565   0.01542  -0.00022  -0.52170
    D3        1.54491   0.00000  -0.01734   0.01710  -0.00023   1.54468
    D4       -0.77556   0.00000  -0.02957   0.02930  -0.00028  -0.77584
    D5        1.36678   0.00000  -0.02793   0.02765  -0.00029   1.36649
    D6       -2.85002   0.00000  -0.02961   0.02932  -0.00030  -2.85032
    D7        0.74802   0.00000  -0.01591   0.01573  -0.00018   0.74784
    D8        2.89035   0.00000  -0.01426   0.01407  -0.00019   2.89017
    D9       -1.32644   0.00000  -0.01595   0.01575  -0.00020  -1.32664
         Item               Value     Threshold  Converged?
 Maximum Force            0.000006     0.000450     YES
 RMS     Force            0.000002     0.000300     YES
 Maximum Displacement     0.000490     0.001800     YES
 RMS     Displacement     0.000163     0.001200     YES
 Predicted change in Energy=-8.838946D-10
 Optimization completed.
    -- Stationary point found.
                           ----------------------------
                           !   Optimized Parameters   !
                           ! (Angstroms and Degrees)  !
 --------------------------                            --------------------------
 ! Name  Definition              Value          Derivative Info.                !
 --------------------------------------------------------------------------------
 ! R1    R(1,2)                  1.1869         -DE/DX =    0.0                 !
 ! R2    R(1,3)                  1.4872         -DE/DX =    0.0                 !
 ! R3    R(1,7)                  2.9            -DE/DX =    0.002               !
 ! R4    R(1,8)                  1.8            -DE/DX =   -0.0467              !
 ! R5    R(3,4)                  1.0893         -DE/DX =    0.0                 !
 ! R6    R(3,5)                  1.0932         -DE/DX =    0.0                 !
 ! R7    R(3,6)                  1.1002         -DE/DX =    0.0                 !
 ! R8    R(8,9)                  1.1655         -DE/DX =    0.0                 !
 ! A1    A(2,1,3)              131.9335         -DE/DX =    0.0                 !
 ! A2    A(2,1,7)              102.5107         -DE/DX =    0.0                 !
 ! A3    A(2,1,8)              116.302          -DE/DX =    0.0                 !
 ! A4    A(3,1,7)               91.3317         -DE/DX =    0.0                 !
 ! A5    A(3,1,8)              110.1326         -DE/DX =    0.0                 !
 ! A6    A(7,1,8)               87.0017         -DE/DX =    0.0                 !
 ! A7    A(1,3,4)              111.206          -DE/DX =    0.0                 !
 ! A8    A(1,3,5)              109.5006         -DE/DX =    0.0                 !
 ! A9    A(1,3,6)              106.8476         -DE/DX =    0.0                 !
 ! A10   A(4,3,5)              110.7701         -DE/DX =    0.0                 !
 ! A11   A(4,3,6)              109.0147         -DE/DX =    0.0                 !
 ! A12   A(5,3,6)              109.4076         -DE/DX =    0.0                 !
 ! A13   L(1,8,9,6,-1)         179.4411         -DE/DX =    0.0                 !
 ! A14   L(1,8,9,6,-2)         172.3414         -DE/DX =    0.0                 !
 ! D1    D(2,1,3,4)           -152.6249         -DE/DX =    0.0                 !
 ! D2    D(2,1,3,5)            -29.8784         -DE/DX =    0.0                 !
 ! D3    D(2,1,3,6)             88.517          -DE/DX =    0.0                 !
 ! D4    D(7,1,3,4)            -44.436          -DE/DX =    0.0                 !
 ! D5    D(7,1,3,5)             78.3105         -DE/DX =    0.0                 !
 ! D6    D(7,1,3,6)           -163.2941         -DE/DX =    0.0                 !
 ! D7    D(8,1,3,4)             42.8585         -DE/DX =    0.0                 !
 ! D8    D(8,1,3,5)            165.605          -DE/DX =    0.0                 !
 ! D9    D(8,1,3,6)            -75.9996         -DE/DX =    0.0                 !
 --------------------------------------------------------------------------------
 Largest change from initial coordinates is atom    6       0.365 Angstoms.
 GradGradGradGradGradGradGradGradGradGradGradGradGradGradGradGradGradGrad

 Leave Link  103 at Wed Jan  8 02:16:27 2020, MaxMem=  4294967296 cpu:              41.5 elap:               3.6
 (Enter /home/cwagen/sw/g16/g16/l202.exe)
                          Input orientation:                          
 ---------------------------------------------------------------------
 Center     Atomic      Atomic             Coordinates (Angstroms)
 Number     Number       Type             X           Y           Z
 ---------------------------------------------------------------------
      1          6           0       -0.013492   -0.597048   -0.358371
      2          8           0       -0.342391   -0.597414   -1.498836
      3          6           0       -0.402009   -1.460751    0.788314
      4          1           0       -0.307817   -0.927082    1.733226
      5          1           0       -1.425038   -1.818544    0.645483
      6          1           0        0.288026   -2.317611    0.790258
      7         17           0       -1.513317    1.634979    0.727253
      8          6           0        1.475778    0.331301    0.041931
      9          7           0        2.488818    0.879050    0.221035
 ---------------------------------------------------------------------
                    Distance matrix (angstroms):
                    1          2          3          4          5
     1  C    0.000000
     2  O    1.186944   0.000000
     3  C    1.487217   2.445396   0.000000
     4  H    2.137832   3.249016   1.089282   0.000000
     5  H    2.119490   2.694697   1.093163   1.796127   0.000000
     6  H    2.090597   2.931970   1.100164   1.782635   1.790144
     7  Cl   2.900000   3.363052   3.289724   3.004891   3.455619
     8  C    1.800000   2.557775   2.700856   2.761379   3.660716
     9  N    2.962454   3.626796   3.762095   3.656501   4.772362
                    6          7          8          9
     6  H    0.000000
     7  Cl   4.344165   0.000000
     8  C    2.997913   3.332256   0.000000
     9  N    3.922517   4.104238   1.165486   0.000000
 Stoichiometry    C3H3ClNO(1-)
 Framework group  C1[X(C3H3ClNO)]
 Deg. of freedom    21
 Full point group                 C1      NOp   1
 RotChk:  IX=3 Diff= 1.14D-15
 Largest Abelian subgroup         C1      NOp   1
 Largest concise Abelian subgroup C1      NOp   1
                         Standard orientation:                         
 ---------------------------------------------------------------------
 Center     Atomic      Atomic             Coordinates (Angstroms)
 Number     Number       Type             X           Y           Z
 ---------------------------------------------------------------------
      1          6           0        0.612438    0.761889    0.214908
      2          8           0        0.610473    1.165029    1.331291
      3          6           0        0.410119    1.446980   -1.089519
      4          1           0        0.009781    0.762363   -1.836221
      5          1           0       -0.255235    2.303455   -0.952550
      6          1           0        1.397899    1.800676   -1.420502
      7         17           0       -1.972923   -0.535947    0.011114
      8          6           0        1.342808   -0.862583   -0.045186
      9          7           0        1.901609   -1.879049   -0.158744
 ---------------------------------------------------------------------
 Rotational constants (GHZ):           2.7949727           1.8577057           1.4257667
 Leave Link  202 at Wed Jan  8 02:16:27 2020, MaxMem=  4294967296 cpu:               2.2 elap:               0.2
 (Enter /home/cwagen/sw/g16/g16/l601.exe)
 Copying SCF densities to generalized density rwf, IOpCl= 0 IROHF=0.

 **********************************************************************

            Population analysis using the SCF density.

 **********************************************************************

 Orbital symmetries:
       Occupied  (A) (A) (A) (A) (A) (A) (A) (A) (A) (A) (A) (A)
                 (A) (A) (A) (A) (A) (A) (A) (A) (A) (A) (A) (A)
                 (A) (A) (A)
       Virtual   (A) (A) (A) (A) (A) (A) (A) (A) (A) (A) (A) (A)
                 (A) (A) (A) (A) (A) (A) (A) (A) (A) (A) (A) (A)
                 (A) (A) (A) (A) (A) (A) (A) (A) (A) (A) (A) (A)
                 (A) (A) (A) (A) (A) (A) (A) (A) (A) (A) (A) (A)
                 (A) (A) (A) (A) (A) (A) (A) (A) (A) (A) (A) (A)
                 (A) (A) (A) (A) (A) (A) (A) (A) (A) (A) (A) (A)
                 (A) (A) (A) (A) (A) (A) (A) (A) (A) (A) (A) (A)
                 (A) (A) (A) (A) (A) (A) (A) (A) (A) (A) (A) (A)
                 (A)
 The electronic state is 1-A.
 Alpha  occ. eigenvalues -- -101.41655 -19.18059 -14.32904 -10.33688 -10.21929
 Alpha  occ. eigenvalues --  -10.19252  -9.33010  -7.08836  -7.08766  -7.08760
 Alpha  occ. eigenvalues --   -1.08560  -0.88922  -0.75766  -0.66994  -0.57421
 Alpha  occ. eigenvalues --   -0.49480  -0.45679  -0.45047  -0.40149  -0.37796
 Alpha  occ. eigenvalues --   -0.37133  -0.32924  -0.32801  -0.28784  -0.21586
 Alpha  occ. eigenvalues --   -0.21393  -0.21377
 Alpha virt. eigenvalues --   -0.03757   0.01652   0.02829   0.03741   0.05239
 Alpha virt. eigenvalues --    0.06566   0.06686   0.08082   0.09242   0.09641
 Alpha virt. eigenvalues --    0.10289   0.10533   0.10711   0.13046   0.13469
 Alpha virt. eigenvalues --    0.14074   0.14337   0.16753   0.17277   0.20740
 Alpha virt. eigenvalues --    0.22652   0.23885   0.24892   0.25247   0.26129
 Alpha virt. eigenvalues --    0.27786   0.29038   0.30979   0.32133   0.35247
 Alpha virt. eigenvalues --    0.36963   0.40630   0.48413   0.60977   0.62226
 Alpha virt. eigenvalues --    0.65461   0.66572   0.69221   0.69374   0.72616
 Alpha virt. eigenvalues --    0.75157   0.77991   0.79639   0.81390   0.81818
 Alpha virt. eigenvalues --    0.84130   0.89533   0.94545   0.97748   0.99045
 Alpha virt. eigenvalues --    0.99348   0.99912   1.01444   1.02162   1.02587
 Alpha virt. eigenvalues --    1.03757   1.09244   1.13804   1.16351   1.21698
 Alpha virt. eigenvalues --    1.27427   1.30208   1.32916   1.37558   1.42809
 Alpha virt. eigenvalues --    1.48410   1.54538   1.55541   1.58160   1.62854
 Alpha virt. eigenvalues --    1.66222   1.67984   1.79691   1.83749   1.87221
 Alpha virt. eigenvalues --    1.92851   1.97478   1.98375   2.05452   2.12645
 Alpha virt. eigenvalues --    2.22737   2.28816   2.40145   2.50069   2.59817
 Alpha virt. eigenvalues --    2.63845   2.72637   2.75652   2.90137   3.14642
 Alpha virt. eigenvalues --    3.15712   4.10645   4.15924   4.27758   4.36372
 Alpha virt. eigenvalues --    4.42743   4.52846
          Condensed to atoms (all electrons):
               1          2          3          4          5          6
     1  C    5.638096   0.589007  -0.076748  -0.091948  -0.096494   0.032595
     2  O    0.589007   7.966806  -0.086965   0.007166   0.002908  -0.006123
     3  C   -0.076748  -0.086965   5.939843   0.400045   0.400379   0.326430
     4  H   -0.091948   0.007166   0.400045   0.429294  -0.018077  -0.023423
     5  H   -0.096494   0.002908   0.400379  -0.018077   0.444110  -0.021721
     6  H    0.032595  -0.006123   0.326430  -0.023423  -0.021721   0.450849
     7  Cl   0.237726  -0.051191  -0.114714  -0.001585  -0.003834   0.003339
     8  C   -0.682235  -0.117532  -0.068885   0.024182   0.031297  -0.029435
     9  N   -0.025141  -0.001593  -0.015164   0.000275  -0.000060  -0.000706
               7          8          9
     1  C    0.237726  -0.682235  -0.025141
     2  O   -0.051191  -0.117532  -0.001593
     3  C   -0.114714  -0.068885  -0.015164
     4  H   -0.001585   0.024182   0.000275
     5  H   -0.003834   0.031297  -0.000060
     6  H    0.003339  -0.029435  -0.000706
     7  Cl  17.914042  -0.085920  -0.015651
     8  C   -0.085920   6.133628   0.604711
     9  N   -0.015651   0.604711   7.033507
 Mulliken charges:
               1
     1  C    0.475142
     2  O   -0.302483
     3  C   -0.704221
     4  H    0.274071
     5  H    0.261494
     6  H    0.268196
     7  Cl  -0.882209
     8  C    0.190189
     9  N   -0.580179
 Sum of Mulliken charges =  -1.00000
 Mulliken charges with hydrogens summed into heavy atoms:
               1
     1  C    0.475142
     2  O   -0.302483
     3  C    0.099540
     7  Cl  -0.882209
     8  C    0.190189
     9  N   -0.580179
 Electronic spatial extent (au):  <R**2>=            873.7959
 Charge=             -1.0000 electrons
 Dipole moment (field-independent basis, Debye):
    X=              5.6799    Y=              6.9522    Z=             -2.8242  Tot=              9.4112
 Quadrupole moment (field-independent basis, Debye-Ang):
   XX=            -70.5498   YY=            -54.6052   ZZ=            -47.5796
   XY=              3.4397   XZ=             -0.8775   YZ=             -5.0703
 Traceless Quadrupole moment (field-independent basis, Debye-Ang):
   XX=            -12.9716   YY=              2.9730   ZZ=              9.9986
   XY=              3.4397   XZ=             -0.8775   YZ=             -5.0703
 Octapole moment (field-independent basis, Debye-Ang**2):
  XXX=             33.9946  YYY=             36.1366  ZZZ=             -3.9649  XYY=            -10.6362
  XXY=             32.6090  XXZ=              0.8780  XZZ=              2.7679  YZZ=              2.8988
  YYZ=             -3.5015  XYZ=             -4.2905
 Hexadecapole moment (field-independent basis, Debye-Ang**3):
 XXXX=           -790.1055 YYYY=           -448.7480 ZZZZ=           -186.7138 XXXY=             24.0993
 XXXZ=              4.3500 YYYX=             37.5281 YYYZ=            -11.3849 ZZZX=             -0.3850
 ZZZY=             -4.6108 XXYY=           -222.2759 XXZZ=           -146.5805 YYZZ=           -103.0845
 XXYZ=             -5.6187 YYXZ=              0.8942 ZZXY=              0.5853
 N-N= 2.326646140235D+02 E-N=-2.143263755273D+03  KE= 7.023866120573D+02
 No NMR shielding tensors so no spin-rotation constants.
 Leave Link  601 at Wed Jan  8 02:16:28 2020, MaxMem=  4294967296 cpu:              14.7 elap:               1.4
 (Enter /home/cwagen/sw/g16/g16/l9999.exe)
 1\1\GINC-NODE041\FOpt\RB3LYP\6-31+G(d)\C3H3Cl1N1O1(1-)\CWAGEN\08-Jan-2
 020\0\\#p opt=modredundant b3lyp/6-31+g(d) scrf=(smd, solvent=tetrahyd
 rofuran)\\title\\-1,1\C,-0.0134922167,-0.597048432,-0.3583706267\O,-0.
 3423908442,-0.5974143849,-1.4988360388\C,-0.4020091776,-1.4607514935,0
 .7883137328\H,-0.3078168832,-0.9270817766,1.7332262803\H,-1.4250382599
 ,-1.8185441079,0.6454834986\H,0.2880260079,-2.3176105542,0.7902576728\
 Cl,-1.5133170951,1.6349791342,0.7272528199\C,1.4757776744,0.3313014769
 ,0.0419313022\N,2.4888177944,0.8790497879,0.2210351488\\Version=AS64L-
 G16RevA.03\State=1-A\HF=-706.4337483\RMSD=9.384e-09\RMSF=1.271e-02\Dip
 ole=0.5966229,-3.6539658,-0.0462421\Quadrupole=-8.8145191,4.1093745,4.
 7051446,3.4364033,1.4219107,-5.0558464\PG=C01 [X(C3H3Cl1N1O1)]\\@


 Some scientists claim that hydrogen, because it is so
 plentiful, is the basic building block of the universe. 
 I dispute that. I say that stupidity is far more
 abundant than hydrogen, and THAT is the basic building 
 block of the universe.
                   --Frank Zappa
 Job cpu time:       0 days  2 hours 56 minutes 49.8 seconds.
 Elapsed time:       0 days  0 hours 14 minutes 15.2 seconds.
 File lengths (MBytes):  RWF=     38 Int=      0 D2E=      0 Chk=      3 Scr=      1
 Normal termination of Gaussian 16 at Wed Jan  8 02:16:29 2020.
