 Entering Gaussian System, Link 0=g16
 Input=scan_300_280.gjf
 Output=scan_300_280.out
 Initial command:
 /home/cwagen/sw/g16/g16/l1.exe "/scratch/users/cwagen/cwagen_scan_300_280/Gau-8194.inp" -scrdir="/scratch/users/cwagen/cwagen_scan_300_280/"
 Entering Link 1 = /home/cwagen/sw/g16/g16/l1.exe PID=      8195.
  
 Copyright (c) 1988,1990,1992,1993,1995,1998,2003,2009,2016,
            Gaussian, Inc.  All Rights Reserved.
  
 This is part of the Gaussian(R) 16 program.  It is based on
 the Gaussian(R) 09 system (copyright 2009, Gaussian, Inc.),
 the Gaussian(R) 03 system (copyright 2003, Gaussian, Inc.),
 the Gaussian(R) 98 system (copyright 1998, Gaussian, Inc.),
 the Gaussian(R) 94 system (copyright 1995, Gaussian, Inc.),
 the Gaussian 92(TM) system (copyright 1992, Gaussian, Inc.),
 the Gaussian 90(TM) system (copyright 1990, Gaussian, Inc.),
 the Gaussian 88(TM) system (copyright 1988, Gaussian, Inc.),
 the Gaussian 86(TM) system (copyright 1986, Carnegie Mellon
 University), and the Gaussian 82(TM) system (copyright 1983,
 Carnegie Mellon University). Gaussian is a federally registered
 trademark of Gaussian, Inc.
  
 This software contains proprietary and confidential information,
 including trade secrets, belonging to Gaussian, Inc.
  
 This software is provided under written license and may be
 used, copied, transmitted, or stored only in accord with that
 written license.
  
 The following legend is applicable only to US Government
 contracts under FAR:
  
                    RESTRICTED RIGHTS LEGEND
  
 Use, reproduction and disclosure by the US Government is
 subject to restrictions as set forth in subparagraphs (a)
 and (c) of the Commercial Computer Software - Restricted
 Rights clause in FAR 52.227-19.
  
 Gaussian, Inc.
 340 Quinnipiac St., Bldg. 40, Wallingford CT 06492
  
  
 ---------------------------------------------------------------
 Warning -- This program may not be used in any manner that
 competes with the business of Gaussian, Inc. or will provide
 assistance to any competitor of Gaussian, Inc.  The licensee
 of this program is prohibited from giving any competitor of
 Gaussian, Inc. access to this program.  By using this program,
 the user acknowledges that Gaussian, Inc. is engaged in the
 business of creating and licensing software in the field of
 computational chemistry and represents and warrants to the
 licensee that it is not a competitor of Gaussian, Inc. and that
 it will not use this program in any manner prohibited above.
 ---------------------------------------------------------------
  

 Cite this work as:
 Gaussian 16, Revision A.03,
 M. J. Frisch, G. W. Trucks, H. B. Schlegel, G. E. Scuseria, 
 M. A. Robb, J. R. Cheeseman, G. Scalmani, V. Barone, 
 G. A. Petersson, H. Nakatsuji, X. Li, M. Caricato, A. V. Marenich, 
 J. Bloino, B. G. Janesko, R. Gomperts, B. Mennucci, H. P. Hratchian, 
 J. V. Ortiz, A. F. Izmaylov, J. L. Sonnenberg, D. Williams-Young, 
 F. Ding, F. Lipparini, F. Egidi, J. Goings, B. Peng, A. Petrone, 
 T. Henderson, D. Ranasinghe, V. G. Zakrzewski, J. Gao, N. Rega, 
 G. Zheng, W. Liang, M. Hada, M. Ehara, K. Toyota, R. Fukuda, 
 J. Hasegawa, M. Ishida, T. Nakajima, Y. Honda, O. Kitao, H. Nakai, 
 T. Vreven, K. Throssell, J. A. Montgomery, Jr., J. E. Peralta, 
 F. Ogliaro, M. J. Bearpark, J. J. Heyd, E. N. Brothers, K. N. Kudin, 
 V. N. Staroverov, T. A. Keith, R. Kobayashi, J. Normand, 
 K. Raghavachari, A. P. Rendell, J. C. Burant, S. S. Iyengar, 
 J. Tomasi, M. Cossi, J. M. Millam, M. Klene, C. Adamo, R. Cammi, 
 J. W. Ochterski, R. L. Martin, K. Morokuma, O. Farkas, 
 J. B. Foresman, and D. J. Fox, Gaussian, Inc., Wallingford CT, 2016.
 
 ******************************************
 Gaussian 16:  AS64L-G16RevA.03 25-Dec-2016
                 8-Jan-2020 
 ******************************************
 %nprocshared=16
 Will use up to   16 processors via shared memory.
 %mem=32GB
 ----------------------------------------------------------------------
 #p opt=modredundant b3lyp/6-31+g(d) scrf=(smd, solvent=tetrahydrofuran
 )
 ----------------------------------------------------------------------
 1/18=120,19=15,26=3,38=1/1,3;
 2/9=110,12=2,17=6,18=5,40=1/2;
 3/5=1,6=6,7=11,11=2,25=1,30=1,70=32201,71=1,72=20,74=-5/1,2,3;
 4//1;
 5/5=2,38=5,53=20/2;
 6/7=2,8=2,9=2,10=2,28=1/1;
 7//1,2,3,16;
 1/18=20,19=15,26=3/3(2);
 2/9=110/2;
 99//99;
 2/9=110/2;
 3/5=1,6=6,7=11,11=2,25=1,30=1,70=32205,71=1,72=20,74=-5/1,2,3;
 4/5=5,16=3,69=1/1;
 5/5=2,38=5,53=20/2;
 7//1,2,3,16;
 1/18=20,19=15,26=3/3(-5);
 2/9=110/2;
 6/7=2,8=2,9=2,10=2,19=2,28=1/1;
 99/9=1/99;
 Leave Link    1 at Wed Jan  8 02:22:47 2020, MaxMem=  4294967296 cpu:               1.9 elap:               0.2
 (Enter /home/cwagen/sw/g16/g16/l101.exe)
 -----
 title
 -----
 Symbolic Z-matrix:
 Charge = -1 Multiplicity = 1
 6                    -0.19426  -0.292    -0.21291 
 8                    -0.25532  -0.66526  -1.45426 
 6                    -0.33095  -1.45422   0.81632 
 1                    -0.18039  -1.13044   1.85373 
 1                    -1.34067  -1.87301   0.71427 
 1                     0.39707  -2.23395   0.57058 
 17                   -1.99048   1.98666   0.54955 
 6                     2.40168   0.61703   0.31126 
 7                     3.53625   0.89733   0.34157 
 
 Add virtual bond connecting atoms C8         and C1         Dist= 5.29D+00.
 Add virtual bond connecting atoms Cl7        and C1         Dist= 5.67D+00.
 The following ModRedundant input section has been read:
 B       1       7 F                                                           
 B       1       8 F                                                           
 
 ITRead=  0  0  0  0  0  0  0  0  0
 MicOpt= -1 -1 -1 -1 -1 -1 -1 -1 -1
 NAtoms=      9 NQM=        9 NQMF=       0 NMMI=      0 NMMIF=      0
                NMic=       0 NMicF=      0.
                    Isotopes and Nuclear Properties:
 (Nuclear quadrupole moments (NQMom) in fm**2, nuclear magnetic moments (NMagM)
  in nuclear magnetons)

  Atom         1           2           3           4           5           6           7           8           9
 IAtWgt=          12          16          12           1           1           1          35          12          14
 AtmWgt=  12.0000000  15.9949146  12.0000000   1.0078250   1.0078250   1.0078250  34.9688527  12.0000000  14.0030740
 NucSpn=           0           0           0           1           1           1           3           0           2
 AtZEff=   0.0000000   0.0000000   0.0000000   0.0000000   0.0000000   0.0000000   0.0000000   0.0000000   0.0000000
 NQMom=    0.0000000   0.0000000   0.0000000   0.0000000   0.0000000   0.0000000  -8.1650000   0.0000000   2.0440000
 NMagM=    0.0000000   0.0000000   0.0000000   2.7928460   2.7928460   2.7928460   0.8218740   0.0000000   0.4037610
 AtZNuc=   6.0000000   8.0000000   6.0000000   1.0000000   1.0000000   1.0000000  17.0000000   6.0000000   7.0000000
 Leave Link  101 at Wed Jan  8 02:22:48 2020, MaxMem=  4294967296 cpu:               7.4 elap:               0.6
 (Enter /home/cwagen/sw/g16/g16/l103.exe)

 GradGradGradGradGradGradGradGradGradGradGradGradGradGradGradGradGradGrad
 Berny optimization.
 Initialization pass.
                           ----------------------------
                           !    Initial Parameters    !
                           ! (Angstroms and Degrees)  !
 --------------------------                            --------------------------
 ! Name  Definition              Value          Derivative Info.                !
 --------------------------------------------------------------------------------
 ! R1    R(1,2)                  1.2977         estimate D2E/DX2                !
 ! R2    R(1,3)                  1.5584         estimate D2E/DX2                !
 ! R3    R(1,7)                  3.0            Frozen                          !
 ! R4    R(1,8)                  2.8            Frozen                          !
 ! R5    R(3,4)                  1.0971         estimate D2E/DX2                !
 ! R6    R(3,5)                  1.0979         estimate D2E/DX2                !
 ! R7    R(3,6)                  1.0947         estimate D2E/DX2                !
 ! R8    R(8,9)                  1.1691         estimate D2E/DX2                !
 ! A1    A(2,1,3)              114.4006         estimate D2E/DX2                !
 ! A2    A(2,1,7)              115.6846         estimate D2E/DX2                !
 ! A3    A(2,1,8)              108.426          estimate D2E/DX2                !
 ! A4    A(3,1,7)              110.248          estimate D2E/DX2                !
 ! A5    A(3,1,8)              101.5248         estimate D2E/DX2                !
 ! A6    A(7,1,8)              105.1256         estimate D2E/DX2                !
 ! A7    A(1,3,4)              113.1005         estimate D2E/DX2                !
 ! A8    A(1,3,5)              107.683          estimate D2E/DX2                !
 ! A9    A(1,3,6)              108.9421         estimate D2E/DX2                !
 ! A10   A(4,3,5)              109.0662         estimate D2E/DX2                !
 ! A11   A(4,3,6)              109.3417         estimate D2E/DX2                !
 ! A12   A(5,3,6)              108.6067         estimate D2E/DX2                !
 ! A13   L(1,8,9,6,-1)         177.1066         estimate D2E/DX2                !
 ! A14   L(1,8,9,6,-2)         163.8302         estimate D2E/DX2                !
 ! D1    D(2,1,3,4)            174.4714         estimate D2E/DX2                !
 ! D2    D(2,1,3,5)            -64.9488         estimate D2E/DX2                !
 ! D3    D(2,1,3,6)             52.6633         estimate D2E/DX2                !
 ! D4    D(7,1,3,4)            -53.1046         estimate D2E/DX2                !
 ! D5    D(7,1,3,5)             67.4752         estimate D2E/DX2                !
 ! D6    D(7,1,3,6)           -174.9127         estimate D2E/DX2                !
 ! D7    D(8,1,3,4)             57.938          estimate D2E/DX2                !
 ! D8    D(8,1,3,5)            178.5177         estimate D2E/DX2                !
 ! D9    D(8,1,3,6)            -63.8702         estimate D2E/DX2                !
 --------------------------------------------------------------------------------
 Trust Radius=3.00D-01 FncErr=1.00D-07 GrdErr=1.00D-06 EigMax=2.50D+02 EigMin=1.00D-04
 Number of steps in this run=     41 maximum allowed number of steps=    100.
 GradGradGradGradGradGradGradGradGradGradGradGradGradGradGradGradGradGrad

 Leave Link  103 at Wed Jan  8 02:22:48 2020, MaxMem=  4294967296 cpu:               0.5 elap:               0.1
 (Enter /home/cwagen/sw/g16/g16/l202.exe)
                          Input orientation:                          
 ---------------------------------------------------------------------
 Center     Atomic      Atomic             Coordinates (Angstroms)
 Number     Number       Type             X           Y           Z
 ---------------------------------------------------------------------
      1          6           0       -0.194263   -0.291999   -0.212908
      2          8           0       -0.255321   -0.665256   -1.454255
      3          6           0       -0.330945   -1.454221    0.816316
      4          1           0       -0.180394   -1.130438    1.853734
      5          1           0       -1.340665   -1.873010    0.714272
      6          1           0        0.397068   -2.233949    0.570583
      7         17           0       -1.990480    1.986656    0.549545
      8          6           0        2.401678    0.617030    0.311263
      9          7           0        3.536249    0.897328    0.341566
 ---------------------------------------------------------------------
                    Distance matrix (angstroms):
                    1          2          3          4          5
     1  C    0.000000
     2  O    1.297687   0.000000
     3  C    1.558443   2.404928   0.000000
     4  H    2.230287   3.341377   1.097150   0.000000
     5  H    2.161827   2.709087   1.097876   1.787740   0.000000
     6  H    2.175937   2.643176   1.094698   1.788205   1.780629
     7  Cl   3.000000   3.749484   3.829472   3.833222   3.917450
     8  C    2.800000   3.438162   3.465889   3.478499   4.513075
     9  N    3.954575   4.476902   4.550864   4.495767   5.621208
                    6          7          8          9
     6  H    0.000000
     7  Cl   4.849158   0.000000
     8  C    3.494824   4.606920   0.000000
     9  N    4.439798   5.636899   1.169075   0.000000
 Stoichiometry    C3H3ClNO(1-)
 Framework group  C1[X(C3H3ClNO)]
 Deg. of freedom    21
 Full point group                 C1      NOp   1
 Largest Abelian subgroup         C1      NOp   1
 Largest concise Abelian subgroup C1      NOp   1
                         Standard orientation:                         
 ---------------------------------------------------------------------
 Center     Atomic      Atomic             Coordinates (Angstroms)
 Number     Number       Type             X           Y           Z
 ---------------------------------------------------------------------
      1          6           0        0.040515    0.805373    0.206065
      2          8           0        0.142876    1.441203    1.332667
      3          6           0        0.164441    1.709649   -1.057134
      4          1           0        0.171613    1.140385   -1.995017
      5          1           0       -0.692124    2.396390   -1.060979
      6          1           0        1.084143    2.298801   -0.983563
      7         17           0       -2.330348   -1.015081   -0.048803
      8          6           0        2.273865   -0.859638   -0.076579
      9          7           0        3.290906   -1.434447   -0.032321
 ---------------------------------------------------------------------
 Rotational constants (GHZ):           2.4038964           1.1134379           0.8895354
 Leave Link  202 at Wed Jan  8 02:22:48 2020, MaxMem=  4294967296 cpu:               1.3 elap:               0.1
 (Enter /home/cwagen/sw/g16/g16/l301.exe)
 Standard basis: 6-31+G(d) (6D, 7F)
 Ernie: Thresh=  0.10000D-02 Tol=  0.10000D-05 Strict=F.
 There are   124 symmetry adapted cartesian basis functions of A   symmetry.
 There are   124 symmetry adapted basis functions of A   symmetry.
   124 basis functions,   228 primitive gaussians,   124 cartesian basis functions
    27 alpha electrons       27 beta electrons
       nuclear repulsion energy       202.0494187602 Hartrees.
 IExCor=  402 DFT=T Ex+Corr=B3LYP ExCW=0 ScaHFX=  0.200000
 ScaDFX=  0.800000  0.720000  1.000000  0.810000 ScalE2=  1.000000  1.000000
 IRadAn=      5 IRanWt=     -1 IRanGd=            0 ICorTp=0 IEmpDi=  4
 NAtoms=    9 NActive=    9 NUniq=    9 SFac= 1.00D+00 NAtFMM=   60 NAOKFM=F Big=F
 Integral buffers will be    131072 words long.
 Raffenetti 2 integral format.
 Two-electron integral symmetry is turned on.
 ------------------------------------------------------------------------------
 Polarizable Continuum Model (PCM)
 =================================
 Model                : PCM.
 Atomic radii         : SMD-Coulomb.
 Polarization charges : Total charges.
 Charge compensation  : None.
 Solution method      : On-the-fly selection.
 Cavity type          : VdW (van der Waals Surface) (Alpha=1.000).
 Cavity algorithm     : GePol (No added spheres)
                        Default sphere list used, NSphG=    9.
                        Lebedev-Laikov grids with approx.  5.0 points / Ang**2.
                        Smoothing algorithm: York/Karplus (Gamma=1.0000).
                        Polarization charges: spherical gaussians, with
                                              point-specific exponents (IZeta= 3).
                        Self-potential: point-specific (ISelfS= 7).
                        Self-field    : sphere-specific E.n sum rule (ISelfD= 2).
 1st derivatives      : Analytical E(r).r(x)/FMM algorithm (CHGder, D1EAlg=3).
                        Cavity 1st derivative terms included.
 Solvent              : TetraHydroFuran, Eps=   7.425700 Eps(inf)=   1.974025
 ------------------------------------------------------------------------------
 Spheres list:
 ISph  on   Nord     Re0    Alpha      Xe            Ye            Ze
    1   C      1    1.8500  1.000      0.040515      0.805373      0.206065
    2   O      2    2.2940  1.000      0.142876      1.441203      1.332667
    3   C      3    1.8500  1.000      0.164441      1.709649     -1.057134
    4   H      4    1.2000  1.000      0.171613      1.140385     -1.995017
    5   H      5    1.2000  1.000     -0.692124      2.396390     -1.060979
    6   H      6    1.2000  1.000      1.084143      2.298801     -0.983563
    7  Cl      7    2.3800  1.000     -2.330348     -1.015081     -0.048803
    8   C      8    1.8500  1.000      2.273865     -0.859638     -0.076579
    9   N      9    1.8900  1.000      3.290906     -1.434447     -0.032321
 ------------------------------------------------------------------------------
 GePol: Number of generator spheres                  =       9
 GePol: Total number of spheres                      =       9
 GePol: Number of exposed spheres                    =       9 (100.00%)
 GePol: Number of points                             =    1403
 GePol: Average weight of points                     =       0.14
 GePol: Minimum weight of points                     =   0.38D-07
 GePol: Maximum weight of points                     =    0.18138
 GePol: Number of points with low weight             =      38
 GePol: Fraction of low-weight points (<1% of avg)   =       2.71%
 GePol: Cavity surface area                          =    190.822 Ang**2
 GePol: Cavity volume                                =    164.372 Ang**3
 ------------------------------------------------------------------------------
 Atomic radii for non-electrostatic terms: SMD-CDS.
 ------------------------------------------------------------------------------
 PCM non-electrostatic energy =         0.0012774485 Hartrees.
 Nuclear repulsion after PCM non-electrostatic terms =      202.0506962087 Hartrees.
 Leave Link  301 at Wed Jan  8 02:22:48 2020, MaxMem=  4294967296 cpu:               2.1 elap:               0.2
 (Enter /home/cwagen/sw/g16/g16/l302.exe)
 NPDir=0 NMtPBC=     1 NCelOv=     1 NCel=       1 NClECP=     1 NCelD=      1
         NCelK=      1 NCelE2=     1 NClLst=     1 CellRange=     0.0.
 One-electron integrals computed using PRISM.
 One-electron integral symmetry used in STVInt
 NBasis=   124 RedAO= T EigKep=  2.38D-04  NBF=   124
 NBsUse=   124 1.00D-06 EigRej= -1.00D+00 NBFU=   124
 Precomputing XC quadrature grid using
 IXCGrd= 4 IRadAn=           5 IRanWt=          -1 IRanGd=           0 AccXCQ= 0.00D+00.
 Generated NRdTot=       0 NPtTot=           0 NUsed=           0 NTot=          32
 NSgBfM=   123   123   123   123   123 MxSgAt=     9 MxSgA2=     9.
 Leave Link  302 at Wed Jan  8 02:22:51 2020, MaxMem=  4294967296 cpu:              32.7 elap:               2.5
 (Enter /home/cwagen/sw/g16/g16/l303.exe)
 DipDrv:  MaxL=1.
 Leave Link  303 at Wed Jan  8 02:22:51 2020, MaxMem=  4294967296 cpu:               2.2 elap:               0.2
 (Enter /home/cwagen/sw/g16/g16/l401.exe)
 ExpMin= 4.38D-02 ExpMax= 2.52D+04 ExpMxC= 3.78D+03 IAcc=3 IRadAn=         5 AccDes= 0.00D+00
 Harris functional with IExCor=  402 and IRadAn=       5 diagonalized for initial guess.
 HarFok:  IExCor=  402 AccDes= 0.00D+00 IRadAn=         5 IDoV= 1 UseB2=F ITyADJ=14
 ICtDFT=  3500011 ScaDFX=  1.000000  1.000000  1.000000  1.000000
 FoFCou: FMM=F IPFlag=           0 FMFlag=      100000 FMFlg1=           0
         NFxFlg=           0 DoJE=T BraDBF=F KetDBF=T FulRan=T
         wScrn=  0.000000 ICntrl=       500 IOpCl=  0 I1Cent=   200000004 NGrid=           0
         NMat0=    1 NMatS0=      1 NMatT0=    0 NMatD0=    1 NMtDS0=    0 NMtDT0=    0
 Petite list used in FoFCou.
 Harris En= -706.315035710332    
 JPrj=0 DoOrth=F DoCkMO=F.
 Leave Link  401 at Wed Jan  8 02:22:53 2020, MaxMem=  4294967296 cpu:              29.2 elap:               2.2
 (Enter /home/cwagen/sw/g16/g16/l502.exe)
 Keep R1 ints in memory in canonical form, NReq=45236517.
 FoFCou: FMM=F IPFlag=           0 FMFlag=           0 FMFlg1=           0
         NFxFlg=           0 DoJE=F BraDBF=F KetDBF=F FulRan=T
         wScrn=  0.000000 ICntrl=       600 IOpCl=  0 I1Cent=           0 NGrid=           0
         NMat0=    1 NMatS0=   7750 NMatT0=    0 NMatD0=    1 NMtDS0=    0 NMtDT0=    0
 Symmetry not used in FoFCou.
 Two-electron integral symmetry not used.
 Closed shell SCF:
 Using DIIS extrapolation, IDIIS=  1040.
 NGot=  4294967296 LenX=  4264898079 LenY=  4264882262
 Requested convergence on RMS density matrix=1.00D-08 within 128 cycles.
 Requested convergence on MAX density matrix=1.00D-06.
 Requested convergence on             energy=1.00D-06.
 No special actions if energy rises.

 Cycle   1  Pass 1  IDiag  1:
 Inv3:  Mode=1 IEnd=     5905227.
 Iteration    1 A*A^-1 deviation from unit magnitude is 4.00D-15 for   1387.
 Iteration    1 A*A^-1 deviation from orthogonality  is 1.67D-15 for   1398   1126.
 Iteration    1 A^-1*A deviation from unit magnitude is 4.00D-15 for   1387.
 Iteration    1 A^-1*A deviation from orthogonality  is 1.50D-15 for    407    175.
 E= -706.128431983613    
 DIIS: error= 2.61D-02 at cycle   1 NSaved=   1.
 NSaved= 1 IEnMin= 1 EnMin= -706.128431983613     IErMin= 1 ErrMin= 2.61D-02
 ErrMax= 2.61D-02  0.00D+00 EMaxC= 1.00D-01 BMatC= 1.86D-01 BMatP= 1.86D-01
 IDIUse=3 WtCom= 7.39D-01 WtEn= 2.61D-01
 Coeff-Com:  0.100D+01
 Coeff-En:   0.100D+01
 Coeff:      0.100D+01
 Gap=     0.000 Goal=   None    Shift=    0.000
 GapD=    0.000 DampG=0.250 DampE=0.500 DampFc=0.2500 IDamp=-1.
 Damping current iteration by 2.50D-01
 RMSDP=1.16D-02 MaxDP=3.25D-01              OVMax= 7.88D-01

 Cycle   2  Pass 1  IDiag  1:
 E= -706.160059003543     Delta-E=       -0.031627019930 Rises=F Damp=T
 DIIS: error= 1.87D-02 at cycle   2 NSaved=   2.
 NSaved= 2 IEnMin= 2 EnMin= -706.160059003543     IErMin= 2 ErrMin= 1.87D-02
 ErrMax= 1.87D-02  0.00D+00 EMaxC= 1.00D-01 BMatC= 2.76D-02 BMatP= 1.86D-01
 IDIUse=3 WtCom= 8.13D-01 WtEn= 1.87D-01
 Coeff-Com: -0.183D+00 0.118D+01
 Coeff-En:   0.361D+00 0.639D+00
 Coeff:     -0.816D-01 0.108D+01
 Gap=     0.127 Goal=   None    Shift=    0.000
 RMSDP=3.49D-03 MaxDP=6.79D-02 DE=-3.16D-02 OVMax= 7.52D-01

 Cycle   3  Pass 1  IDiag  1:
 E= -706.250552210764     Delta-E=       -0.090493207221 Rises=F Damp=F
 DIIS: error= 1.57D-02 at cycle   3 NSaved=   3.
 NSaved= 3 IEnMin= 3 EnMin= -706.250552210764     IErMin= 3 ErrMin= 1.57D-02
 ErrMax= 1.57D-02  0.00D+00 EMaxC= 1.00D-01 BMatC= 6.03D-02 BMatP= 2.76D-02
 IDIUse=2 WtCom= 0.00D+00 WtEn= 1.00D+00
 EnCoef did     4 forward-backward iterations
 Coeff-En:   0.981D-02 0.657D-01 0.925D+00
 Coeff:      0.981D-02 0.657D-01 0.925D+00
 Gap=     0.029 Goal=   None    Shift=    0.000
 RMSDP=8.76D-03 MaxDP=1.67D-01 DE=-9.05D-02 OVMax= 6.18D-01

 Cycle   4  Pass 1  IDiag  1:
 E= -705.627083656547     Delta-E=        0.623468554217 Rises=F Damp=F
 DIIS: error= 5.39D-02 at cycle   4 NSaved=   4.
 NSaved= 4 IEnMin= 3 EnMin= -706.250552210764     IErMin= 3 ErrMin= 1.57D-02
 ErrMax= 5.39D-02  0.00D+00 EMaxC= 1.00D-01 BMatC= 5.09D-01 BMatP= 2.76D-02
 IDIUse=2 WtCom= 0.00D+00 WtEn= 1.00D+00
 Coeff-En:   0.000D+00 0.000D+00 0.860D+00 0.140D+00
 Coeff:      0.000D+00 0.000D+00 0.860D+00 0.140D+00
 Gap=     0.066 Goal=   None    Shift=    0.000
 RMSDP=6.18D-03 MaxDP=1.29D-01 DE= 6.23D-01 OVMax= 3.98D-01

 Cycle   5  Pass 1  IDiag  1:
 E= -706.271953431872     Delta-E=       -0.644869775325 Rises=F Damp=F
 DIIS: error= 1.30D-02 at cycle   5 NSaved=   5.
 NSaved= 5 IEnMin= 5 EnMin= -706.271953431872     IErMin= 5 ErrMin= 1.30D-02
 ErrMax= 1.30D-02  0.00D+00 EMaxC= 1.00D-01 BMatC= 4.96D-02 BMatP= 2.76D-02
 IDIUse=2 WtCom= 0.00D+00 WtEn= 1.00D+00
 Coeff-En:   0.000D+00 0.000D+00 0.427D+00 0.000D+00 0.573D+00
 Coeff:      0.000D+00 0.000D+00 0.427D+00 0.000D+00 0.573D+00
 Gap=     0.093 Goal=   None    Shift=    0.000
 RMSDP=2.43D-03 MaxDP=6.97D-02 DE=-6.45D-01 OVMax= 1.67D-01

 Cycle   6  Pass 1  IDiag  1:
 E= -706.302026948102     Delta-E=       -0.030073516230 Rises=F Damp=F
 DIIS: error= 9.06D-03 at cycle   6 NSaved=   6.
 NSaved= 6 IEnMin= 6 EnMin= -706.302026948102     IErMin= 6 ErrMin= 9.06D-03
 ErrMax= 9.06D-03  0.00D+00 EMaxC= 1.00D-01 BMatC= 2.05D-02 BMatP= 2.76D-02
 IDIUse=3 WtCom= 9.09D-01 WtEn= 9.06D-02
 Coeff-Com: -0.303D-01 0.660D-01 0.306D+00-0.188D-01 0.450D+00 0.228D+00
 Coeff-En:   0.000D+00 0.000D+00 0.000D+00 0.000D+00 0.301D+00 0.699D+00
 Coeff:     -0.275D-01 0.600D-01 0.278D+00-0.171D-01 0.436D+00 0.270D+00
 Gap=     0.097 Goal=   None    Shift=    0.000
 RMSDP=1.08D-03 MaxDP=3.45D-02 DE=-3.01D-02 OVMax= 5.46D-02

 Cycle   7  Pass 1  IDiag  1:
 E= -706.319087637046     Delta-E=       -0.017060688943 Rises=F Damp=F
 DIIS: error= 2.43D-03 at cycle   7 NSaved=   7.
 NSaved= 7 IEnMin= 7 EnMin= -706.319087637046     IErMin= 7 ErrMin= 2.43D-03
 ErrMax= 2.43D-03  0.00D+00 EMaxC= 1.00D-01 BMatC= 1.54D-03 BMatP= 2.05D-02
 IDIUse=3 WtCom= 9.76D-01 WtEn= 2.43D-02
 Coeff-Com: -0.439D-01 0.832D-01 0.133D+00-0.237D-01 0.240D+00 0.176D+00
 Coeff-Com:  0.435D+00
 Coeff-En:   0.000D+00 0.000D+00 0.000D+00 0.000D+00 0.000D+00 0.677D-01
 Coeff-En:   0.932D+00
 Coeff:     -0.429D-01 0.812D-01 0.130D+00-0.231D-01 0.234D+00 0.173D+00
 Coeff:      0.447D+00
 Gap=     0.088 Goal=   None    Shift=    0.000
 RMSDP=2.93D-04 MaxDP=8.51D-03 DE=-1.71D-02 OVMax= 1.36D-02

 Cycle   8  Pass 1  IDiag  1:
 E= -706.320230114119     Delta-E=       -0.001142477074 Rises=F Damp=F
 DIIS: error= 9.09D-04 at cycle   8 NSaved=   8.
 NSaved= 8 IEnMin= 8 EnMin= -706.320230114119     IErMin= 8 ErrMin= 9.09D-04
 ErrMax= 9.09D-04  0.00D+00 EMaxC= 1.00D-01 BMatC= 1.13D-04 BMatP= 1.54D-03
 IDIUse=3 WtCom= 9.91D-01 WtEn= 9.09D-03
 Coeff-Com: -0.854D-02 0.119D-01 0.956D-03-0.227D-02 0.265D-01 0.689D-01
 Coeff-Com:  0.289D+00 0.614D+00
 Coeff-En:   0.000D+00 0.000D+00 0.000D+00 0.000D+00 0.000D+00 0.000D+00
 Coeff-En:   0.789D-01 0.921D+00
 Coeff:     -0.846D-02 0.118D-01 0.947D-03-0.225D-02 0.262D-01 0.682D-01
 Coeff:      0.287D+00 0.617D+00
 Gap=     0.088 Goal=   None    Shift=    0.000
 RMSDP=1.24D-04 MaxDP=2.52D-03 DE=-1.14D-03 OVMax= 7.27D-03

 Cycle   9  Pass 1  IDiag  1:
 E= -706.320345151656     Delta-E=       -0.000115037537 Rises=F Damp=F
 DIIS: error= 3.84D-04 at cycle   9 NSaved=   9.
 NSaved= 9 IEnMin= 9 EnMin= -706.320345151656     IErMin= 9 ErrMin= 3.84D-04
 ErrMax= 3.84D-04  0.00D+00 EMaxC= 1.00D-01 BMatC= 1.77D-05 BMatP= 1.13D-04
 IDIUse=3 WtCom= 9.96D-01 WtEn= 3.84D-03
 Coeff-Com: -0.287D-02 0.124D-02-0.115D-01 0.650D-04-0.638D-03 0.352D-01
 Coeff-Com:  0.164D+00 0.420D+00 0.395D+00
 Coeff-En:   0.000D+00 0.000D+00 0.000D+00 0.000D+00 0.000D+00 0.000D+00
 Coeff-En:   0.000D+00 0.411D-01 0.959D+00
 Coeff:     -0.286D-02 0.124D-02-0.114D-01 0.648D-04-0.635D-03 0.350D-01
 Coeff:      0.163D+00 0.418D+00 0.398D+00
 Gap=     0.089 Goal=   None    Shift=    0.000
 RMSDP=5.64D-05 MaxDP=2.04D-03 DE=-1.15D-04 OVMax= 3.30D-03

 Cycle  10  Pass 1  IDiag  1:
 E= -706.320364416105     Delta-E=       -0.000019264449 Rises=F Damp=F
 DIIS: error= 7.47D-05 at cycle  10 NSaved=  10.
 NSaved=10 IEnMin=10 EnMin= -706.320364416105     IErMin=10 ErrMin= 7.47D-05
 ErrMax= 7.47D-05  0.00D+00 EMaxC= 1.00D-01 BMatC= 1.66D-06 BMatP= 1.77D-05
 IDIUse=1 WtCom= 1.00D+00 WtEn= 0.00D+00
 Coeff-Com: -0.228D-02 0.263D-02-0.577D-02 0.110D-03-0.290D-02 0.104D-01
 Coeff-Com:  0.594D-01 0.160D+00 0.256D+00 0.522D+00
 Coeff:     -0.228D-02 0.263D-02-0.577D-02 0.110D-03-0.290D-02 0.104D-01
 Coeff:      0.594D-01 0.160D+00 0.256D+00 0.522D+00
 Gap=     0.089 Goal=   None    Shift=    0.000
 RMSDP=1.82D-05 MaxDP=5.41D-04 DE=-1.93D-05 OVMax= 1.28D-03

 Cycle  11  Pass 1  IDiag  1:
 E= -706.320366465692     Delta-E=       -0.000002049587 Rises=F Damp=F
 DIIS: error= 4.45D-05 at cycle  11 NSaved=  11.
 NSaved=11 IEnMin=11 EnMin= -706.320366465692     IErMin=11 ErrMin= 4.45D-05
 ErrMax= 4.45D-05  0.00D+00 EMaxC= 1.00D-01 BMatC= 3.03D-07 BMatP= 1.66D-06
 IDIUse=1 WtCom= 1.00D+00 WtEn= 0.00D+00
 Coeff-Com: -0.964D-03 0.121D-02-0.136D-02 0.557D-04-0.669D-03-0.523D-03
 Coeff-Com:  0.166D-02-0.841D-02 0.625D-01 0.213D+00 0.733D+00
 Coeff:     -0.964D-03 0.121D-02-0.136D-02 0.557D-04-0.669D-03-0.523D-03
 Coeff:      0.166D-02-0.841D-02 0.625D-01 0.213D+00 0.733D+00
 Gap=     0.089 Goal=   None    Shift=    0.000
 RMSDP=4.63D-06 MaxDP=8.36D-05 DE=-2.05D-06 OVMax= 2.16D-04

 Cycle  12  Pass 1  IDiag  1:
 E= -706.320366844693     Delta-E=       -0.000000379001 Rises=F Damp=F
 DIIS: error= 1.38D-05 at cycle  12 NSaved=  12.
 NSaved=12 IEnMin=12 EnMin= -706.320366844693     IErMin=12 ErrMin= 1.38D-05
 ErrMax= 1.38D-05  0.00D+00 EMaxC= 1.00D-01 BMatC= 4.02D-08 BMatP= 3.03D-07
 IDIUse=1 WtCom= 1.00D+00 WtEn= 0.00D+00
 Coeff-Com: -0.267D-03 0.368D-03 0.229D-04-0.610D-05 0.314D-03-0.923D-03
 Coeff-Com: -0.383D-02-0.194D-01-0.878D-02-0.646D-02 0.438D-01 0.995D+00
 Coeff:     -0.267D-03 0.368D-03 0.229D-04-0.610D-05 0.314D-03-0.923D-03
 Coeff:     -0.383D-02-0.194D-01-0.878D-02-0.646D-02 0.438D-01 0.995D+00
 Gap=     0.089 Goal=   None    Shift=    0.000
 RMSDP=1.90D-06 MaxDP=4.08D-05 DE=-3.79D-07 OVMax= 1.06D-04

 Cycle  13  Pass 1  IDiag  1:
 E= -706.320366899523     Delta-E=       -0.000000054830 Rises=F Damp=F
 DIIS: error= 2.91D-06 at cycle  13 NSaved=  13.
 NSaved=13 IEnMin=13 EnMin= -706.320366899523     IErMin=13 ErrMin= 2.91D-06
 ErrMax= 2.91D-06  0.00D+00 EMaxC= 1.00D-01 BMatC= 1.44D-09 BMatP= 4.02D-08
 IDIUse=1 WtCom= 1.00D+00 WtEn= 0.00D+00
 Coeff-Com: -0.244D-04 0.302D-04 0.201D-04 0.200D-05 0.677D-04-0.139D-04
 Coeff-Com: -0.295D-03-0.179D-02-0.358D-02-0.109D-01-0.518D-01 0.885D-01
 Coeff-Com:  0.980D+00
 Coeff:     -0.244D-04 0.302D-04 0.201D-04 0.200D-05 0.677D-04-0.139D-04
 Coeff:     -0.295D-03-0.179D-02-0.358D-02-0.109D-01-0.518D-01 0.885D-01
 Coeff:      0.980D+00
 Gap=     0.089 Goal=   None    Shift=    0.000
 RMSDP=5.37D-07 MaxDP=9.07D-06 DE=-5.48D-08 OVMax= 3.41D-05

 Cycle  14  Pass 1  IDiag  1:
 E= -706.320366901785     Delta-E=       -0.000000002262 Rises=F Damp=F
 DIIS: error= 2.74D-07 at cycle  14 NSaved=  14.
 NSaved=14 IEnMin=14 EnMin= -706.320366901785     IErMin=14 ErrMin= 2.74D-07
 ErrMax= 2.74D-07  0.00D+00 EMaxC= 1.00D-01 BMatC= 9.03D-12 BMatP= 1.44D-09
 IDIUse=1 WtCom= 1.00D+00 WtEn= 0.00D+00
 Coeff-Com:  0.514D-05-0.789D-05 0.115D-05 0.942D-06-0.426D-05 0.265D-04
 Coeff-Com:  0.769D-04 0.587D-03-0.119D-03-0.576D-03-0.530D-02-0.248D-01
 Coeff-Com:  0.111D+00 0.919D+00
 Coeff:      0.514D-05-0.789D-05 0.115D-05 0.942D-06-0.426D-05 0.265D-04
 Coeff:      0.769D-04 0.587D-03-0.119D-03-0.576D-03-0.530D-02-0.248D-01
 Coeff:      0.111D+00 0.919D+00
 Gap=     0.089 Goal=   None    Shift=    0.000
 RMSDP=5.36D-08 MaxDP=1.13D-06 DE=-2.26D-09 OVMax= 3.01D-06

 Cycle  15  Pass 1  IDiag  1:
 E= -706.320366901792     Delta-E=       -0.000000000007 Rises=F Damp=F
 DIIS: error= 1.50D-07 at cycle  15 NSaved=  15.
 NSaved=15 IEnMin=15 EnMin= -706.320366901792     IErMin=15 ErrMin= 1.50D-07
 ErrMax= 1.50D-07  0.00D+00 EMaxC= 1.00D-01 BMatC= 4.43D-12 BMatP= 9.03D-12
 IDIUse=1 WtCom= 1.00D+00 WtEn= 0.00D+00
 Coeff-Com:  0.145D-05-0.187D-05 0.149D-05-0.445D-07-0.899D-06-0.319D-05
 Coeff-Com: -0.778D-05 0.746D-04 0.457D-04 0.316D-03 0.273D-02-0.106D-02
 Coeff-Com: -0.133D-01 0.931D-01 0.918D+00
 Coeff:      0.145D-05-0.187D-05 0.149D-05-0.445D-07-0.899D-06-0.319D-05
 Coeff:     -0.778D-05 0.746D-04 0.457D-04 0.316D-03 0.273D-02-0.106D-02
 Coeff:     -0.133D-01 0.931D-01 0.918D+00
 Gap=     0.089 Goal=   None    Shift=    0.000
 RMSDP=2.17D-08 MaxDP=2.97D-07 DE=-7.28D-12 OVMax= 9.24D-07

 Cycle  16  Pass 1  IDiag  1:
 E= -706.320366901798     Delta-E=       -0.000000000005 Rises=F Damp=F
 DIIS: error= 2.88D-08 at cycle  16 NSaved=  16.
 NSaved=16 IEnMin=16 EnMin= -706.320366901798     IErMin=16 ErrMin= 2.88D-08
 ErrMax= 2.88D-08  0.00D+00 EMaxC= 1.00D-01 BMatC= 1.34D-13 BMatP= 4.43D-12
 IDIUse=1 WtCom= 1.00D+00 WtEn= 0.00D+00
 Coeff-Com:  0.208D-06-0.234D-06 0.550D-06-0.462D-07 0.194D-06-0.185D-05
 Coeff-Com: -0.598D-05-0.156D-04-0.179D-05 0.170D-05 0.505D-03 0.110D-02
 Coeff-Com: -0.105D-02-0.256D-01 0.940D-01 0.931D+00
 Coeff:      0.208D-06-0.234D-06 0.550D-06-0.462D-07 0.194D-06-0.185D-05
 Coeff:     -0.598D-05-0.156D-04-0.179D-05 0.170D-05 0.505D-03 0.110D-02
 Coeff:     -0.105D-02-0.256D-01 0.940D-01 0.931D+00
 Gap=     0.089 Goal=   None    Shift=    0.000
 RMSDP=4.59D-09 MaxDP=7.71D-08 DE=-5.34D-12 OVMax= 1.58D-07

 Error on total polarization charges =  0.02594
 SCF Done:  E(RB3LYP) =  -706.320366902     A.U. after   16 cycles
            NFock= 16  Conv=0.46D-08     -V/T= 2.0065
 KE= 7.017799259906D+02 PE=-2.080393826479D+03 EE= 4.702428373779D+02
 SMD-CDS (non-electrostatic) energy       (kcal/mol) =       0.80
 (included in total energy above)
 Leave Link  502 at Wed Jan  8 02:23:39 2020, MaxMem=  4294967296 cpu:             645.4 elap:              45.9
 (Enter /home/cwagen/sw/g16/g16/l601.exe)
 Copying SCF densities to generalized density rwf, IOpCl= 0 IROHF=0.

 **********************************************************************

            Population analysis using the SCF density.

 **********************************************************************

 Orbital symmetries:
       Occupied  (A) (A) (A) (A) (A) (A) (A) (A) (A) (A) (A) (A)
                 (A) (A) (A) (A) (A) (A) (A) (A) (A) (A) (A) (A)
                 (A) (A) (A)
       Virtual   (A) (A) (A) (A) (A) (A) (A) (A) (A) (A) (A) (A)
                 (A) (A) (A) (A) (A) (A) (A) (A) (A) (A) (A) (A)
                 (A) (A) (A) (A) (A) (A) (A) (A) (A) (A) (A) (A)
                 (A) (A) (A) (A) (A) (A) (A) (A) (A) (A) (A) (A)
                 (A) (A) (A) (A) (A) (A) (A) (A) (A) (A) (A) (A)
                 (A) (A) (A) (A) (A) (A) (A) (A) (A) (A) (A) (A)
                 (A) (A) (A) (A) (A) (A) (A) (A) (A) (A) (A) (A)
                 (A) (A) (A) (A) (A) (A) (A) (A) (A) (A) (A) (A)
                 (A)
 The electronic state is 1-A.
 Alpha  occ. eigenvalues -- -101.46912 -19.24547 -14.28687 -10.38470 -10.22987
 Alpha  occ. eigenvalues --  -10.16366  -9.38116  -7.14230  -7.13739  -7.13735
 Alpha  occ. eigenvalues --   -1.07218  -0.84673  -0.76021  -0.71060  -0.57167
 Alpha  occ. eigenvalues --   -0.46486  -0.45855  -0.45593  -0.39107  -0.38337
 Alpha  occ. eigenvalues --   -0.36989  -0.29196  -0.29180  -0.26740  -0.25578
 Alpha  occ. eigenvalues --   -0.24948  -0.24914
 Alpha virt. eigenvalues --   -0.16051  -0.07357   0.02892   0.04310   0.04732
 Alpha virt. eigenvalues --    0.05097   0.06829   0.07838   0.08411   0.08860
 Alpha virt. eigenvalues --    0.09997   0.10526   0.11034   0.11625   0.12817
 Alpha virt. eigenvalues --    0.14029   0.14656   0.15913   0.16166   0.18997
 Alpha virt. eigenvalues --    0.20868   0.21906   0.23517   0.23867   0.24855
 Alpha virt. eigenvalues --    0.25321   0.26023   0.27911   0.29399   0.31307
 Alpha virt. eigenvalues --    0.33221   0.35736   0.38266   0.51021   0.62397
 Alpha virt. eigenvalues --    0.64281   0.65071   0.65910   0.66661   0.67942
 Alpha virt. eigenvalues --    0.70890   0.73037   0.73625   0.76406   0.77788
 Alpha virt. eigenvalues --    0.81606   0.85447   0.93509   0.94753   0.94956
 Alpha virt. eigenvalues --    0.95347   0.95464   0.95966   0.99168   1.00768
 Alpha virt. eigenvalues --    1.01316   1.03893   1.10045   1.12479   1.18031
 Alpha virt. eigenvalues --    1.22193   1.24629   1.25944   1.29433   1.38836
 Alpha virt. eigenvalues --    1.44744   1.46381   1.55739   1.58405   1.58632
 Alpha virt. eigenvalues --    1.58824   1.61997   1.65051   1.71615   1.76781
 Alpha virt. eigenvalues --    1.83872   1.93179   2.01425   2.01503   2.08701
 Alpha virt. eigenvalues --    2.16036   2.21075   2.24990   2.44707   2.46515
 Alpha virt. eigenvalues --    2.50881   2.65105   2.65277   2.68063   2.89123
 Alpha virt. eigenvalues --    3.06571   3.98971   4.11049   4.14855   4.26843
 Alpha virt. eigenvalues --    4.33656   4.39312
          Condensed to atoms (all electrons):
               1          2          3          4          5          6
     1  C    5.065782   0.508835  -0.001832  -0.051874  -0.017511  -0.012354
     2  O    0.508835   7.841822  -0.115528   0.006844  -0.006177  -0.008688
     3  C   -0.001832  -0.115528   5.783219   0.378249   0.349869   0.361086
     4  H   -0.051874   0.006844   0.378249   0.426616  -0.021147  -0.022243
     5  H   -0.017511  -0.006177   0.349869  -0.021147   0.420891  -0.021128
     6  H   -0.012354  -0.008688   0.361086  -0.022243  -0.021128   0.412658
     7  Cl   0.104633  -0.019352  -0.033127   0.001580  -0.001481   0.000738
     8  C    0.132729  -0.042376  -0.126101   0.002267   0.005089  -0.007968
     9  N    0.001221  -0.000029  -0.002689  -0.000150  -0.000026   0.000230
               7          8          9
     1  C    0.104633   0.132729   0.001221
     2  O   -0.019352  -0.042376  -0.000029
     3  C   -0.033127  -0.126101  -0.002689
     4  H    0.001580   0.002267  -0.000150
     5  H   -0.001481   0.005089  -0.000026
     6  H    0.000738  -0.007968   0.000230
     7  Cl  17.604282  -0.030364  -0.000010
     8  C   -0.030364   5.578681   0.652120
     9  N   -0.000010   0.652120   6.939379
 Mulliken charges:
               1
     1  C    0.270371
     2  O   -0.165352
     3  C   -0.593145
     4  H    0.279857
     5  H    0.291620
     6  H    0.297669
     7  Cl  -0.626898
     8  C   -0.164078
     9  N   -0.590044
 Sum of Mulliken charges =  -1.00000
 Mulliken charges with hydrogens summed into heavy atoms:
               1
     1  C    0.270371
     2  O   -0.165352
     3  C    0.276001
     7  Cl  -0.626898
     8  C   -0.164078
     9  N   -0.590044
 Electronic spatial extent (au):  <R**2>=           1268.5676
 Charge=             -1.0000 electrons
 Dipole moment (field-independent basis, Debye):
    X=             -2.8982    Y=             10.0508    Z=             -2.5885  Tot=             10.7758
 Quadrupole moment (field-independent basis, Debye-Ang):
   XX=            -94.9866   YY=            -50.7269   ZZ=            -46.4742
   XY=              7.6131   XZ=             -0.3150   YZ=             -5.5632
 Traceless Quadrupole moment (field-independent basis, Debye-Ang):
   XX=            -30.9240   YY=             13.3356   ZZ=             17.5884
   XY=              7.6131   XZ=             -0.3150   YZ=             -5.5632
 Octapole moment (field-independent basis, Debye-Ang**2):
  XXX=            -83.6722  YYY=             43.5929  ZZZ=             -3.9787  XYY=            -17.5718
  XXY=             71.2586  XXZ=              2.3687  XZZ=             -3.2979  YZZ=              7.4575
  YYZ=             -8.0173  XYZ=             -1.1358
 Hexadecapole moment (field-independent basis, Debye-Ang**3):
 XXXX=          -1669.1129 YYYY=           -480.7138 ZZZZ=           -174.2379 XXXY=            152.9052
 XXXZ=              3.9114 YYYX=             45.7774 YYYZ=            -15.9645 ZZZX=              0.1993
 ZZZY=             -6.2508 XXYY=           -361.9786 XXZZ=           -234.2833 YYZZ=           -109.6440
 XXYZ=             -3.3436 YYXZ=             -0.1112 ZZXY=              5.8243
 N-N= 2.020506962087D+02 E-N=-2.080393825233D+03  KE= 7.017799259906D+02
 No NMR shielding tensors so no spin-rotation constants.
 Leave Link  601 at Wed Jan  8 02:23:41 2020, MaxMem=  4294967296 cpu:              18.4 elap:               1.5
 (Enter /home/cwagen/sw/g16/g16/l701.exe)
 ... and contract with generalized density number  0.
 Compute integral first derivatives.
 D1PCM: PCM CHGder 1st derivatives, ID1Alg=3 FixD1E=F DoIter=F DoCFld=F I1PDM=0.
 GePol: Maximum number of non-zero 1st derivatives   =     415
 Leave Link  701 at Wed Jan  8 02:23:46 2020, MaxMem=  4294967296 cpu:              74.2 elap:               5.7
 (Enter /home/cwagen/sw/g16/g16/l702.exe)
 L702 exits ... SP integral derivatives will be done elsewhere.
 Leave Link  702 at Wed Jan  8 02:23:47 2020, MaxMem=  4294967296 cpu:               1.1 elap:               0.2
 (Enter /home/cwagen/sw/g16/g16/l703.exe)
 Integral derivatives from FoFJK, PRISM(SPDF).
 Compute integral first derivatives, UseDBF=F ICtDFT=           0.
 Calling FoFJK, ICntrl=      2127 FMM=F ISym2X=0 I1Cent= 0 IOpClX= 0 NMat=1 NMatS=1 NMatT=0.
 FoFJK:  IHMeth= 1 ICntrl=    2127 DoSepK=F KAlg= 0 I1Cent=           0 FoldK=F
 IRaf=         0 NMat=       1 IRICut=       1 DoRegI=T DoRafI=F ISym2E= 0 IDoP0=0 IntGTp=1.
 FoFCou: FMM=F IPFlag=           0 FMFlag=      100000 FMFlg1=         800
         NFxFlg=           0 DoJE=F BraDBF=F KetDBF=F FulRan=T
         wScrn=  0.000000 ICntrl=      2127 IOpCl=  0 I1Cent=           0 NGrid=           0
         NMat0=    1 NMatS0=      1 NMatT0=    0 NMatD0=    1 NMtDS0=    0 NMtDT0=    0
 Symmetry not used in FoFCou.
 Leave Link  703 at Wed Jan  8 02:23:49 2020, MaxMem=  4294967296 cpu:              34.9 elap:               2.7
 (Enter /home/cwagen/sw/g16/g16/l716.exe)
 Dipole        =-1.14023690D+00 3.95428475D+00-1.01837828D+00
 ***** Axes restored to original set *****
 -------------------------------------------------------------------
 Center     Atomic                   Forces (Hartrees/Bohr)
 Number     Number              X              Y              Z
 -------------------------------------------------------------------
      1        6          -0.008969874   -0.097330634   -0.151558264
      2        8           0.009594320    0.079717297    0.151511277
      3        6          -0.000133485    0.023429389    0.022161401
      4        1          -0.000380074    0.002201238   -0.005610919
      5        1          -0.000334802    0.005579571   -0.003395438
      6        1           0.003273806    0.005822991   -0.005540722
      7       17           0.012991304   -0.015378716   -0.004901740
      8        6          -0.030844916   -0.007640000   -0.003632711
      9        7           0.014803721    0.003598864    0.000967116
 -------------------------------------------------------------------
 Cartesian Forces:  Max     0.151558264 RMS     0.048992121
 Leave Link  716 at Wed Jan  8 02:23:50 2020, MaxMem=  4294967296 cpu:               1.2 elap:               0.1
 (Enter /home/cwagen/sw/g16/g16/l103.exe)

 GradGradGradGradGradGradGradGradGradGradGradGradGradGradGradGradGradGrad
 Berny optimization.
 FormGI is forming the generalized inverse of G from B-inverse, IUseBI=4.
 Internal  Forces:  Max     0.168321325 RMS     0.033580920
 Search for a local minimum.
 Step number   1 out of a maximum of   41
 All quantities printed in internal units (Hartrees-Bohrs-Radians)
 RMS Force = .34368D-01 SwitMx=.10000D-02 MixMth= 1
 Mixed Optimization -- RFO/linear search
 Second derivative matrix not updated -- first step.
 ITU=  0
     Eigenvalues ---    0.00230   0.04746   0.04746   0.05330   0.05908
     Eigenvalues ---    0.07453   0.10176   0.16000   0.16000   0.16000
     Eigenvalues ---    0.25000   0.25000   0.25000   0.26946   0.33918
     Eigenvalues ---    0.33999   0.34275   0.67840   1.220341000.00000
     Eigenvalues --- 1000.000001000.000001000.000001000.000001000.00000
     Eigenvalues --- 1000.000001000.000001000.000001000.000001000.00000
     Eigenvalues --- 1000.00000
 RFO step:  Lambda=-5.84567919D-02 EMin= 2.30000000D-03
 Linear search not attempted -- first point.
 Maximum step size (   0.300) exceeded in Quadratic search.
    -- Step size scaled by   0.880
 Iteration  1 RMS(Cart)=  0.06412297 RMS(Int)=  0.00495082
 Iteration  2 RMS(Cart)=  0.00689317 RMS(Int)=  0.00074695
 Iteration  3 RMS(Cart)=  0.00004398 RMS(Int)=  0.00074601
 Iteration  4 RMS(Cart)=  0.00000009 RMS(Int)=  0.00074601
 Iteration  1 RMS(Cart)=  0.00000000 RMS(Int)=  0.00000000
 ITry= 1 IFail=0 DXMaxC= 1.64D-01 DCOld= 1.00D+10 DXMaxT= 3.00D-01 DXLimC= 3.00D+00 Rises=F
 Variable       Old X    -DE/DX   Delta X   Delta X   Delta X     New X
                                 (Linear)    (Quad)   (Total)
    R1        2.45227  -0.16832   0.00000  -0.20091  -0.20091   2.25137
    R2        2.94503  -0.02284   0.00000  -0.06127  -0.06127   2.88376
    R3        5.66918  -0.02069   0.00000   0.00000   0.00000   5.66918
    R4        5.29123  -0.01665   0.00000   0.00000   0.00000   5.29123
    R5        2.07331  -0.00473   0.00000  -0.01045  -0.01045   2.06287
    R6        2.07468  -0.00150   0.00000  -0.00331  -0.00331   2.07137
    R7        2.06868  -0.00077   0.00000  -0.00168  -0.00168   2.06700
    R8        2.20923   0.01526   0.00000   0.01049   0.01049   2.21972
    A1        1.99667   0.05977   0.00000   0.18038   0.17892   2.17559
    A2        2.01908  -0.02336   0.00000  -0.05732  -0.05826   1.96081
    A3        1.89239  -0.01446   0.00000  -0.03074  -0.03268   1.85971
    A4        1.92419  -0.01628   0.00000  -0.04877  -0.04999   1.87420
    A5        1.77194  -0.00615   0.00000  -0.02338  -0.02531   1.74664
    A6        1.83479  -0.00287   0.00000  -0.03480  -0.03668   1.79811
    A7        1.97398  -0.00201   0.00000  -0.00845  -0.00866   1.96531
    A8        1.87942  -0.00655   0.00000  -0.02564  -0.02598   1.85344
    A9        1.90140  -0.01040   0.00000  -0.04228  -0.04272   1.85868
   A10        1.90356   0.00480   0.00000   0.02001   0.01990   1.92346
   A11        1.90837   0.00642   0.00000   0.02451   0.02420   1.93257
   A12        1.89554   0.00804   0.00000   0.03314   0.03249   1.92804
   A13        3.09109  -0.00031   0.00000  -0.00260  -0.00260   3.08849
   A14        2.85938   0.00086   0.00000   0.00718   0.00718   2.86656
    D1        3.04510  -0.00005   0.00000  -0.00278  -0.00244   3.04266
    D2       -1.13357   0.00023   0.00000  -0.00051  -0.00037  -1.13394
    D3        0.91915   0.00054   0.00000   0.00181   0.00220   0.92135
    D4       -0.92685   0.00573   0.00000   0.03383   0.03349  -0.89336
    D5        1.17766   0.00601   0.00000   0.03610   0.03556   1.21322
    D6       -3.05280   0.00632   0.00000   0.03842   0.03814  -3.01467
    D7        1.01121  -0.00628   0.00000  -0.03398  -0.03383   0.97738
    D8        3.11572  -0.00600   0.00000  -0.03170  -0.03176   3.08396
    D9       -1.11475  -0.00569   0.00000  -0.02939  -0.02919  -1.14393
         Item               Value     Threshold  Converged?
 Maximum Force            0.168321     0.000450     NO 
 RMS     Force            0.034368     0.000300     NO 
 Maximum Displacement     0.164037     0.001800     NO 
 RMS     Displacement     0.062824     0.001200     NO 
 Predicted change in Energy=-3.162006D-02
 Lowest energy point so far.  Saving SCF results.
 GradGradGradGradGradGradGradGradGradGradGradGradGradGradGradGradGradGrad

 Leave Link  103 at Wed Jan  8 02:23:56 2020, MaxMem=  4294967296 cpu:              80.5 elap:               6.6
 (Enter /home/cwagen/sw/g16/g16/l202.exe)
                          Input orientation:                          
 ---------------------------------------------------------------------
 Center     Atomic      Atomic             Coordinates (Angstroms)
 Number     Number       Type             X           Y           Z
 ---------------------------------------------------------------------
      1          6           0       -0.203222   -0.371931   -0.255388
      2          8           0       -0.241771   -0.578451   -1.428090
      3          6           0       -0.327960   -1.447774    0.819666
      4          1           0       -0.167410   -1.056078    1.825864
      5          1           0       -1.341805   -1.854446    0.729005
      6          1           0        0.414503   -2.214275    0.579577
      7         17           0       -1.964072    1.916608    0.558242
      8          6           0        2.369461    0.582039    0.302503
      9          7           0        3.505203    0.876451    0.358737
 ---------------------------------------------------------------------
                    Distance matrix (angstroms):
                    1          2          3          4          5
     1  C    0.000000
     2  O    1.191372   0.000000
     3  C    1.526021   2.411547   0.000000
     4  H    2.191107   3.289662   1.091621   0.000000
     5  H    2.112641   2.737024   1.096122   1.794351   0.000000
     6  H    2.114942   2.671581   1.093808   1.798131   1.799006
     7  Cl   3.000000   3.624522   3.750237   3.697530   3.825863
     8  C    2.800000   3.340691   3.415213   3.382273   4.460029
     9  N    3.960811   4.398784   4.506397   4.401729   5.575696
                    6          7          8          9
     6  H    0.000000
     7  Cl   4.766788   0.000000
     8  C    3.423156   4.541585   0.000000
     9  N    4.376503   5.570880   1.174627   0.000000
 Stoichiometry    C3H3ClNO(1-)
 Framework group  C1[X(C3H3ClNO)]
 Deg. of freedom    21
 Full point group                 C1      NOp   1
 RotChk:  IX=0 Diff= 2.02D-02
 Largest Abelian subgroup         C1      NOp   1
 Largest concise Abelian subgroup C1      NOp   1
                         Standard orientation:                         
 ---------------------------------------------------------------------
 Center     Atomic      Atomic             Coordinates (Angstroms)
 Number     Number       Type             X           Y           Z
 ---------------------------------------------------------------------
      1          6           0        0.035046    0.872983    0.238480
      2          8           0        0.107190    1.331705    1.335629
      3          6           0        0.131388    1.685388   -1.049719
      4          1           0        0.138943    1.057139   -1.942401
      5          1           0       -0.742373    2.347146   -1.059872
      6          1           0        1.053202    2.270032   -0.979959
      7         17           0       -2.281186   -1.010016   -0.060496
      8          6           0        2.255701   -0.803874   -0.072711
      9          7           0        3.277153   -1.383525   -0.052953
 ---------------------------------------------------------------------
 Rotational constants (GHZ):           2.5056259           1.1397376           0.9202143
 Leave Link  202 at Wed Jan  8 02:23:56 2020, MaxMem=  4294967296 cpu:               1.9 elap:               0.2
 (Enter /home/cwagen/sw/g16/g16/l301.exe)
 Standard basis: 6-31+G(d) (6D, 7F)
 Ernie: Thresh=  0.10000D-02 Tol=  0.10000D-05 Strict=F.
 There are   124 symmetry adapted cartesian basis functions of A   symmetry.
 There are   124 symmetry adapted basis functions of A   symmetry.
   124 basis functions,   228 primitive gaussians,   124 cartesian basis functions
    27 alpha electrons       27 beta electrons
       nuclear repulsion energy       206.0175987054 Hartrees.
 IExCor=  402 DFT=T Ex+Corr=B3LYP ExCW=0 ScaHFX=  0.200000
 ScaDFX=  0.800000  0.720000  1.000000  0.810000 ScalE2=  1.000000  1.000000
 IRadAn=      5 IRanWt=     -1 IRanGd=            0 ICorTp=0 IEmpDi=  4
 NAtoms=    9 NActive=    9 NUniq=    9 SFac= 1.00D+00 NAtFMM=   60 NAOKFM=F Big=F
 Integral buffers will be    131072 words long.
 Raffenetti 2 integral format.
 Two-electron integral symmetry is turned on.
 ------------------------------------------------------------------------------
 Polarizable Continuum Model (PCM)
 =================================
 Model                : PCM.
 Atomic radii         : SMD-Coulomb.
 Polarization charges : Total charges.
 Charge compensation  : None.
 Solution method      : On-the-fly selection.
 Cavity type          : VdW (van der Waals Surface) (Alpha=1.000).
 Cavity algorithm     : GePol (No added spheres)
                        Default sphere list used, NSphG=    9.
                        Lebedev-Laikov grids with approx.  5.0 points / Ang**2.
                        Smoothing algorithm: York/Karplus (Gamma=1.0000).
                        Polarization charges: spherical gaussians, with
                                              point-specific exponents (IZeta= 3).
                        Self-potential: point-specific (ISelfS= 7).
                        Self-field    : sphere-specific E.n sum rule (ISelfD= 2).
 1st derivatives      : Analytical E(r).r(x)/FMM algorithm (CHGder, D1EAlg=3).
                        Cavity 1st derivative terms included.
 Solvent              : TetraHydroFuran, Eps=   7.425700 Eps(inf)=   1.974025
 ------------------------------------------------------------------------------
 Spheres list:
 ISph  on   Nord     Re0    Alpha      Xe            Ye            Ze
    1   C      1    1.8500  1.000      0.035046      0.872983      0.238480
    2   O      2    2.2940  1.000      0.107190      1.331705      1.335629
    3   C      3    1.8500  1.000      0.131388      1.685388     -1.049719
    4   H      4    1.2000  1.000      0.138943      1.057139     -1.942401
    5   H      5    1.2000  1.000     -0.742373      2.347146     -1.059872
    6   H      6    1.2000  1.000      1.053202      2.270032     -0.979959
    7  Cl      7    2.3800  1.000     -2.281186     -1.010016     -0.060496
    8   C      8    1.8500  1.000      2.255701     -0.803874     -0.072711
    9   N      9    1.8900  1.000      3.277153     -1.383525     -0.052953
 ------------------------------------------------------------------------------
 GePol: Number of generator spheres                  =       9
 GePol: Total number of spheres                      =       9
 GePol: Number of exposed spheres                    =       9 (100.00%)
 GePol: Number of points                             =    1391
 GePol: Average weight of points                     =       0.14
 GePol: Minimum weight of points                     =   0.24D-10
 GePol: Maximum weight of points                     =    0.18138
 GePol: Number of points with low weight             =      44
 GePol: Fraction of low-weight points (<1% of avg)   =       3.16%
 GePol: Cavity surface area                          =    188.540 Ang**2
 GePol: Cavity volume                                =    162.903 Ang**3
 ------------------------------------------------------------------------------
 Atomic radii for non-electrostatic terms: SMD-CDS.
 ------------------------------------------------------------------------------
 PCM non-electrostatic energy =         0.0010480184 Hartrees.
 Nuclear repulsion after PCM non-electrostatic terms =      206.0186467238 Hartrees.
 Leave Link  301 at Wed Jan  8 02:23:57 2020, MaxMem=  4294967296 cpu:               2.5 elap:               0.2
 (Enter /home/cwagen/sw/g16/g16/l302.exe)
 NPDir=0 NMtPBC=     1 NCelOv=     1 NCel=       1 NClECP=     1 NCelD=      1
         NCelK=      1 NCelE2=     1 NClLst=     1 CellRange=     0.0.
 One-electron integrals computed using PRISM.
 One-electron integral symmetry used in STVInt
 NBasis=   124 RedAO= T EigKep=  2.03D-04  NBF=   124
 NBsUse=   124 1.00D-06 EigRej= -1.00D+00 NBFU=   124
 Precomputing XC quadrature grid using
 IXCGrd= 4 IRadAn=           5 IRanWt=          -1 IRanGd=           0 AccXCQ= 0.00D+00.
 Generated NRdTot=       0 NPtTot=           0 NUsed=           0 NTot=          32
 NSgBfM=   123   123   123   123   123 MxSgAt=     9 MxSgA2=     9.
 Leave Link  302 at Wed Jan  8 02:23:59 2020, MaxMem=  4294967296 cpu:              36.2 elap:               2.8
 (Enter /home/cwagen/sw/g16/g16/l303.exe)
 DipDrv:  MaxL=1.
 Leave Link  303 at Wed Jan  8 02:24:00 2020, MaxMem=  4294967296 cpu:               3.9 elap:               0.4
 (Enter /home/cwagen/sw/g16/g16/l401.exe)
 Initial guess from the checkpoint file:  "/scratch/users/cwagen/cwagen_scan_300_280/Gau-8195.chk"
 B after Tr=     0.000000    0.000000    0.000000
         Rot=    0.999963   -0.006501    0.000287   -0.005674 Ang=  -0.99 deg.
 Guess basis will be translated and rotated to current coordinates.
 JPrj=2 DoOrth=T DoCkMO=T.
 Generating alternative initial guess.
 ExpMin= 4.38D-02 ExpMax= 2.52D+04 ExpMxC= 3.78D+03 IAcc=2 IRadAn=         4 AccDes= 0.00D+00
 Harris functional with IExCor=  402 and IRadAn=       4 diagonalized for initial guess.
 HarFok:  IExCor=  402 AccDes= 0.00D+00 IRadAn=         4 IDoV= 1 UseB2=F ITyADJ=14
 ICtDFT=  3500011 ScaDFX=  1.000000  1.000000  1.000000  1.000000
 FoFCou: FMM=F IPFlag=           0 FMFlag=      100000 FMFlg1=           0
         NFxFlg=           0 DoJE=T BraDBF=F KetDBF=T FulRan=T
         wScrn=  0.000000 ICntrl=       500 IOpCl=  0 I1Cent=   200000004 NGrid=           0
         NMat0=    1 NMatS0=      1 NMatT0=    0 NMatD0=    1 NMtDS0=    0 NMtDT0=    0
 Petite list used in FoFCou.
 Harris En= -706.351394623579    
 Leave Link  401 at Wed Jan  8 02:24:03 2020, MaxMem=  4294967296 cpu:              45.6 elap:               3.5
 (Enter /home/cwagen/sw/g16/g16/l502.exe)
 Keep R1 ints in memory in canonical form, NReq=45236517.
 FoFCou: FMM=F IPFlag=           0 FMFlag=           0 FMFlg1=           0
         NFxFlg=           0 DoJE=F BraDBF=F KetDBF=F FulRan=T
         wScrn=  0.000000 ICntrl=       600 IOpCl=  0 I1Cent=           0 NGrid=           0
         NMat0=    1 NMatS0=   7750 NMatT0=    0 NMatD0=    1 NMtDS0=    0 NMtDT0=    0
 Symmetry not used in FoFCou.
 Two-electron integral symmetry not used.
 Closed shell SCF:
 Using DIIS extrapolation, IDIIS=  1040.
 NGot=  4294967296 LenX=  4264898079 LenY=  4264882262
 Requested convergence on RMS density matrix=1.00D-08 within 128 cycles.
 Requested convergence on MAX density matrix=1.00D-06.
 Requested convergence on             energy=1.00D-06.
 No special actions if energy rises.

 Cycle   1  Pass 1  IDiag  1:
 Inv3:  Mode=1 IEnd=     5804643.
 Iteration    1 A*A^-1 deviation from unit magnitude is 6.44D-15 for   1386.
 Iteration    1 A*A^-1 deviation from orthogonality  is 2.10D-15 for   1376    158.
 Iteration    1 A^-1*A deviation from unit magnitude is 6.00D-15 for   1386.
 Iteration    1 A^-1*A deviation from orthogonality  is 1.62D-15 for   1385   1384.
 E= -706.343829315620    
 DIIS: error= 6.44D-03 at cycle   1 NSaved=   1.
 NSaved= 1 IEnMin= 1 EnMin= -706.343829315620     IErMin= 1 ErrMin= 6.44D-03
 ErrMax= 6.44D-03  0.00D+00 EMaxC= 1.00D-01 BMatC= 1.08D-02 BMatP= 1.08D-02
 IDIUse=3 WtCom= 9.36D-01 WtEn= 6.44D-02
 Coeff-Com:  0.100D+01
 Coeff-En:   0.100D+01
 Coeff:      0.100D+01
 Gap=     0.582 Goal=   None    Shift=    0.000
 GapD=    0.582 DampG=2.000 DampE=1.000 DampFc=2.0000 IDamp=-1.
 RMSDP=1.73D-03 MaxDP=3.69D-02              OVMax= 4.59D-02

 Cycle   2  Pass 1  IDiag  1:
 E= -706.360564559974     Delta-E=       -0.016735244354 Rises=F Damp=F
 DIIS: error= 2.49D-03 at cycle   2 NSaved=   2.
 NSaved= 2 IEnMin= 2 EnMin= -706.360564559974     IErMin= 2 ErrMin= 2.49D-03
 ErrMax= 2.49D-03  0.00D+00 EMaxC= 1.00D-01 BMatC= 1.05D-03 BMatP= 1.08D-02
 IDIUse=3 WtCom= 9.75D-01 WtEn= 2.49D-02
 Coeff-Com:  0.113D+00 0.887D+00
 Coeff-En:   0.000D+00 0.100D+01
 Coeff:      0.111D+00 0.889D+00
 Gap=     0.106 Goal=   None    Shift=    0.000
 RMSDP=5.54D-04 MaxDP=1.91D-02 DE=-1.67D-02 OVMax= 2.78D-02

 Cycle   3  Pass 1  IDiag  1:
 E= -706.358991940635     Delta-E=        0.001572619339 Rises=F Damp=F
 DIIS: error= 4.58D-03 at cycle   3 NSaved=   3.
 NSaved= 3 IEnMin= 2 EnMin= -706.360564559974     IErMin= 2 ErrMin= 2.49D-03
 ErrMax= 4.58D-03  0.00D+00 EMaxC= 1.00D-01 BMatC= 3.14D-03 BMatP= 1.05D-03
 IDIUse=3 WtCom= 1.29D-01 WtEn= 8.71D-01
 Coeff-Com: -0.530D-02 0.646D+00 0.360D+00
 Coeff-En:   0.000D+00 0.708D+00 0.292D+00
 Coeff:     -0.682D-03 0.700D+00 0.301D+00
 Gap=     0.103 Goal=   None    Shift=    0.000
 RMSDP=3.13D-04 MaxDP=1.24D-02 DE= 1.57D-03 OVMax= 1.24D-02

 Cycle   4  Pass 1  IDiag  1:
 E= -706.361388034061     Delta-E=       -0.002396093426 Rises=F Damp=F
 DIIS: error= 5.02D-04 at cycle   4 NSaved=   4.
 NSaved= 4 IEnMin= 4 EnMin= -706.361388034061     IErMin= 4 ErrMin= 5.02D-04
 ErrMax= 5.02D-04  0.00D+00 EMaxC= 1.00D-01 BMatC= 5.13D-05 BMatP= 1.05D-03
 IDIUse=3 WtCom= 9.95D-01 WtEn= 5.02D-03
 Coeff-Com: -0.182D-01 0.245D+00 0.120D+00 0.653D+00
 Coeff-En:   0.000D+00 0.000D+00 0.000D+00 0.100D+01
 Coeff:     -0.181D-01 0.243D+00 0.120D+00 0.655D+00
 Gap=     0.103 Goal=   None    Shift=    0.000
 RMSDP=1.00D-04 MaxDP=3.58D-03 DE=-2.40D-03 OVMax= 3.66D-03

 Cycle   5  Pass 1  IDiag  1:
 E= -706.361437835147     Delta-E=       -0.000049801086 Rises=F Damp=F
 DIIS: error= 2.07D-04 at cycle   5 NSaved=   5.
 NSaved= 5 IEnMin= 5 EnMin= -706.361437835147     IErMin= 5 ErrMin= 2.07D-04
 ErrMax= 2.07D-04  0.00D+00 EMaxC= 1.00D-01 BMatC= 6.31D-06 BMatP= 5.13D-05
 IDIUse=3 WtCom= 9.98D-01 WtEn= 2.07D-03
 Coeff-Com: -0.599D-02 0.552D-01 0.315D-01 0.290D+00 0.629D+00
 Coeff-En:   0.000D+00 0.000D+00 0.000D+00 0.117D-01 0.988D+00
 Coeff:     -0.598D-02 0.551D-01 0.314D-01 0.290D+00 0.630D+00
 Gap=     0.103 Goal=   None    Shift=    0.000
 RMSDP=3.82D-05 MaxDP=1.23D-03 DE=-4.98D-05 OVMax= 1.87D-03

 Cycle   6  Pass 1  IDiag  1:
 E= -706.361445104720     Delta-E=       -0.000007269573 Rises=F Damp=F
 DIIS: error= 6.68D-05 at cycle   6 NSaved=   6.
 NSaved= 6 IEnMin= 6 EnMin= -706.361445104720     IErMin= 6 ErrMin= 6.68D-05
 ErrMax= 6.68D-05  0.00D+00 EMaxC= 1.00D-01 BMatC= 8.41D-07 BMatP= 6.31D-06
 IDIUse=1 WtCom= 1.00D+00 WtEn= 0.00D+00
 Coeff-Com: -0.133D-02 0.805D-02 0.666D-02 0.997D-01 0.342D+00 0.545D+00
 Coeff:     -0.133D-02 0.805D-02 0.666D-02 0.997D-01 0.342D+00 0.545D+00
 Gap=     0.103 Goal=   None    Shift=    0.000
 RMSDP=1.35D-05 MaxDP=3.76D-04 DE=-7.27D-06 OVMax= 8.48D-04

 Cycle   7  Pass 1  IDiag  1:
 E= -706.361446057809     Delta-E=       -0.000000953090 Rises=F Damp=F
 DIIS: error= 2.14D-05 at cycle   7 NSaved=   7.
 NSaved= 7 IEnMin= 7 EnMin= -706.361446057809     IErMin= 7 ErrMin= 2.14D-05
 ErrMax= 2.14D-05  0.00D+00 EMaxC= 1.00D-01 BMatC= 1.13D-07 BMatP= 8.41D-07
 IDIUse=1 WtCom= 1.00D+00 WtEn= 0.00D+00
 Coeff-Com: -0.487D-03-0.805D-03 0.256D-03 0.265D-01 0.131D+00 0.318D+00
 Coeff-Com:  0.526D+00
 Coeff:     -0.487D-03-0.805D-03 0.256D-03 0.265D-01 0.131D+00 0.318D+00
 Coeff:      0.526D+00
 Gap=     0.103 Goal=   None    Shift=    0.000
 RMSDP=5.45D-06 MaxDP=1.27D-04 DE=-9.53D-07 OVMax= 2.34D-04

 Cycle   8  Pass 1  IDiag  1:
 E= -706.361446168386     Delta-E=       -0.000000110576 Rises=F Damp=F
 DIIS: error= 1.15D-05 at cycle   8 NSaved=   8.
 NSaved= 8 IEnMin= 8 EnMin= -706.361446168386     IErMin= 8 ErrMin= 1.15D-05
 ErrMax= 1.15D-05  0.00D+00 EMaxC= 1.00D-01 BMatC= 2.33D-08 BMatP= 1.13D-07
 IDIUse=1 WtCom= 1.00D+00 WtEn= 0.00D+00
 Coeff-Com:  0.140D-03-0.300D-02-0.185D-02-0.559D-02 0.160D-01 0.983D-01
 Coeff-Com:  0.332D+00 0.564D+00
 Coeff:      0.140D-03-0.300D-02-0.185D-02-0.559D-02 0.160D-01 0.983D-01
 Coeff:      0.332D+00 0.564D+00
 Gap=     0.103 Goal=   None    Shift=    0.000
 RMSDP=2.25D-06 MaxDP=3.98D-05 DE=-1.11D-07 OVMax= 1.47D-04

 Cycle   9  Pass 1  IDiag  1:
 E= -706.361446196697     Delta-E=       -0.000000028311 Rises=F Damp=F
 DIIS: error= 4.55D-06 at cycle   9 NSaved=   9.
 NSaved= 9 IEnMin= 9 EnMin= -706.361446196697     IErMin= 9 ErrMin= 4.55D-06
 ErrMax= 4.55D-06  0.00D+00 EMaxC= 1.00D-01 BMatC= 1.94D-09 BMatP= 2.33D-08
 IDIUse=1 WtCom= 1.00D+00 WtEn= 0.00D+00
 Coeff-Com:  0.104D-03-0.129D-02-0.997D-03-0.388D-02 0.641D-03 0.249D-01
 Coeff-Com:  0.845D-01 0.273D+00 0.623D+00
 Coeff:      0.104D-03-0.129D-02-0.997D-03-0.388D-02 0.641D-03 0.249D-01
 Coeff:      0.845D-01 0.273D+00 0.623D+00
 Gap=     0.103 Goal=   None    Shift=    0.000
 RMSDP=5.21D-07 MaxDP=1.28D-05 DE=-2.83D-08 OVMax= 1.71D-05

 Cycle  10  Pass 1  IDiag  1:
 E= -706.361446198014     Delta-E=       -0.000000001317 Rises=F Damp=F
 DIIS: error= 1.43D-06 at cycle  10 NSaved=  10.
 NSaved=10 IEnMin=10 EnMin= -706.361446198014     IErMin=10 ErrMin= 1.43D-06
 ErrMax= 1.43D-06  0.00D+00 EMaxC= 1.00D-01 BMatC= 6.16D-10 BMatP= 1.94D-09
 IDIUse=1 WtCom= 1.00D+00 WtEn= 0.00D+00
 Coeff-Com:  0.325D-04-0.259D-03-0.375D-03-0.201D-02-0.422D-02-0.485D-02
 Coeff-Com: -0.103D-01 0.101D+00 0.450D+00 0.471D+00
 Coeff:      0.325D-04-0.259D-03-0.375D-03-0.201D-02-0.422D-02-0.485D-02
 Coeff:     -0.103D-01 0.101D+00 0.450D+00 0.471D+00
 Gap=     0.103 Goal=   None    Shift=    0.000
 RMSDP=3.72D-07 MaxDP=9.09D-06 DE=-1.32D-09 OVMax= 2.25D-05

 Cycle  11  Pass 1  IDiag  1:
 E= -706.361446198791     Delta-E=       -0.000000000777 Rises=F Damp=F
 DIIS: error= 3.77D-07 at cycle  11 NSaved=  11.
 NSaved=11 IEnMin=11 EnMin= -706.361446198791     IErMin=11 ErrMin= 3.77D-07
 ErrMax= 3.77D-07  0.00D+00 EMaxC= 1.00D-01 BMatC= 3.06D-11 BMatP= 6.16D-10
 IDIUse=1 WtCom= 1.00D+00 WtEn= 0.00D+00
 Coeff-Com:  0.101D-04-0.388D-04-0.972D-04-0.613D-03-0.152D-02-0.357D-02
 Coeff-Com: -0.103D-01 0.279D-01 0.152D+00 0.256D+00 0.580D+00
 Coeff:      0.101D-04-0.388D-04-0.972D-04-0.613D-03-0.152D-02-0.357D-02
 Coeff:     -0.103D-01 0.279D-01 0.152D+00 0.256D+00 0.580D+00
 Gap=     0.103 Goal=   None    Shift=    0.000
 RMSDP=6.68D-08 MaxDP=1.54D-06 DE=-7.77D-10 OVMax= 4.07D-06

 Cycle  12  Pass 1  IDiag  1:
 E= -706.361446198828     Delta-E=       -0.000000000037 Rises=F Damp=F
 DIIS: error= 8.78D-08 at cycle  12 NSaved=  12.
 NSaved=12 IEnMin=12 EnMin= -706.361446198828     IErMin=12 ErrMin= 8.78D-08
 ErrMax= 8.78D-08  0.00D+00 EMaxC= 1.00D-01 BMatC= 2.30D-12 BMatP= 3.06D-11
 IDIUse=1 WtCom= 1.00D+00 WtEn= 0.00D+00
 Coeff-Com:  0.544D-07 0.212D-04 0.116D-04-0.418D-04-0.208D-03-0.143D-02
 Coeff-Com: -0.381D-02-0.496D-03 0.748D-02 0.679D-01 0.250D+00 0.680D+00
 Coeff:      0.544D-07 0.212D-04 0.116D-04-0.418D-04-0.208D-03-0.143D-02
 Coeff:     -0.381D-02-0.496D-03 0.748D-02 0.679D-01 0.250D+00 0.680D+00
 Gap=     0.103 Goal=   None    Shift=    0.000
 RMSDP=2.13D-08 MaxDP=5.87D-07 DE=-3.67D-11 OVMax= 8.09D-07

 Cycle  13  Pass 1  IDiag  1:
 E= -706.361446198831     Delta-E=       -0.000000000003 Rises=F Damp=F
 DIIS: error= 2.68D-08 at cycle  13 NSaved=  13.
 NSaved=13 IEnMin=13 EnMin= -706.361446198831     IErMin=13 ErrMin= 2.68D-08
 ErrMax= 2.68D-08  0.00D+00 EMaxC= 1.00D-01 BMatC= 9.21D-14 BMatP= 2.30D-12
 IDIUse=1 WtCom= 1.00D+00 WtEn= 0.00D+00
 Coeff-Com: -0.747D-06 0.719D-05 0.112D-04 0.338D-04 0.831D-04-0.942D-04
 Coeff-Com:  0.124D-03-0.206D-02-0.118D-01-0.137D-02 0.120D-01 0.161D+00
 Coeff-Com:  0.842D+00
 Coeff:     -0.747D-06 0.719D-05 0.112D-04 0.338D-04 0.831D-04-0.942D-04
 Coeff:      0.124D-03-0.206D-02-0.118D-01-0.137D-02 0.120D-01 0.161D+00
 Coeff:      0.842D+00
 Gap=     0.103 Goal=   None    Shift=    0.000
 RMSDP=1.01D-08 MaxDP=3.66D-07 DE=-2.50D-12 OVMax= 3.70D-07

 Cycle  14  Pass 1  IDiag  1:
 E= -706.361446198831     Delta-E=       -0.000000000001 Rises=F Damp=F
 DIIS: error= 5.67D-09 at cycle  14 NSaved=  14.
 NSaved=14 IEnMin=14 EnMin= -706.361446198831     IErMin=14 ErrMin= 5.67D-09
 ErrMax= 5.67D-09  0.00D+00 EMaxC= 1.00D-01 BMatC= 4.61D-15 BMatP= 9.21D-14
 IDIUse=1 WtCom= 1.00D+00 WtEn= 0.00D+00
 Coeff-Com: -0.101D-06-0.239D-06-0.201D-06 0.730D-05 0.198D-04 0.645D-04
 Coeff-Com:  0.246D-03-0.132D-03-0.173D-02-0.480D-02-0.144D-01-0.324D-01
 Coeff-Com:  0.866D-01 0.967D+00
 Coeff:     -0.101D-06-0.239D-06-0.201D-06 0.730D-05 0.198D-04 0.645D-04
 Coeff:      0.246D-03-0.132D-03-0.173D-02-0.480D-02-0.144D-01-0.324D-01
 Coeff:      0.866D-01 0.967D+00
 Gap=     0.103 Goal=   None    Shift=    0.000
 RMSDP=3.15D-09 MaxDP=1.18D-07 DE=-5.68D-13 OVMax= 1.32D-07

 Error on total polarization charges =  0.02703
 SCF Done:  E(RB3LYP) =  -706.361446199     A.U. after   14 cycles
            NFock= 14  Conv=0.31D-08     -V/T= 2.0061
 KE= 7.020824571837D+02 PE=-2.088453734557D+03 EE= 4.739911844506D+02
 SMD-CDS (non-electrostatic) energy       (kcal/mol) =       0.66
 (included in total energy above)
 Leave Link  502 at Wed Jan  8 02:24:49 2020, MaxMem=  4294967296 cpu:             617.7 elap:              45.7
 (Enter /home/cwagen/sw/g16/g16/l701.exe)
 ... and contract with generalized density number  0.
 Compute integral first derivatives.
 D1PCM: PCM CHGder 1st derivatives, ID1Alg=3 FixD1E=F DoIter=F DoCFld=F I1PDM=0.
 GePol: Maximum number of non-zero 1st derivatives   =     410
 Leave Link  701 at Wed Jan  8 02:24:55 2020, MaxMem=  4294967296 cpu:              74.1 elap:               5.7
 (Enter /home/cwagen/sw/g16/g16/l702.exe)
 L702 exits ... SP integral derivatives will be done elsewhere.
 Leave Link  702 at Wed Jan  8 02:24:55 2020, MaxMem=  4294967296 cpu:               1.1 elap:               0.2
 (Enter /home/cwagen/sw/g16/g16/l703.exe)
 Integral derivatives from FoFJK, PRISM(SPDF).
 Compute integral first derivatives, UseDBF=F ICtDFT=           0.
 Calling FoFJK, ICntrl=      2127 FMM=F ISym2X=0 I1Cent= 0 IOpClX= 0 NMat=1 NMatS=1 NMatT=0.
 FoFJK:  IHMeth= 1 ICntrl=    2127 DoSepK=F KAlg= 0 I1Cent=           0 FoldK=F
 IRaf=         0 NMat=       1 IRICut=       1 DoRegI=T DoRafI=F ISym2E= 0 IDoP0=0 IntGTp=1.
 FoFCou: FMM=F IPFlag=           0 FMFlag=      100000 FMFlg1=         800
         NFxFlg=           0 DoJE=F BraDBF=F KetDBF=F FulRan=T
         wScrn=  0.000000 ICntrl=      2127 IOpCl=  0 I1Cent=           0 NGrid=           0
         NMat0=    1 NMatS0=      1 NMatT0=    0 NMatD0=    1 NMtDS0=    0 NMtDT0=    0
 Symmetry not used in FoFCou.
 Leave Link  703 at Wed Jan  8 02:24:58 2020, MaxMem=  4294967296 cpu:              35.8 elap:               2.7
 (Enter /home/cwagen/sw/g16/g16/l716.exe)
 Dipole        =-1.07953568D+00 4.47514402D+00-8.27018176D-01
 ***** Axes restored to original set *****
 -------------------------------------------------------------------
 Center     Atomic                   Forces (Hartrees/Bohr)
 Number     Number              X              Y              Z
 -------------------------------------------------------------------
      1        6          -0.003297938   -0.052144335   -0.064471188
      2        8           0.003644124    0.041566212    0.061751696
      3        6           0.000314896    0.023454580    0.015533760
      4        1          -0.000156382    0.000171432   -0.002238141
      5        1          -0.000492306    0.002341003   -0.001625763
      6        1           0.002139584    0.002535860   -0.002751359
      7       17           0.010759466   -0.013862750   -0.004173896
      8        6          -0.016991915   -0.005195121   -0.002634907
      9        7           0.004080470    0.001133120    0.000609798
 -------------------------------------------------------------------
 Cartesian Forces:  Max     0.064471188 RMS     0.022714485
 Leave Link  716 at Wed Jan  8 02:24:58 2020, MaxMem=  4294967296 cpu:               1.2 elap:               0.1
 (Enter /home/cwagen/sw/g16/g16/l103.exe)

 GradGradGradGradGradGradGradGradGradGradGradGradGradGradGradGradGradGrad
 Berny optimization.
 Using GEDIIS/GDIIS optimizer.
 FormGI is forming the generalized inverse of G from B-inverse, IUseBI=4.
 Internal  Forces:  Max     0.068098584 RMS     0.016991219
 Search for a local minimum.
 Step number   2 out of a maximum of   41
 All quantities printed in internal units (Hartrees-Bohrs-Radians)
 RMS Force = .17058D-01 SwitMx=.10000D-02 MixMth= 1
 Mixed Optimization -- RFO/linear search
 Update second derivatives using D2CorX and points    1    2
 DE= -4.11D-02 DEPred=-3.16D-02 R= 1.30D+00
 TightC=F SS=  1.41D+00  RLast= 3.11D-01 DXNew= 5.0454D-01 9.3356D-01
 Trust test= 1.30D+00 RLast= 3.11D-01 DXMaxT set to 5.05D-01
 ITU=  1  0
 Use linear search instead of GDIIS.
     Eigenvalues ---    0.00230   0.04746   0.04747   0.05545   0.05859
     Eigenvalues ---    0.06222   0.09509   0.15198   0.16000   0.16021
     Eigenvalues ---    0.17001   0.25000   0.25087   0.26951   0.33920
     Eigenvalues ---    0.34005   0.34277   0.66655   1.221441000.00000
     Eigenvalues --- 1000.000001000.000001000.000001000.000001000.00000
     Eigenvalues --- 1000.000001000.000001000.000001000.000001000.00000
     Eigenvalues --- 1000.00000
 RFO step:  Lambda=-4.37347977D-03 EMin= 2.29998926D-03
 Quartic linear search produced a step of  0.66233.
 Iteration  1 RMS(Cart)=  0.07825927 RMS(Int)=  0.00539650
 Iteration  2 RMS(Cart)=  0.00648982 RMS(Int)=  0.00146487
 Iteration  3 RMS(Cart)=  0.00004205 RMS(Int)=  0.00146459
 Iteration  4 RMS(Cart)=  0.00000008 RMS(Int)=  0.00146459
 Iteration  1 RMS(Cart)=  0.00000000 RMS(Int)=  0.00000000
 ITry= 1 IFail=0 DXMaxC= 2.28D-01 DCOld= 1.00D+10 DXMaxT= 5.05D-01 DXLimC= 3.00D+00 Rises=F
 Variable       Old X    -DE/DX   Delta X   Delta X   Delta X     New X
                                 (Linear)    (Quad)   (Total)
    R1        2.25137  -0.06810  -0.13307   0.00891  -0.12416   2.12721
    R2        2.88376  -0.01395  -0.04058  -0.00939  -0.04997   2.83379
    R3        5.66918  -0.01804   0.00000   0.00000   0.00000   5.66918
    R4        5.29123  -0.01363   0.00000   0.00000   0.00000   5.29123
    R5        2.06287  -0.00200  -0.00692   0.00188  -0.00504   2.05782
    R6        2.07137  -0.00027  -0.00220   0.00234   0.00014   2.07151
    R7        2.06700   0.00022  -0.00111   0.00292   0.00180   2.06880
    R8        2.21972   0.00426   0.00695  -0.00222   0.00473   2.22445
    A1        2.17559   0.05038   0.11850   0.10868   0.22614   2.40172
    A2        1.96081  -0.01844  -0.03859  -0.04366  -0.08136   1.87945
    A3        1.85971  -0.01170  -0.02164  -0.01880  -0.04395   1.81577
    A4        1.87420  -0.01730  -0.03311  -0.05385  -0.08708   1.78711
    A5        1.74664  -0.00912  -0.01676  -0.02551  -0.04628   1.70035
    A6        1.79811  -0.00051  -0.02430   0.02733  -0.00176   1.79634
    A7        1.96531   0.00005  -0.00574   0.01538   0.00952   1.97484
    A8        1.85344  -0.00315  -0.01721   0.01120  -0.00626   1.84718
    A9        1.85868  -0.00550  -0.02830   0.01406  -0.01455   1.84413
   A10        1.92346   0.00188   0.01318  -0.01197   0.00113   1.92459
   A11        1.93257   0.00256   0.01603  -0.01323   0.00262   1.93519
   A12        1.92804   0.00384   0.02152  -0.01407   0.00693   1.93497
   A13        3.08849  -0.00006  -0.00172   0.00795   0.00623   3.09472
   A14        2.86656   0.00060   0.00476  -0.00799  -0.00324   2.86332
    D1        3.04266   0.00030  -0.00161   0.00158   0.00084   3.04350
    D2       -1.13394   0.00057  -0.00025   0.00320   0.00366  -1.13029
    D3        0.92135   0.00079   0.00146  -0.00072   0.00168   0.92303
    D4       -0.89336   0.00408   0.02218  -0.01777   0.00276  -0.89060
    D5        1.21322   0.00435   0.02355  -0.01616   0.00558   1.21880
    D6       -3.01467   0.00457   0.02526  -0.02008   0.00360  -3.01106
    D7        0.97738  -0.00486  -0.02240  -0.01310  -0.03464   0.94274
    D8        3.08396  -0.00459  -0.02104  -0.01149  -0.03182   3.05214
    D9       -1.14393  -0.00438  -0.01933  -0.01540  -0.03379  -1.17772
         Item               Value     Threshold  Converged?
 Maximum Force            0.068099     0.000450     NO 
 RMS     Force            0.017058     0.000300     NO 
 Maximum Displacement     0.228021     0.001800     NO 
 RMS     Displacement     0.082910     0.001200     NO 
 Predicted change in Energy=-1.790550D-02
 Lowest energy point so far.  Saving SCF results.
 GradGradGradGradGradGradGradGradGradGradGradGradGradGradGradGradGradGrad

 Leave Link  103 at Wed Jan  8 02:25:04 2020, MaxMem=  4294967296 cpu:              79.0 elap:               6.1
 (Enter /home/cwagen/sw/g16/g16/l202.exe)
                          Input orientation:                          
 ---------------------------------------------------------------------
 Center     Atomic      Atomic             Coordinates (Angstroms)
 Number     Number       Type             X           Y           Z
 ---------------------------------------------------------------------
      1          6           0       -0.203586   -0.438497   -0.313846
      2          8           0       -0.223724   -0.463918   -1.439050
      3          6           0       -0.318290   -1.415183    0.818257
      4          1           0       -0.143925   -0.962759    1.793309
      5          1           0       -1.336064   -1.818621    0.763306
      6          1           0        0.421916   -2.194958    0.611971
      7         17           0       -1.995041    1.795945    0.579440
      8          6           0        2.352918    0.525853    0.297968
      9          7           0        3.488722    0.824281    0.378761
 ---------------------------------------------------------------------
                    Distance matrix (angstroms):
                    1          2          3          4          5
     1  C    0.000000
     2  O    1.125671   0.000000
     3  C    1.499577   2.451384   0.000000
     4  H    2.172213   3.271597   1.088952   0.000000
     5  H    2.085068   2.814763   1.096197   1.792931   0.000000
     6  H    2.081717   2.760441   1.094763   1.798346   1.804169
     7  Cl   3.000000   3.509821   3.630409   3.537026   3.678742
     8  C    2.800000   3.261282   3.342705   3.268981   4.395645
     9  N    3.963262   4.329682   4.438659   4.288425   5.514651
                    6          7          8          9
     6  H    0.000000
     7  Cl   4.665838   0.000000
     8  C    3.351146   4.538404   0.000000
     9  N    4.309929   5.572797   1.177131   0.000000
 Stoichiometry    C3H3ClNO(1-)
 Framework group  C1[X(C3H3ClNO)]
 Deg. of freedom    21
 Full point group                 C1      NOp   1
 RotChk:  IX=0 Diff= 4.26D-02
 Largest Abelian subgroup         C1      NOp   1
 Largest concise Abelian subgroup C1      NOp   1
                         Standard orientation:                         
 ---------------------------------------------------------------------
 Center     Atomic      Atomic             Coordinates (Angstroms)
 Number     Number       Type             X           Y           Z
 ---------------------------------------------------------------------
      1          6           0        0.036168    0.919199    0.271372
      2          8           0        0.078611    1.214799    1.356708
      3          6           0        0.091495    1.598356   -1.064449
      4          1           0        0.108824    0.899685   -1.899539
      5          1           0       -0.802971    2.229942   -1.116183
      6          1           0        0.999790    2.209286   -1.047967
      7         17           0       -2.261201   -0.980230   -0.066658
      8          6           0        2.270485   -0.733418   -0.070212
      9          7           0        3.302428   -1.299746   -0.068150
 ---------------------------------------------------------------------
 Rotational constants (GHZ):           2.6807648           1.1363324           0.9460562
 Leave Link  202 at Wed Jan  8 02:25:04 2020, MaxMem=  4294967296 cpu:               2.3 elap:               0.2
 (Enter /home/cwagen/sw/g16/g16/l301.exe)
 Standard basis: 6-31+G(d) (6D, 7F)
 Ernie: Thresh=  0.10000D-02 Tol=  0.10000D-05 Strict=F.
 There are   124 symmetry adapted cartesian basis functions of A   symmetry.
 There are   124 symmetry adapted basis functions of A   symmetry.
   124 basis functions,   228 primitive gaussians,   124 cartesian basis functions
    27 alpha electrons       27 beta electrons
       nuclear repulsion energy       209.2089441705 Hartrees.
 IExCor=  402 DFT=T Ex+Corr=B3LYP ExCW=0 ScaHFX=  0.200000
 ScaDFX=  0.800000  0.720000  1.000000  0.810000 ScalE2=  1.000000  1.000000
 IRadAn=      5 IRanWt=     -1 IRanGd=            0 ICorTp=0 IEmpDi=  4
 NAtoms=    9 NActive=    9 NUniq=    9 SFac= 1.00D+00 NAtFMM=   60 NAOKFM=F Big=F
 Integral buffers will be    131072 words long.
 Raffenetti 2 integral format.
 Two-electron integral symmetry is turned on.
 ------------------------------------------------------------------------------
 Polarizable Continuum Model (PCM)
 =================================
 Model                : PCM.
 Atomic radii         : SMD-Coulomb.
 Polarization charges : Total charges.
 Charge compensation  : None.
 Solution method      : On-the-fly selection.
 Cavity type          : VdW (van der Waals Surface) (Alpha=1.000).
 Cavity algorithm     : GePol (No added spheres)
                        Default sphere list used, NSphG=    9.
[...]
 DIIS inversion failure, remove point   7.
 InvSVX:  RCond= 6.32D-13 Info=           0 Equed=N FErr=  6.18D-09 BErr=  1.01D-16
 DIIS inversion failure, remove point   6.
 InvSVX:  RCond= 4.76D-12 Info=           0 Equed=N FErr=  8.75D-10 BErr=  7.46D-17
 DIIS inversion failure, remove point   5.
 InvSVX:  RCond= 1.01D-11 Info=           0 Equed=N FErr=  4.39D-10 BErr=  6.57D-17
 DIIS inversion failure, remove point   4.
 InvSVX:  RCond= 1.95D-11 Info=           0 Equed=N FErr=  2.45D-10 BErr=  3.68D-17
 DIIS inversion failure, remove point   3.
 InvSVX:  RCond= 1.40D-06 Info=           0 Equed=N FErr=  7.58D-15 BErr=  7.82D-17
 RFO-DIIS uses    2 points instead of   10
 EnCoef did   100 forward-backward iterations
 IWarn =    2
 Energies =   -706.389871234      -706.389879577      -706.389882775      -706.389884310      -706.389881955    
 Energies =   -706.389876455      -706.389877966      -706.389879942      -706.389879968      -706.389879980    
 Point number   1 has energy  -0.7063898712D+03 and has been removed
 EnCoef did   100 forward-backward iterations
 IWarn =    2
 Energies =   -706.389879577      -706.389882775      -706.389884310      -706.389881955      -706.389876455    
 Energies =   -706.389877966      -706.389879942      -706.389879968      -706.389879980    
 Point number   5 has energy  -0.7063898765D+03 and has been removed
 EnCoef did   100 forward-backward iterations
 IWarn =    2
 Energies =   -706.389879577      -706.389882775      -706.389884310      -706.389881955      -706.389877966    
 Energies =   -706.389879942      -706.389879968      -706.389879980    
 Point number   5 has energy  -0.7063898780D+03 and has been removed
 EnCoef did   100 forward-backward iterations
 IWarn =    2
 Energies =   -706.389879577      -706.389882775      -706.389884310      -706.389881955      -706.389879942    
 Energies =   -706.389879968      -706.389879980    
 Point number   1 has energy  -0.7063898796D+03 and has been removed
 EnCoef did   100 forward-backward iterations
 IWarn =    2
 Energies =   -706.389882775      -706.389884310      -706.389881955      -706.389879942      -706.389879968    
 Energies =   -706.389879980    
 Point number   4 has energy  -0.7063898799D+03 and has been removed
 IWarn =    0
 DidBck=T Rises=T En-DIIS coefs:    0.66588    0.33412    0.00000    0.00000    0.00000
                  En-DIIS coefs:    0.00000    0.00000    0.00000    0.00000    0.00000
 Iteration  1 RMS(Cart)=  0.00032165 RMS(Int)=  0.00000004
 Iteration  2 RMS(Cart)=  0.00000004 RMS(Int)=  0.00000000
 Iteration  1 RMS(Cart)=  0.00000000 RMS(Int)=  0.00000000
 ITry= 1 IFail=0 DXMaxC= 8.68D-04 DCOld= 1.00D+10 DXMaxT= 5.00D-02 DXLimC= 3.00D+00 Rises=F
 Variable       Old X    -DE/DX   Delta X   Delta X   Delta X     New X
                                 (Linear)    (Quad)   (Total)
    R1        2.14385  -0.00004   0.00002   0.00000   0.00002   2.14387
    R2        2.72116  -0.00002   0.00002   0.00000   0.00002   2.72118
    R3        5.66918  -0.00436   0.00000   0.00000   0.00000   5.66918
    R4        5.29123  -0.00443   0.00000   0.00000   0.00000   5.29123
    R5        2.06108   0.00000   0.00000   0.00000   0.00000   2.06108
    R6        2.07292   0.00000   0.00000   0.00000   0.00000   2.07292
    R7        2.07404   0.00000   0.00000   0.00000   0.00000   2.07404
    R8        2.22616   0.00001   0.00000   0.00000   0.00000   2.22616
    A1        2.88302   0.00001  -0.00007   0.00000  -0.00007   2.88294
    A2        1.71310   0.00001   0.00007   0.00000   0.00007   1.71317
    A3        1.72527  -0.00001   0.00006   0.00000   0.00006   1.72533
    A4        1.55235  -0.00001   0.00004   0.00000   0.00004   1.55238
    A5        1.56052   0.00001  -0.00001   0.00000  -0.00001   1.56050
    A6        2.03704   0.00001  -0.00032   0.00000  -0.00032   2.03672
    A7        1.91532   0.00000   0.00001   0.00000   0.00001   1.91534
    A8        1.86769   0.00000   0.00001   0.00000   0.00001   1.86770
    A9        1.86438  -0.00002   0.00002   0.00000   0.00002   1.86440
   A10        1.93185   0.00000   0.00002   0.00000   0.00002   1.93187
   A11        1.92987   0.00001   0.00000   0.00000   0.00000   1.92986
   A12        1.95227   0.00001  -0.00006   0.00000  -0.00006   1.95221
   A13        3.12175   0.00000   0.00019   0.00000   0.00019   3.12194
   A14        3.04773  -0.00001   0.00022   0.00000   0.00022   3.04795
    D1       -3.09585   0.00000  -0.00026   0.00000  -0.00026  -3.09611
    D2       -0.99884   0.00000  -0.00022   0.00000  -0.00022  -0.99906
    D3        1.09465   0.00000  -0.00027   0.00000  -0.00027   1.09438
    D4       -1.01871   0.00000   0.00005   0.00000   0.00005  -1.01866
    D5        1.07831   0.00000   0.00008   0.00000   0.00008   1.07840
    D6       -3.11139   0.00000   0.00003   0.00000   0.00003  -3.11135
    D7        1.01866   0.00001  -0.00027   0.00000  -0.00027   1.01839
    D8        3.11568   0.00000  -0.00024   0.00000  -0.00024   3.11544
    D9       -1.07402   0.00001  -0.00029   0.00000  -0.00029  -1.07431
         Item               Value     Threshold  Converged?
 Maximum Force            0.000045     0.000450     YES
 RMS     Force            0.000012     0.000300     YES
 Maximum Displacement     0.000868     0.001800     YES
 RMS     Displacement     0.000322     0.001200     YES
 Predicted change in Energy=-1.715943D-08
 Optimization completed.
    -- Stationary point found.
                           ----------------------------
                           !   Optimized Parameters   !
                           ! (Angstroms and Degrees)  !
 --------------------------                            --------------------------
 ! Name  Definition              Value          Derivative Info.                !
 --------------------------------------------------------------------------------
 ! R1    R(1,2)                  1.1345         -DE/DX =    0.0                 !
 ! R2    R(1,3)                  1.44           -DE/DX =    0.0                 !
 ! R3    R(1,7)                  3.0            -DE/DX =   -0.0044              !
 ! R4    R(1,8)                  2.8            -DE/DX =   -0.0044              !
 ! R5    R(3,4)                  1.0907         -DE/DX =    0.0                 !
 ! R6    R(3,5)                  1.0969         -DE/DX =    0.0                 !
 ! R7    R(3,6)                  1.0975         -DE/DX =    0.0                 !
 ! R8    R(8,9)                  1.178          -DE/DX =    0.0                 !
 ! A1    A(2,1,3)              165.1849         -DE/DX =    0.0                 !
 ! A2    A(2,1,7)               98.1536         -DE/DX =    0.0                 !
 ! A3    A(2,1,8)               98.8507         -DE/DX =    0.0                 !
 ! A4    A(3,1,7)               88.9428         -DE/DX =    0.0                 !
 ! A5    A(3,1,8)               89.4111         -DE/DX =    0.0                 !
 ! A6    A(7,1,8)              116.7138         -DE/DX =    0.0                 !
 ! A7    A(1,3,4)              109.7399         -DE/DX =    0.0                 !
 ! A8    A(1,3,5)              107.0107         -DE/DX =    0.0                 !
 ! A9    A(1,3,6)              106.821          -DE/DX =    0.0                 !
 ! A10   A(4,3,5)              110.687          -DE/DX =    0.0                 !
 ! A11   A(4,3,6)              110.5732         -DE/DX =    0.0                 !
 ! A12   A(5,3,6)              111.8568         -DE/DX =    0.0                 !
 ! A13   L(1,8,9,6,-1)         178.8632         -DE/DX =    0.0                 !
 ! A14   L(1,8,9,6,-2)         174.6223         -DE/DX =    0.0                 !
 ! D1    D(2,1,3,4)           -177.3794         -DE/DX =    0.0                 !
 ! D2    D(2,1,3,5)            -57.2291         -DE/DX =    0.0                 !
 ! D3    D(2,1,3,6)             62.7189         -DE/DX =    0.0                 !
 ! D4    D(7,1,3,4)            -58.3676         -DE/DX =    0.0                 !
 ! D5    D(7,1,3,5)             61.7827         -DE/DX =    0.0                 !
 ! D6    D(7,1,3,6)           -178.2693         -DE/DX =    0.0                 !
 ! D7    D(8,1,3,4)             58.3648         -DE/DX =    0.0                 !
 ! D8    D(8,1,3,5)            178.5151         -DE/DX =    0.0                 !
 ! D9    D(8,1,3,6)            -61.5369         -DE/DX =    0.0                 !
 --------------------------------------------------------------------------------
 Largest change from initial coordinates is atom    4       0.495 Angstoms.
 GradGradGradGradGradGradGradGradGradGradGradGradGradGradGradGradGradGrad

 Leave Link  103 at Wed Jan  8 02:46:49 2020, MaxMem=  4294967296 cpu:              76.5 elap:               5.5
 (Enter /home/cwagen/sw/g16/g16/l202.exe)
                          Input orientation:                          
 ---------------------------------------------------------------------
 Center     Atomic      Atomic             Coordinates (Angstroms)
 Number     Number       Type             X           Y           Z
 ---------------------------------------------------------------------
      1          6           0       -0.199227   -0.484691   -0.411247
      2          8           0       -0.216520   -0.137258   -1.491076
      3          6           0       -0.268733   -1.251143    0.805817
      4          1           0       -0.083715   -0.600920    1.661711
      5          1           0       -1.276387   -1.681616    0.856864
      6          1           0        0.504169   -2.027324    0.736931
      7         17           0       -2.391622    1.274511    0.636900
      8          6           0        2.423488    0.251586    0.236259
      9          7           0        3.551473    0.508997    0.457959
 ---------------------------------------------------------------------
                    Distance matrix (angstroms):
                    1          2          3          4          5
     1  C    0.000000
     2  O    1.134478   0.000000
     3  C    1.439974   2.553269   0.000000
     4  H    2.079425   3.189465   1.090677   0.000000
     5  H    2.049636   3.003528   1.096941   1.799486   0.000000
     6  H    2.047631   3.009278   1.097533   1.798737   1.817766
     7  Cl   3.000000   3.354466   3.303653   3.145460   3.167147
     8  C    2.800000   3.178762   3.135386   3.007449   4.220366
     9  N    3.976265   4.291172   4.220553   3.986920   5.316591
                    6          7          8          9
     6  H    0.000000
     7  Cl   4.392918   0.000000
     8  C    3.021239   4.938843   0.000000
     9  N    3.974520   5.994866   1.178033   0.000000
 Stoichiometry    C3H3ClNO(1-)
 Framework group  C1[X(C3H3ClNO)]
 Deg. of freedom    21
 Full point group                 C1      NOp   1
 RotChk:  IX=2 Diff= 7.70D-15
 Largest Abelian subgroup         C1      NOp   1
 Largest concise Abelian subgroup C1      NOp   1
                         Standard orientation:                         
 ---------------------------------------------------------------------
 Center     Atomic      Atomic             Coordinates (Angstroms)
 Number     Number       Type             X           Y           Z
 ---------------------------------------------------------------------
      1          6           0        0.070954    0.881857    0.201367
      2          8           0        0.052233    1.072211    1.319604
      3          6           0        0.066037    1.010137   -1.232873
      4          1           0        0.097400    0.020978   -1.691303
      5          1           0       -0.858374    1.534234   -1.505021
      6          1           0        0.958569    1.588907   -1.503043
      7         17           0       -2.431801   -0.760889    0.007446
      8          6           0        2.500109   -0.501365    0.040429
      9          7           0        3.557508   -1.018639   -0.005368
 ---------------------------------------------------------------------
 Rotational constants (GHZ):           3.7062577           0.9835438           0.9287949
 Leave Link  202 at Wed Jan  8 02:46:49 2020, MaxMem=  4294967296 cpu:               2.4 elap:               0.2
 (Enter /home/cwagen/sw/g16/g16/l601.exe)
 Copying SCF densities to generalized density rwf, IOpCl= 0 IROHF=0.

 **********************************************************************

            Population analysis using the SCF density.

 **********************************************************************

 Orbital symmetries:
       Occupied  (A) (A) (A) (A) (A) (A) (A) (A) (A) (A) (A) (A)
                 (A) (A) (A) (A) (A) (A) (A) (A) (A) (A) (A) (A)
                 (A) (A) (A)
       Virtual   (A) (A) (A) (A) (A) (A) (A) (A) (A) (A) (A) (A)
                 (A) (A) (A) (A) (A) (A) (A) (A) (A) (A) (A) (A)
                 (A) (A) (A) (A) (A) (A) (A) (A) (A) (A) (A) (A)
                 (A) (A) (A) (A) (A) (A) (A) (A) (A) (A) (A) (A)
                 (A) (A) (A) (A) (A) (A) (A) (A) (A) (A) (A) (A)
                 (A) (A) (A) (A) (A) (A) (A) (A) (A) (A) (A) (A)
                 (A) (A) (A) (A) (A) (A) (A) (A) (A) (A) (A) (A)
                 (A) (A) (A) (A) (A) (A) (A) (A) (A) (A) (A) (A)
                 (A)
 The electronic state is 1-A.
 Alpha  occ. eigenvalues -- -101.42732 -19.29523 -14.27276 -10.40589 -10.24483
 Alpha  occ. eigenvalues --  -10.13990  -9.34066  -7.09913  -7.09816  -7.09807
 Alpha  occ. eigenvalues --   -1.20092  -0.82909  -0.82158  -0.67963  -0.59542
 Alpha  occ. eigenvalues --   -0.52740  -0.52465  -0.52008  -0.44082  -0.43803
 Alpha  occ. eigenvalues --   -0.36358  -0.27799  -0.27782  -0.25082  -0.22833
 Alpha  occ. eigenvalues --   -0.22367  -0.22319
 Alpha virt. eigenvalues --   -0.07396  -0.06002   0.01780   0.04520   0.04690
 Alpha virt. eigenvalues --    0.04950   0.07026   0.07504   0.08472   0.09576
 Alpha virt. eigenvalues --    0.09887   0.10889   0.11116   0.12286   0.13041
 Alpha virt. eigenvalues --    0.13312   0.13689   0.15119   0.16020   0.17080
 Alpha virt. eigenvalues --    0.20358   0.21198   0.23244   0.24591   0.24861
 Alpha virt. eigenvalues --    0.25263   0.27194   0.27929   0.30556   0.31387
 Alpha virt. eigenvalues --    0.33885   0.38095   0.47741   0.51351   0.59248
 Alpha virt. eigenvalues --    0.63809   0.66146   0.67351   0.68907   0.72736
 Alpha virt. eigenvalues --    0.74192   0.75457   0.77327   0.79061   0.80850
 Alpha virt. eigenvalues --    0.82562   0.88020   0.93350   0.95810   0.97401
 Alpha virt. eigenvalues --    0.98403   0.98589   0.99335   0.99608   1.01287
 Alpha virt. eigenvalues --    1.02282   1.04796   1.10422   1.14901   1.18330
 Alpha virt. eigenvalues --    1.21424   1.22716   1.24647   1.37206   1.38451
 Alpha virt. eigenvalues --    1.40117   1.44689   1.45620   1.60078   1.60483
 Alpha virt. eigenvalues --    1.61904   1.62601   1.63288   1.82984   1.84927
 Alpha virt. eigenvalues --    1.88171   1.92459   1.98451   2.02271   2.02571
 Alpha virt. eigenvalues --    2.19953   2.22950   2.26601   2.50592   2.65632
 Alpha virt. eigenvalues --    2.65832   2.71776   2.73483   2.99029   3.07274
 Alpha virt. eigenvalues --    3.26584   4.00614   4.16220   4.28512   4.35716
 Alpha virt. eigenvalues --    4.41825   4.59486
          Condensed to atoms (all electrons):
               1          2          3          4          5          6
     1  C    5.186072   0.399885  -0.221428  -0.064532  -0.070107  -0.043834
     2  O    0.399885   7.811164   0.040163   0.004671   0.000396  -0.001934
     3  C   -0.221428   0.040163   5.902729   0.400554   0.374887   0.367710
     4  H   -0.064532   0.004671   0.400554   0.355320  -0.015458  -0.017022
     5  H   -0.070107   0.000396   0.374887  -0.015458   0.396669  -0.018568
     6  H   -0.043834  -0.001934   0.367710  -0.017022  -0.018568   0.398449
     7  Cl   0.085819  -0.034196  -0.035941  -0.007714  -0.005715   0.004718
     8  C   -0.040155  -0.036243  -0.106469  -0.009950   0.014820  -0.012222
     9  N    0.000295   0.000562  -0.002791  -0.000182  -0.000068  -0.000171
               7          8          9
     1  C    0.085819  -0.040155   0.000295
     2  O   -0.034196  -0.036243   0.000562
     3  C   -0.035941  -0.106469  -0.002791
     4  H   -0.007714  -0.009950  -0.000182
     5  H   -0.005715   0.014820  -0.000068
     6  H    0.004718  -0.012222  -0.000171
     7  Cl  17.904278  -0.028265   0.000254
     8  C   -0.028265   5.887270   0.658821
     9  N    0.000254   0.658821   6.996865
 Mulliken charges:
               1
     1  C    0.767985
     2  O   -0.184468
     3  C   -0.719415
     4  H    0.354313
     5  H    0.323143
     6  H    0.322873
     7  Cl  -0.883239
     8  C   -0.327607
     9  N   -0.653584
 Sum of Mulliken charges =  -1.00000
 Mulliken charges with hydrogens summed into heavy atoms:
               1
     1  C    0.767985
     2  O   -0.184468
     3  C    0.280913
     7  Cl  -0.883239
     8  C   -0.327607
     9  N   -0.653584
 Electronic spatial extent (au):  <R**2>=           1234.7385
 Charge=             -1.0000 electrons
 Dipole moment (field-independent basis, Debye):
    X=             -2.3647    Y=             10.1199    Z=             -3.2360  Tot=             10.8847
 Quadrupole moment (field-independent basis, Debye-Ang):
   XX=           -115.7684   YY=            -48.4718   ZZ=            -43.3756
   XY=              4.1081   XZ=             -0.1556   YZ=             -3.1831
 Traceless Quadrupole moment (field-independent basis, Debye-Ang):
   XX=            -46.5632   YY=             20.7335   ZZ=             25.8297
   XY=              4.1081   XZ=             -0.1556   YZ=             -3.1831
 Octapole moment (field-independent basis, Debye-Ang**2):
  XXX=           -101.3788  YYY=             32.7930  ZZZ=             -5.1433  XYY=             -9.5582
  XXY=             71.7648  XXZ=             -0.6160  XZZ=             -2.8946  YZZ=              9.9073
  YYZ=             -4.1140  XYZ=             -0.3816
 Hexadecapole moment (field-independent basis, Debye-Ang**3):
 XXXX=          -2169.7098 YYYY=           -276.6494 ZZZZ=           -179.3390 XXXY=            124.1234
 XXXZ=              1.5882 YYYX=             18.6562 YYYZ=             -3.3000 ZZZX=             -0.7479
 ZZZY=             -2.8600 XXYY=           -347.0893 XXZZ=           -272.7992 YYZZ=            -72.1674
 XXYZ=             -2.9203 YYXZ=             -0.3362 ZZXY=              2.8255
 N-N= 2.117979064356D+02 E-N=-2.099898500354D+03  KE= 7.023863704203D+02
 No NMR shielding tensors so no spin-rotation constants.
 Leave Link  601 at Wed Jan  8 02:46:51 2020, MaxMem=  4294967296 cpu:              20.1 elap:               1.5
 (Enter /home/cwagen/sw/g16/g16/l9999.exe)
 1\1\GINC-NODE028\FOpt\RB3LYP\6-31+G(d)\C3H3Cl1N1O1(1-)\CWAGEN\08-Jan-2
 020\0\\#p opt=modredundant b3lyp/6-31+g(d) scrf=(smd, solvent=tetrahyd
 rofuran)\\title\\-1,1\C,-0.1992269044,-0.4846909832,-0.4112468096\O,-0
 .2165197765,-0.1372578765,-1.4910762614\C,-0.2687328179,-1.2511430633,
 0.8058169591\H,-0.0837148656,-0.6009201279,1.6617114393\H,-1.276386523
 9,-1.6816158029,0.8568636303\H,0.5041686821,-2.0273239122,0.7369306188
 \Cl,-2.3916221665,1.2745110821,0.6368996854\C,2.4234879414,0.251585579
 4,0.2362589117\N,3.5514731612,0.5089965944,0.4579587464\\Version=AS64L
 -G16RevA.03\State=1-A\HF=-706.38988\RMSD=4.185e-09\RMSF=1.489e-03\Dipo
 le=-1.6300762,-3.9093497,-0.6312687\Quadrupole=-34.1337588,17.6378364,
 16.4959224,5.8059301,0.8650358,-2.9576464\PG=C01 [X(C3H3Cl1N1O1)]\\@


 TERRY FORSTER, PORTLY ATLANTA BRAVES RELIEVER,
 ANNOUNCING THAT HE WAS GOING TO A FAT FARM:
 "A WAIST IS A TERRIBLE THING TO MIND."
 Job cpu time:       0 days  5 hours  7 minutes 46.1 seconds.
 Elapsed time:       0 days  0 hours 23 minutes 54.2 seconds.
 File lengths (MBytes):  RWF=     44 Int=      0 D2E=      0 Chk=      3 Scr=      1
 Normal termination of Gaussian 16 at Wed Jan  8 02:46:51 2020.
