 Entering Gaussian System, Link 0=g16
 Input=scan_170_290.gjf
 Output=scan_170_290.out
 Initial command:
 /home/cwagen/sw/g16/g16/l1.exe "/scratch/users/cwagen/cwagen_scan_170_290/Gau-6371.inp" -scrdir="/scratch/users/cwagen/cwagen_scan_170_290/"
 Entering Link 1 = /home/cwagen/sw/g16/g16/l1.exe PID=      6372.
  
 Copyright (c) 1988,1990,1992,1993,1995,1998,2003,2009,2016,
            Gaussian, Inc.  All Rights Reserved.
  
 This is part of the Gaussian(R) 16 program.  It is based on
 the Gaussian(R) 09 system (copyright 2009, Gaussian, Inc.),
 the Gaussian(R) 03 system (copyright 2003, Gaussian, Inc.),
 the Gaussian(R) 98 system (copyright 1998, Gaussian, Inc.),
 the Gaussian(R) 94 system (copyright 1995, Gaussian, Inc.),
 the Gaussian 92(TM) system (copyright 1992, Gaussian, Inc.),
 the Gaussian 90(TM) system (copyright 1990, Gaussian, Inc.),
 the Gaussian 88(TM) system (copyright 1988, Gaussian, Inc.),
 the Gaussian 86(TM) system (copyright 1986, Carnegie Mellon
 University), and the Gaussian 82(TM) system (copyright 1983,
 Carnegie Mellon University). Gaussian is a federally registered
 trademark of Gaussian, Inc.
  
 This software contains proprietary and confidential information,
 including trade secrets, belonging to Gaussian, Inc.
  
 This software is provided under written license and may be
 used, copied, transmitted, or stored only in accord with that
 written license.
  
 The following legend is applicable only to US Government
 contracts under FAR:
  
                    RESTRICTED RIGHTS LEGEND
  
 Use, reproduction and disclosure by the US Government is
 subject to restrictions as set forth in subparagraphs (a)
 and (c) of the Commercial Computer Software - Restricted
 Rights clause in FAR 52.227-19.
  
 Gaussian, Inc.
 340 Quinnipiac St., Bldg. 40, Wallingford CT 06492
  
  
 ---------------------------------------------------------------
 Warning -- This program may not be used in any manner that
 competes with the business of Gaussian, Inc. or will provide
 assistance to any competitor of Gaussian, Inc.  The licensee
 of this program is prohibited from giving any competitor of
 Gaussian, Inc. access to this program.  By using this program,
 the user acknowledges that Gaussian, Inc. is engaged in the
 business of creating and licensing software in the field of
 computational chemistry and represents and warrants to the
 licensee that it is not a competitor of Gaussian, Inc. and that
 it will not use this program in any manner prohibited above.
 ---------------------------------------------------------------
  

 Cite this work as:
 Gaussian 16, Revision A.03,
 M. J. Frisch, G. W. Trucks, H. B. Schlegel, G. E. Scuseria, 
 M. A. Robb, J. R. Cheeseman, G. Scalmani, V. Barone, 
 G. A. Petersson, H. Nakatsuji, X. Li, M. Caricato, A. V. Marenich, 
 J. Bloino, B. G. Janesko, R. Gomperts, B. Mennucci, H. P. Hratchian, 
 J. V. Ortiz, A. F. Izmaylov, J. L. Sonnenberg, D. Williams-Young, 
 F. Ding, F. Lipparini, F. Egidi, J. Goings, B. Peng, A. Petrone, 
 T. Henderson, D. Ranasinghe, V. G. Zakrzewski, J. Gao, N. Rega, 
 G. Zheng, W. Liang, M. Hada, M. Ehara, K. Toyota, R. Fukuda, 
 J. Hasegawa, M. Ishida, T. Nakajima, Y. Honda, O. Kitao, H. Nakai, 
 T. Vreven, K. Throssell, J. A. Montgomery, Jr., J. E. Peralta, 
 F. Ogliaro, M. J. Bearpark, J. J. Heyd, E. N. Brothers, K. N. Kudin, 
 V. N. Staroverov, T. A. Keith, R. Kobayashi, J. Normand, 
 K. Raghavachari, A. P. Rendell, J. C. Burant, S. S. Iyengar, 
 J. Tomasi, M. Cossi, J. M. Millam, M. Klene, C. Adamo, R. Cammi, 
 J. W. Ochterski, R. L. Martin, K. Morokuma, O. Farkas, 
 J. B. Foresman, and D. J. Fox, Gaussian, Inc., Wallingford CT, 2016.
 
 ******************************************
 Gaussian 16:  AS64L-G16RevA.03 25-Dec-2016
                 7-Jan-2020 
 ******************************************
 %nprocshared=16
 Will use up to   16 processors via shared memory.
 %mem=32GB
 ----------------------------------------------------------------------
 #p opt=modredundant b3lyp/6-31+g(d) scrf=(smd, solvent=tetrahydrofuran
 )
 ----------------------------------------------------------------------
 1/18=120,19=15,26=3,38=1/1,3;
 2/9=110,12=2,17=6,18=5,40=1/2;
 3/5=1,6=6,7=11,11=2,25=1,30=1,70=32201,71=1,72=20,74=-5/1,2,3;
 4//1;
 5/5=2,38=5,53=20/2;
 6/7=2,8=2,9=2,10=2,28=1/1;
 7//1,2,3,16;
 1/18=20,19=15,26=3/3(2);
 2/9=110/2;
 99//99;
 2/9=110/2;
 3/5=1,6=6,7=11,11=2,25=1,30=1,70=32205,71=1,72=20,74=-5/1,2,3;
 4/5=5,16=3,69=1/1;
 5/5=2,38=5,53=20/2;
 7//1,2,3,16;
 1/18=20,19=15,26=3/3(-5);
 2/9=110/2;
 6/7=2,8=2,9=2,10=2,19=2,28=1/1;
 99/9=1/99;
 Leave Link    1 at Tue Jan  7 23:24:01 2020, MaxMem=  4294967296 cpu:               1.4 elap:               0.1
 (Enter /home/cwagen/sw/g16/g16/l101.exe)
 -----
 title
 -----
 Symbolic Z-matrix:
 Charge = -1 Multiplicity = 1
 6                    -0.19426  -0.292    -0.21291 
 8                    -0.25532  -0.66526  -1.45426 
 6                    -0.33095  -1.45422   0.81632 
 1                    -0.18039  -1.13044   1.85373 
 1                    -1.34067  -1.87301   0.71427 
 1                     0.39707  -2.23395   0.57058 
 17                   -1.21212   0.99924   0.21915 
 6                     2.49439   0.6495    0.32998 
 7                     3.62896   0.92979   0.36029 
 
 Add virtual bond connecting atoms C8         and C1         Dist= 5.48D+00.
 The following ModRedundant input section has been read:
 B       1       7 F                                                           
 B       1       8 F                                                           
 
 ITRead=  0  0  0  0  0  0  0  0  0
 MicOpt= -1 -1 -1 -1 -1 -1 -1 -1 -1
 NAtoms=      9 NQM=        9 NQMF=       0 NMMI=      0 NMMIF=      0
                NMic=       0 NMicF=      0.
                    Isotopes and Nuclear Properties:
 (Nuclear quadrupole moments (NQMom) in fm**2, nuclear magnetic moments (NMagM)
  in nuclear magnetons)

  Atom         1           2           3           4           5           6           7           8           9
 IAtWgt=          12          16          12           1           1           1          35          12          14
 AtmWgt=  12.0000000  15.9949146  12.0000000   1.0078250   1.0078250   1.0078250  34.9688527  12.0000000  14.0030740
 NucSpn=           0           0           0           1           1           1           3           0           2
 AtZEff=   0.0000000   0.0000000   0.0000000   0.0000000   0.0000000   0.0000000   0.0000000   0.0000000   0.0000000
 NQMom=    0.0000000   0.0000000   0.0000000   0.0000000   0.0000000   0.0000000  -8.1650000   0.0000000   2.0440000
 NMagM=    0.0000000   0.0000000   0.0000000   2.7928460   2.7928460   2.7928460   0.8218740   0.0000000   0.4037610
 AtZNuc=   6.0000000   8.0000000   6.0000000   1.0000000   1.0000000   1.0000000  17.0000000   6.0000000   7.0000000
 Leave Link  101 at Tue Jan  7 23:24:02 2020, MaxMem=  4294967296 cpu:               6.8 elap:               0.6
 (Enter /home/cwagen/sw/g16/g16/l103.exe)

 GradGradGradGradGradGradGradGradGradGradGradGradGradGradGradGradGradGrad
 Berny optimization.
 Initialization pass.
                           ----------------------------
                           !    Initial Parameters    !
                           ! (Angstroms and Degrees)  !
 --------------------------                            --------------------------
 ! Name  Definition              Value          Derivative Info.                !
 --------------------------------------------------------------------------------
 ! R1    R(1,2)                  1.2977         estimate D2E/DX2                !
 ! R2    R(1,3)                  1.5584         estimate D2E/DX2                !
 ! R3    R(1,7)                  1.7            Frozen                          !
 ! R4    R(1,8)                  2.9            Frozen                          !
 ! R5    R(3,4)                  1.0971         estimate D2E/DX2                !
 ! R6    R(3,5)                  1.0979         estimate D2E/DX2                !
 ! R7    R(3,6)                  1.0947         estimate D2E/DX2                !
 ! R8    R(8,9)                  1.1691         estimate D2E/DX2                !
 ! A1    A(2,1,3)              114.4006         estimate D2E/DX2                !
 ! A2    A(2,1,7)              115.6846         estimate D2E/DX2                !
 ! A3    A(2,1,8)              108.426          estimate D2E/DX2                !
 ! A4    A(3,1,7)              110.248          estimate D2E/DX2                !
 ! A5    A(3,1,8)              101.5248         estimate D2E/DX2                !
 ! A6    A(7,1,8)              105.1256         estimate D2E/DX2                !
 ! A7    A(1,3,4)              113.1005         estimate D2E/DX2                !
 ! A8    A(1,3,5)              107.683          estimate D2E/DX2                !
 ! A9    A(1,3,6)              108.9421         estimate D2E/DX2                !
 ! A10   A(4,3,5)              109.0662         estimate D2E/DX2                !
 ! A11   A(4,3,6)              109.3417         estimate D2E/DX2                !
 ! A12   A(5,3,6)              108.6067         estimate D2E/DX2                !
 ! A13   L(1,8,9,6,-1)         177.0663         estimate D2E/DX2                !
 ! A14   L(1,8,9,6,-2)         163.5063         estimate D2E/DX2                !
 ! D1    D(2,1,3,4)            174.4714         estimate D2E/DX2                !
 ! D2    D(2,1,3,5)            -64.9488         estimate D2E/DX2                !
 ! D3    D(2,1,3,6)             52.6633         estimate D2E/DX2                !
 ! D4    D(7,1,3,4)            -53.1046         estimate D2E/DX2                !
 ! D5    D(7,1,3,5)             67.4752         estimate D2E/DX2                !
 ! D6    D(7,1,3,6)           -174.9127         estimate D2E/DX2                !
 ! D7    D(8,1,3,4)             57.938          estimate D2E/DX2                !
 ! D8    D(8,1,3,5)            178.5177         estimate D2E/DX2                !
 ! D9    D(8,1,3,6)            -63.8702         estimate D2E/DX2                !
 --------------------------------------------------------------------------------
 Trust Radius=3.00D-01 FncErr=1.00D-07 GrdErr=1.00D-06 EigMax=2.50D+02 EigMin=1.00D-04
 Number of steps in this run=     41 maximum allowed number of steps=    100.
 GradGradGradGradGradGradGradGradGradGradGradGradGradGradGradGradGradGrad

 Leave Link  103 at Tue Jan  7 23:24:02 2020, MaxMem=  4294967296 cpu:               0.9 elap:               0.2
 (Enter /home/cwagen/sw/g16/g16/l202.exe)
                          Input orientation:                          
 ---------------------------------------------------------------------
 Center     Atomic      Atomic             Coordinates (Angstroms)
 Number     Number       Type             X           Y           Z
 ---------------------------------------------------------------------
      1          6           0       -0.194263   -0.291999   -0.212908
      2          8           0       -0.255321   -0.665256   -1.454255
      3          6           0       -0.330945   -1.454221    0.816316
      4          1           0       -0.180394   -1.130438    1.853734
      5          1           0       -1.340665   -1.873010    0.714272
      6          1           0        0.397068   -2.233949    0.570583
      7         17           0       -1.212120    0.999239    0.219149
      8          6           0        2.494390    0.649496    0.329984
      9          7           0        3.628961    0.929794    0.360287
 ---------------------------------------------------------------------
                    Distance matrix (angstroms):
                    1          2          3          4          5
     1  C    0.000000
     2  O    1.297687   0.000000
     3  C    1.558443   2.404928   0.000000
     4  H    2.230287   3.341377   1.097150   0.000000
     5  H    2.161827   2.709087   1.097876   1.787740   0.000000
     6  H    2.175937   2.643176   1.094698   1.788205   1.780629
     7  Cl   1.700000   2.546819   2.674424   2.876082   2.917445
     8  C    2.900000   3.531712   3.555933   3.555904   4.606339
     9  N    4.054426   4.574319   4.644604   4.581062   5.716485
                    6          7          8          9
     6  H    0.000000
     7  Cl   3.628566   0.000000
     8  C    3.573640   3.724623   0.000000
     9  N    4.527541   4.843636   1.169075   0.000000
 Stoichiometry    C3H3ClNO(1-)
 Framework group  C1[X(C3H3ClNO)]
 Deg. of freedom    21
 Full point group                 C1      NOp   1
 Largest Abelian subgroup         C1      NOp   1
 Largest concise Abelian subgroup C1      NOp   1
                         Standard orientation:                         
 ---------------------------------------------------------------------
 Center     Atomic      Atomic             Coordinates (Angstroms)
 Number     Number       Type             X           Y           Z
 ---------------------------------------------------------------------
      1          6           0       -0.528568    0.350031    0.211410
      2          8           0       -0.741500    0.801876    1.409111
      3          6           0       -0.777525    1.389626   -0.922612
      4          1           0       -0.499730    1.017241   -1.916542
      5          1           0       -1.846977    1.637793   -0.918616
      6          1           0       -0.207342    2.298026   -0.703374
      7         17           0       -1.286259   -1.124398   -0.165370
      8          6           0        2.310703   -0.161025   -0.084164
      9          7           0        3.474971   -0.246442   -0.021552
 ---------------------------------------------------------------------
 Rotational constants (GHZ):           3.6790390           1.3958928           1.2512271
 Leave Link  202 at Tue Jan  7 23:24:02 2020, MaxMem=  4294967296 cpu:               1.1 elap:               0.1
 (Enter /home/cwagen/sw/g16/g16/l301.exe)
 Standard basis: 6-31+G(d) (6D, 7F)
 Ernie: Thresh=  0.10000D-02 Tol=  0.10000D-05 Strict=F.
 There are   124 symmetry adapted cartesian basis functions of A   symmetry.
 There are   124 symmetry adapted basis functions of A   symmetry.
   124 basis functions,   228 primitive gaussians,   124 cartesian basis functions
    27 alpha electrons       27 beta electrons
       nuclear repulsion energy       236.7124230549 Hartrees.
 IExCor=  402 DFT=T Ex+Corr=B3LYP ExCW=0 ScaHFX=  0.200000
 ScaDFX=  0.800000  0.720000  1.000000  0.810000 ScalE2=  1.000000  1.000000
 IRadAn=      5 IRanWt=     -1 IRanGd=            0 ICorTp=0 IEmpDi=  4
 NAtoms=    9 NActive=    9 NUniq=    9 SFac= 1.00D+00 NAtFMM=   60 NAOKFM=F Big=F
 Integral buffers will be    131072 words long.
 Raffenetti 2 integral format.
 Two-electron integral symmetry is turned on.
 ------------------------------------------------------------------------------
 Polarizable Continuum Model (PCM)
 =================================
 Model                : PCM.
 Atomic radii         : SMD-Coulomb.
 Polarization charges : Total charges.
 Charge compensation  : None.
 Solution method      : On-the-fly selection.
 Cavity type          : VdW (van der Waals Surface) (Alpha=1.000).
 Cavity algorithm     : GePol (No added spheres)
                        Default sphere list used, NSphG=    9.
                        Lebedev-Laikov grids with approx.  5.0 points / Ang**2.
                        Smoothing algorithm: York/Karplus (Gamma=1.0000).
                        Polarization charges: spherical gaussians, with
                                              point-specific exponents (IZeta= 3).
                        Self-potential: point-specific (ISelfS= 7).
                        Self-field    : sphere-specific E.n sum rule (ISelfD= 2).
 1st derivatives      : Analytical E(r).r(x)/FMM algorithm (CHGder, D1EAlg=3).
                        Cavity 1st derivative terms included.
 Solvent              : TetraHydroFuran, Eps=   7.425700 Eps(inf)=   1.974025
 ------------------------------------------------------------------------------
 Spheres list:
 ISph  on   Nord     Re0    Alpha      Xe            Ye            Ze
    1   C      1    1.8500  1.000     -0.528568      0.350031      0.211410
    2   O      2    2.2940  1.000     -0.741500      0.801876      1.409111
    3   C      3    1.8500  1.000     -0.777525      1.389626     -0.922612
    4   H      4    1.2000  1.000     -0.499730      1.017241     -1.916542
    5   H      5    1.2000  1.000     -1.846977      1.637793     -0.918616
    6   H      6    1.2000  1.000     -0.207342      2.298026     -0.703374
    7  Cl      7    2.3800  1.000     -1.286259     -1.124398     -0.165370
    8   C      8    1.8500  1.000      2.310703     -0.161025     -0.084164
    9   N      9    1.8900  1.000      3.474971     -0.246442     -0.021552
 ------------------------------------------------------------------------------
 GePol: Number of generator spheres                  =       9
 GePol: Total number of spheres                      =       9
 GePol: Number of exposed spheres                    =       9 (100.00%)
 GePol: Number of points                             =    1245
 GePol: Average weight of points                     =       0.14
 GePol: Minimum weight of points                     =   0.17D-07
 GePol: Maximum weight of points                     =    0.18138
 GePol: Number of points with low weight             =      31
 GePol: Fraction of low-weight points (<1% of avg)   =       2.49%
 GePol: Cavity surface area                          =    168.642 Ang**2
 GePol: Cavity volume                                =    149.478 Ang**3
 ------------------------------------------------------------------------------
 Atomic radii for non-electrostatic terms: SMD-CDS.
 ------------------------------------------------------------------------------
 PCM non-electrostatic energy =         0.0012595506 Hartrees.
 Nuclear repulsion after PCM non-electrostatic terms =      236.7136826055 Hartrees.
 Leave Link  301 at Tue Jan  7 23:24:02 2020, MaxMem=  4294967296 cpu:               2.2 elap:               0.2
 (Enter /home/cwagen/sw/g16/g16/l302.exe)
 NPDir=0 NMtPBC=     1 NCelOv=     1 NCel=       1 NClECP=     1 NCelD=      1
         NCelK=      1 NCelE2=     1 NClLst=     1 CellRange=     0.0.
 One-electron integrals computed using PRISM.
 One-electron integral symmetry used in STVInt
 NBasis=   124 RedAO= T EigKep=  1.04D-04  NBF=   124
 NBsUse=   124 1.00D-06 EigRej= -1.00D+00 NBFU=   124
 Precomputing XC quadrature grid using
 IXCGrd= 4 IRadAn=           5 IRanWt=          -1 IRanGd=           0 AccXCQ= 0.00D+00.
 Generated NRdTot=       0 NPtTot=           0 NUsed=           0 NTot=          32
 NSgBfM=   123   123   123   123   123 MxSgAt=     9 MxSgA2=     9.
 Leave Link  302 at Tue Jan  7 23:24:04 2020, MaxMem=  4294967296 cpu:              25.1 elap:               2.0
 (Enter /home/cwagen/sw/g16/g16/l303.exe)
 DipDrv:  MaxL=1.
 Leave Link  303 at Tue Jan  7 23:24:05 2020, MaxMem=  4294967296 cpu:               2.7 elap:               0.4
 (Enter /home/cwagen/sw/g16/g16/l401.exe)
 ExpMin= 4.38D-02 ExpMax= 2.52D+04 ExpMxC= 3.78D+03 IAcc=3 IRadAn=         5 AccDes= 0.00D+00
 Harris functional with IExCor=  402 and IRadAn=       5 diagonalized for initial guess.
 HarFok:  IExCor=  402 AccDes= 0.00D+00 IRadAn=         5 IDoV= 1 UseB2=F ITyADJ=14
 ICtDFT=  3500011 ScaDFX=  1.000000  1.000000  1.000000  1.000000
 FoFCou: FMM=F IPFlag=           0 FMFlag=      100000 FMFlg1=           0
         NFxFlg=           0 DoJE=T BraDBF=F KetDBF=T FulRan=T
         wScrn=  0.000000 ICntrl=       500 IOpCl=  0 I1Cent=   200000004 NGrid=           0
         NMat0=    1 NMatS0=      1 NMatT0=    0 NMatD0=    1 NMtDS0=    0 NMtDT0=    0
 Petite list used in FoFCou.
 Harris En= -706.401550273389    
 JPrj=0 DoOrth=F DoCkMO=F.
 Leave Link  401 at Tue Jan  7 23:24:06 2020, MaxMem=  4294967296 cpu:              22.9 elap:               1.6
 (Enter /home/cwagen/sw/g16/g16/l502.exe)
 Keep R1 ints in memory in canonical form, NReq=45236517.
 FoFCou: FMM=F IPFlag=           0 FMFlag=           0 FMFlg1=           0
         NFxFlg=           0 DoJE=F BraDBF=F KetDBF=F FulRan=T
         wScrn=  0.000000 ICntrl=       600 IOpCl=  0 I1Cent=           0 NGrid=           0
         NMat0=    1 NMatS0=   7750 NMatT0=    0 NMatD0=    1 NMtDS0=    0 NMtDT0=    0
 Symmetry not used in FoFCou.
 Two-electron integral symmetry not used.
 Closed shell SCF:
 Using DIIS extrapolation, IDIIS=  1040.
 NGot=  4294967296 LenX=  4264898079 LenY=  4264882262
 Requested convergence on RMS density matrix=1.00D-08 within 128 cycles.
 Requested convergence on MAX density matrix=1.00D-06.
 Requested convergence on             energy=1.00D-06.
 No special actions if energy rises.

 Cycle   1  Pass 1  IDiag  1:
 Inv3:  Mode=1 IEnd=     4650075.
 Iteration    1 A*A^-1 deviation from unit magnitude is 3.55D-15 for   1217.
 Iteration    1 A*A^-1 deviation from orthogonality  is 1.63D-15 for   1225   1138.
 Iteration    1 A^-1*A deviation from unit magnitude is 3.77D-15 for   1243.
 Iteration    1 A^-1*A deviation from orthogonality  is 2.05D-15 for   1241   1113.
 E= -706.120130378494    
 DIIS: error= 3.10D-02 at cycle   1 NSaved=   1.
 NSaved= 1 IEnMin= 1 EnMin= -706.120130378494     IErMin= 1 ErrMin= 3.10D-02
 ErrMax= 3.10D-02  0.00D+00 EMaxC= 1.00D-01 BMatC= 2.61D-01 BMatP= 2.61D-01
 IDIUse=3 WtCom= 6.90D-01 WtEn= 3.10D-01
 Coeff-Com:  0.100D+01
 Coeff-En:   0.100D+01
 Coeff:      0.100D+01
 Gap=     0.295 Goal=   None    Shift=    0.000
 GapD=    0.295 DampG=1.000 DampE=0.500 DampFc=0.5000 IDamp=-1.
 Damping current iteration by 5.00D-01
 RMSDP=2.40D-02 MaxDP=1.40D+00              OVMax= 4.24D-01

 Cycle   2  Pass 1  IDiag  1:
 E= -706.063143530035     Delta-E=        0.056986848460 Rises=F Damp=T
 DIIS: error= 2.73D-02 at cycle   2 NSaved=   2.
 NSaved= 2 IEnMin= 1 EnMin= -706.120130378494     IErMin= 2 ErrMin= 2.73D-02
 ErrMax= 2.73D-02  0.00D+00 EMaxC= 1.00D-01 BMatC= 1.25D-01 BMatP= 2.61D-01
 IDIUse=3 WtCom= 7.27D-01 WtEn= 2.73D-01
 Coeff-Com:  0.390D+00 0.610D+00
 Coeff-En:   0.570D+00 0.430D+00
 Coeff:      0.439D+00 0.561D+00
 Gap=     0.145 Goal=   None    Shift=    0.000
 RMSDP=6.75D-03 MaxDP=1.08D-01 DE= 5.70D-02 OVMax= 3.54D-01

 Cycle   3  Pass 1  IDiag  1:
 E= -706.321131084502     Delta-E=       -0.257987554468 Rises=F Damp=F
 DIIS: error= 1.82D-02 at cycle   3 NSaved=   3.
 NSaved= 3 IEnMin= 3 EnMin= -706.321131084502     IErMin= 3 ErrMin= 1.82D-02
 ErrMax= 1.82D-02  0.00D+00 EMaxC= 1.00D-01 BMatC= 5.39D-02 BMatP= 1.25D-01
 IDIUse=3 WtCom= 8.18D-01 WtEn= 1.82D-01
 Coeff-Com:  0.186D+00 0.379D+00 0.435D+00
 Coeff-En:   0.000D+00 0.000D+00 0.100D+01
 Coeff:      0.152D+00 0.310D+00 0.537D+00
 Gap=     0.180 Goal=   None    Shift=    0.000
 RMSDP=5.24D-03 MaxDP=3.14D-01 DE=-2.58D-01 OVMax= 1.09D-01

 Cycle   4  Pass 1  IDiag  1:
 E= -706.366958818348     Delta-E=       -0.045827733845 Rises=F Damp=F
 DIIS: error= 7.75D-03 at cycle   4 NSaved=   4.
 NSaved= 4 IEnMin= 4 EnMin= -706.366958818348     IErMin= 4 ErrMin= 7.75D-03
 ErrMax= 7.75D-03  0.00D+00 EMaxC= 1.00D-01 BMatC= 9.18D-03 BMatP= 5.39D-02
 IDIUse=3 WtCom= 9.22D-01 WtEn= 7.75D-02
 Coeff-Com:  0.229D-01 0.262D-01 0.290D+00 0.661D+00
 Coeff-En:   0.000D+00 0.000D+00 0.141D+00 0.859D+00
 Coeff:      0.211D-01 0.242D-01 0.279D+00 0.676D+00
 Gap=     0.190 Goal=   None    Shift=    0.000
 RMSDP=1.00D-03 MaxDP=3.68D-02 DE=-4.58D-02 OVMax= 2.40D-02

 Cycle   5  Pass 1  IDiag  1:
 E= -706.374082742941     Delta-E=       -0.007123924594 Rises=F Damp=F
 DIIS: error= 3.70D-03 at cycle   5 NSaved=   5.
 NSaved= 5 IEnMin= 5 EnMin= -706.374082742941     IErMin= 5 ErrMin= 3.70D-03
 ErrMax= 3.70D-03  0.00D+00 EMaxC= 1.00D-01 BMatC= 9.51D-04 BMatP= 9.18D-03
 IDIUse=3 WtCom= 9.63D-01 WtEn= 3.70D-02
 Coeff-Com:  0.438D-02-0.698D-02 0.162D+00 0.447D+00 0.393D+00
 Coeff-En:   0.000D+00 0.000D+00 0.000D+00 0.000D+00 0.100D+01
 Coeff:      0.421D-02-0.672D-02 0.156D+00 0.431D+00 0.415D+00
 Gap=     0.171 Goal=   None    Shift=    0.000
 RMSDP=4.65D-04 MaxDP=2.64D-02 DE=-7.12D-03 OVMax= 1.24D-02

 Cycle   6  Pass 1  IDiag  1:
 E= -706.374825249654     Delta-E=       -0.000742506712 Rises=F Damp=F
 DIIS: error= 9.08D-04 at cycle   6 NSaved=   6.
 NSaved= 6 IEnMin= 6 EnMin= -706.374825249654     IErMin= 6 ErrMin= 9.08D-04
 ErrMax= 9.08D-04  0.00D+00 EMaxC= 1.00D-01 BMatC= 1.12D-04 BMatP= 9.51D-04
 IDIUse=3 WtCom= 9.91D-01 WtEn= 9.08D-03
 Coeff-Com:  0.163D-02-0.839D-02 0.500D-01 0.133D+00 0.256D+00 0.568D+00
 Coeff-En:   0.000D+00 0.000D+00 0.000D+00 0.000D+00 0.113D+00 0.887D+00
 Coeff:      0.161D-02-0.831D-02 0.495D-01 0.132D+00 0.255D+00 0.571D+00
 Gap=     0.172 Goal=   None    Shift=    0.000
 RMSDP=8.77D-05 MaxDP=2.30D-03 DE=-7.43D-04 OVMax= 2.84D-03

 Cycle   7  Pass 1  IDiag  1:
 E= -706.374922095212     Delta-E=       -0.000096845558 Rises=F Damp=F
 DIIS: error= 1.70D-04 at cycle   7 NSaved=   7.
 NSaved= 7 IEnMin= 7 EnMin= -706.374922095212     IErMin= 7 ErrMin= 1.70D-04
 ErrMax= 1.70D-04  0.00D+00 EMaxC= 1.00D-01 BMatC= 4.85D-06 BMatP= 1.12D-04
 IDIUse=3 WtCom= 9.98D-01 WtEn= 1.70D-03
 Coeff-Com:  0.125D-02-0.409D-02 0.105D-01 0.197D-01 0.712D-01 0.219D+00
 Coeff-Com:  0.683D+00
 Coeff-En:   0.000D+00 0.000D+00 0.000D+00 0.000D+00 0.000D+00 0.000D+00
 Coeff-En:   0.100D+01
 Coeff:      0.125D-02-0.408D-02 0.105D-01 0.196D-01 0.711D-01 0.218D+00
 Coeff:      0.683D+00
 Gap=     0.172 Goal=   None    Shift=    0.000
 RMSDP=2.40D-05 MaxDP=8.65D-04 DE=-9.68D-05 OVMax= 4.65D-04

 Cycle   8  Pass 1  IDiag  1:
 E= -706.374925872558     Delta-E=       -0.000003777346 Rises=F Damp=F
 DIIS: error= 4.76D-05 at cycle   8 NSaved=   8.
 NSaved= 8 IEnMin= 8 EnMin= -706.374925872558     IErMin= 8 ErrMin= 4.76D-05
 ErrMax= 4.76D-05  0.00D+00 EMaxC= 1.00D-01 BMatC= 4.61D-07 BMatP= 4.85D-06
 IDIUse=1 WtCom= 1.00D+00 WtEn= 0.00D+00
 Coeff-Com:  0.630D-03-0.128D-02 0.719D-03-0.288D-02 0.584D-02 0.292D-01
 Coeff-Com:  0.218D+00 0.750D+00
 Coeff:      0.630D-03-0.128D-02 0.719D-03-0.288D-02 0.584D-02 0.292D-01
 Coeff:      0.218D+00 0.750D+00
 Gap=     0.172 Goal=   None    Shift=    0.000
 RMSDP=9.90D-06 MaxDP=2.73D-04 DE=-3.78D-06 OVMax= 2.56D-04

 Cycle   9  Pass 1  IDiag  1:
 E= -706.374926252633     Delta-E=       -0.000000380075 Rises=F Damp=F
 DIIS: error= 1.47D-05 at cycle   9 NSaved=   9.
 NSaved= 9 IEnMin= 9 EnMin= -706.374926252633     IErMin= 9 ErrMin= 1.47D-05
 ErrMax= 1.47D-05  0.00D+00 EMaxC= 1.00D-01 BMatC= 5.21D-08 BMatP= 4.61D-07
 IDIUse=1 WtCom= 1.00D+00 WtEn= 0.00D+00
 Coeff-Com:  0.280D-03-0.398D-03 0.177D-04-0.202D-02-0.209D-02-0.451D-02
 Coeff-Com:  0.422D-01 0.404D+00 0.563D+00
 Coeff:      0.280D-03-0.398D-03 0.177D-04-0.202D-02-0.209D-02-0.451D-02
 Coeff:      0.422D-01 0.404D+00 0.563D+00
 Gap=     0.172 Goal=   None    Shift=    0.000
 RMSDP=3.04D-06 MaxDP=8.80D-05 DE=-3.80D-07 OVMax= 7.22D-05

 Cycle  10  Pass 1  IDiag  1:
 E= -706.374926303723     Delta-E=       -0.000000051090 Rises=F Damp=F
 DIIS: error= 3.55D-06 at cycle  10 NSaved=  10.
 NSaved=10 IEnMin=10 EnMin= -706.374926303723     IErMin=10 ErrMin= 3.55D-06
 ErrMax= 3.55D-06  0.00D+00 EMaxC= 1.00D-01 BMatC= 2.67D-09 BMatP= 5.21D-08
 IDIUse=1 WtCom= 1.00D+00 WtEn= 0.00D+00
 Coeff-Com:  0.522D-04-0.333D-04-0.770D-04-0.592D-03-0.158D-02-0.553D-02
 Coeff-Com: -0.971D-02 0.734D-01 0.186D+00 0.759D+00
 Coeff:      0.522D-04-0.333D-04-0.770D-04-0.592D-03-0.158D-02-0.553D-02
 Coeff:     -0.971D-02 0.734D-01 0.186D+00 0.759D+00
 Gap=     0.172 Goal=   None    Shift=    0.000
 RMSDP=8.42D-07 MaxDP=2.07D-05 DE=-5.11D-08 OVMax= 2.25D-05

 Cycle  11  Pass 1  IDiag  1:
 E= -706.374926306168     Delta-E=       -0.000000002444 Rises=F Damp=F
 DIIS: error= 6.24D-07 at cycle  11 NSaved=  11.
 NSaved=11 IEnMin=11 EnMin= -706.374926306168     IErMin=11 ErrMin= 6.24D-07
 ErrMax= 6.24D-07  0.00D+00 EMaxC= 1.00D-01 BMatC= 1.33D-10 BMatP= 2.67D-09
 IDIUse=1 WtCom= 1.00D+00 WtEn= 0.00D+00
 Coeff-Com:  0.472D-05 0.549D-05 0.737D-05-0.208D-04-0.332D-03-0.158D-02
 Coeff-Com: -0.647D-02 0.279D-02 0.365D-01 0.322D+00 0.647D+00
 Coeff:      0.472D-05 0.549D-05 0.737D-05-0.208D-04-0.332D-03-0.158D-02
 Coeff:     -0.647D-02 0.279D-02 0.365D-01 0.322D+00 0.647D+00
 Gap=     0.172 Goal=   None    Shift=    0.000
 RMSDP=1.77D-07 MaxDP=6.77D-06 DE=-2.44D-09 OVMax= 4.60D-06

 Cycle  12  Pass 1  IDiag  1:
 E= -706.374926306314     Delta-E=       -0.000000000146 Rises=F Damp=F
 DIIS: error= 1.69D-07 at cycle  12 NSaved=  12.
 NSaved=12 IEnMin=12 EnMin= -706.374926306314     IErMin=12 ErrMin= 1.69D-07
 ErrMax= 1.69D-07  0.00D+00 EMaxC= 1.00D-01 BMatC= 9.76D-12 BMatP= 1.33D-10
 IDIUse=1 WtCom= 1.00D+00 WtEn= 0.00D+00
 Coeff-Com: -0.231D-05 0.581D-05 0.625D-05 0.224D-04-0.209D-04-0.193D-03
 Coeff-Com: -0.174D-02-0.470D-02 0.340D-03 0.700D-01 0.267D+00 0.669D+00
 Coeff:     -0.231D-05 0.581D-05 0.625D-05 0.224D-04-0.209D-04-0.193D-03
 Coeff:     -0.174D-02-0.470D-02 0.340D-03 0.700D-01 0.267D+00 0.669D+00
 Gap=     0.172 Goal=   None    Shift=    0.000
 RMSDP=9.55D-08 MaxDP=5.83D-06 DE=-1.46D-10 OVMax= 1.65D-06

 Cycle  13  Pass 1  IDiag  1:
 E= -706.374926306325     Delta-E=       -0.000000000011 Rises=F Damp=F
 DIIS: error= 3.34D-08 at cycle  13 NSaved=  13.
 NSaved=13 IEnMin=13 EnMin= -706.374926306325     IErMin=13 ErrMin= 3.34D-08
 ErrMax= 3.34D-08  0.00D+00 EMaxC= 1.00D-01 BMatC= 4.14D-13 BMatP= 9.76D-12
 IDIUse=1 WtCom= 1.00D+00 WtEn= 0.00D+00
 Coeff-Com: -0.129D-05 0.126D-05-0.549D-06 0.301D-05 0.240D-04 0.122D-03
 Coeff-Com:  0.262D-03-0.149D-02-0.304D-02-0.154D-01-0.409D-02 0.120D+00
 Coeff-Com:  0.903D+00
 Coeff:     -0.129D-05 0.126D-05-0.549D-06 0.301D-05 0.240D-04 0.122D-03
 Coeff:      0.262D-03-0.149D-02-0.304D-02-0.154D-01-0.409D-02 0.120D+00
 Coeff:      0.903D+00
 Gap=     0.172 Goal=   None    Shift=    0.000
 RMSDP=1.82D-08 MaxDP=3.89D-07 DE=-1.15D-11 OVMax= 9.19D-07

 Cycle  14  Pass 1  IDiag  1:
 E= -706.374926306324     Delta-E=        0.000000000001 Rises=F Damp=F
 DIIS: error= 1.47D-08 at cycle  14 NSaved=  14.
 NSaved=14 IEnMin=13 EnMin= -706.374926306325     IErMin=14 ErrMin= 1.47D-08
 ErrMax= 1.47D-08  0.00D+00 EMaxC= 1.00D-01 BMatC= 4.24D-14 BMatP= 4.14D-13
 IDIUse=1 WtCom= 1.00D+00 WtEn= 0.00D+00
 Coeff-Com: -0.129D-06 0.627D-07-0.848D-06-0.157D-05 0.194D-05 0.212D-04
 Coeff-Com:  0.986D-04 0.965D-04-0.215D-03-0.433D-02-0.129D-01-0.207D-01
 Coeff-Com:  0.912D-01 0.947D+00
 Coeff:     -0.129D-06 0.627D-07-0.848D-06-0.157D-05 0.194D-05 0.212D-04
 Coeff:      0.986D-04 0.965D-04-0.215D-03-0.433D-02-0.129D-01-0.207D-01
 Coeff:      0.912D-01 0.947D+00
 Gap=     0.172 Goal=   None    Shift=    0.000
 RMSDP=3.83D-09 MaxDP=1.12D-07 DE= 1.02D-12 OVMax= 2.53D-07

 Error on total polarization charges =  0.02605
 SCF Done:  E(RB3LYP) =  -706.374926306     A.U. after   14 cycles
            NFock= 14  Conv=0.38D-08     -V/T= 2.0056
 KE= 7.024629219473D+02 PE=-2.150479615739D+03 EE= 5.049280848798D+02
 SMD-CDS (non-electrostatic) energy       (kcal/mol) =       0.79
 (included in total energy above)
 Leave Link  502 at Tue Jan  7 23:24:39 2020, MaxMem=  4294967296 cpu:             462.4 elap:              32.5
 (Enter /home/cwagen/sw/g16/g16/l601.exe)
 Copying SCF densities to generalized density rwf, IOpCl= 0 IROHF=0.

 **********************************************************************

            Population analysis using the SCF density.

 **********************************************************************

 Orbital symmetries:
       Occupied  (A) (A) (A) (A) (A) (A) (A) (A) (A) (A) (A) (A)
                 (A) (A) (A) (A) (A) (A) (A) (A) (A) (A) (A) (A)
                 (A) (A) (A)
       Virtual   (A) (A) (A) (A) (A) (A) (A) (A) (A) (A) (A) (A)
                 (A) (A) (A) (A) (A) (A) (A) (A) (A) (A) (A) (A)
                 (A) (A) (A) (A) (A) (A) (A) (A) (A) (A) (A) (A)
                 (A) (A) (A) (A) (A) (A) (A) (A) (A) (A) (A) (A)
                 (A) (A) (A) (A) (A) (A) (A) (A) (A) (A) (A) (A)
                 (A) (A) (A) (A) (A) (A) (A) (A) (A) (A) (A) (A)
                 (A) (A) (A) (A) (A) (A) (A) (A) (A) (A) (A) (A)
                 (A) (A) (A) (A) (A) (A) (A) (A) (A) (A) (A) (A)
                 (A)
 The electronic state is 1-A.
 Alpha  occ. eigenvalues -- -101.54843 -19.14780 -14.26395 -10.32804 -10.18770
 Alpha  occ. eigenvalues --  -10.13140  -9.46644  -7.22973  -7.22129  -7.22000
 Alpha  occ. eigenvalues --   -1.01401  -0.85884  -0.82563  -0.71797  -0.54939
 Alpha  occ. eigenvalues --   -0.45412  -0.43636  -0.43203  -0.38513  -0.36447
 Alpha  occ. eigenvalues --   -0.35213  -0.30990  -0.30209  -0.27326  -0.27287
 Alpha  occ. eigenvalues --   -0.26042  -0.23892
 Alpha virt. eigenvalues --   -0.06708   0.03050   0.04446   0.05322   0.05483
 Alpha virt. eigenvalues --    0.05975   0.07678   0.08509   0.08751   0.09599
 Alpha virt. eigenvalues --    0.11100   0.11252   0.11834   0.13368   0.13871
 Alpha virt. eigenvalues --    0.14511   0.15518   0.16164   0.18669   0.21447
 Alpha virt. eigenvalues --    0.21789   0.23947   0.24438   0.25214   0.25902
 Alpha virt. eigenvalues --    0.26742   0.27953   0.28506   0.30921   0.33630
 Alpha virt. eigenvalues --    0.34223   0.38267   0.39914   0.55584   0.57131
 Alpha virt. eigenvalues --    0.62419   0.62867   0.64282   0.66751   0.68701
 Alpha virt. eigenvalues --    0.71232   0.71889   0.74189   0.76702   0.78256
 Alpha virt. eigenvalues --    0.80679   0.85476   0.87858   0.89226   0.93547
 Alpha virt. eigenvalues --    0.97208   1.01151   1.01539   1.02480   1.04966
 Alpha virt. eigenvalues --    1.09813   1.10263   1.15112   1.19372   1.21532
 Alpha virt. eigenvalues --    1.28637   1.30726   1.33337   1.35108   1.50146
 Alpha virt. eigenvalues --    1.53284   1.57966   1.60605   1.60700   1.63114
 Alpha virt. eigenvalues --    1.64380   1.67506   1.77156   1.83470   1.90001
 Alpha virt. eigenvalues --    1.91754   1.98347   2.03505   2.03560   2.18490
 Alpha virt. eigenvalues --    2.20389   2.25539   2.31902   2.48724   2.51970
 Alpha virt. eigenvalues --    2.56455   2.67391   2.67487   2.72423   2.95952
 Alpha virt. eigenvalues --    3.09648   4.00804   4.14802   4.23642   4.30177
 Alpha virt. eigenvalues --    4.33777   4.47877
          Condensed to atoms (all electrons):
               1          2          3          4          5          6
     1  C    6.581734   0.370862  -0.555459  -0.088669   0.012403  -0.082326
     2  O    0.370862   8.233158  -0.087290   0.009262  -0.013910   0.000643
     3  C   -0.555459  -0.087290   6.141743   0.389560   0.354781   0.403140
     4  H   -0.088669   0.009262   0.389560   0.478128  -0.028890  -0.021914
     5  H    0.012403  -0.013910   0.354781  -0.028890   0.457118  -0.022792
     6  H   -0.082326   0.000643   0.403140  -0.021914  -0.022792   0.457643
     7  Cl  -0.451732  -0.120602   0.134064   0.019056  -0.018845   0.015118
     8  C    0.389934  -0.044966  -0.239160   0.002944   0.000689   0.001050
     9  N   -0.019063  -0.000149   0.005398  -0.000132   0.000001  -0.000047
               7          8          9
     1  C   -0.451732   0.389934  -0.019063
     2  O   -0.120602  -0.044966  -0.000149
     3  C    0.134064  -0.239160   0.005398
     4  H    0.019056   0.002944  -0.000132
     5  H   -0.018845   0.000689   0.000001
     6  H    0.015118   0.001050  -0.000047
     7  Cl  17.357380  -0.089213  -0.000185
     8  C   -0.089213   5.546248   0.639978
     9  N   -0.000185   0.639978   7.019771
 Mulliken charges:
               1
     1  C   -0.157683
     2  O   -0.347008
     3  C   -0.546777
     4  H    0.240655
     5  H    0.259445
     6  H    0.249486
     7  Cl   0.154959
     8  C   -0.207505
     9  N   -0.645572
 Sum of Mulliken charges =  -1.00000
 Mulliken charges with hydrogens summed into heavy atoms:
               1
     1  C   -0.157683
     2  O   -0.347008
     3  C    0.202808
     7  Cl   0.154959
     8  C   -0.207505
     9  N   -0.645572
 Electronic spatial extent (au):  <R**2>=            969.2784
 Charge=             -1.0000 electrons
 Dipole moment (field-independent basis, Debye):
    X=            -11.9909    Y=              1.4752    Z=             -3.1361  Tot=             12.4817
 Quadrupole moment (field-independent basis, Debye-Ang):
   XX=            -87.4465   YY=            -45.4432   ZZ=            -49.6800
   XY=              2.3281   XZ=              3.3361   YZ=             -3.5503
 Traceless Quadrupole moment (field-independent basis, Debye-Ang):
   XX=            -26.5899   YY=             15.4134   ZZ=             11.1765
   XY=              2.3281   XZ=              3.3361   YZ=             -3.5503
 Octapole moment (field-independent basis, Debye-Ang**2):
  XXX=           -182.9823  YYY=              1.4874  ZZZ=             -6.3434  XYY=            -13.4467
  XXY=             11.8663  XXZ=             -0.4393  XZZ=             -8.2512  YZZ=             -2.6907
  YYZ=             -3.3631  XYZ=              2.2148
 Hexadecapole moment (field-independent basis, Debye-Ang**3):
 XXXX=          -1506.7928 YYYY=           -272.2036 ZZZZ=           -187.5547 XXXY=             43.7707
 XXXZ=              7.0683 YYYX=             13.3898 YYYZ=             -1.2093 ZZZX=              6.2286
 ZZZY=             -3.6800 XXYY=           -209.0856 XXZZ=           -197.8422 YYZZ=            -80.9351
 XXYZ=             -1.1875 YYXZ=              4.3020 ZZXY=              4.5997
 N-N= 2.367136826055D+02 E-N=-2.150479615669D+03  KE= 7.024629219473D+02
 No NMR shielding tensors so no spin-rotation constants.
 Leave Link  601 at Tue Jan  7 23:24:40 2020, MaxMem=  4294967296 cpu:              11.9 elap:               1.0
 (Enter /home/cwagen/sw/g16/g16/l701.exe)
 ... and contract with generalized density number  0.
 Compute integral first derivatives.
 D1PCM: PCM CHGder 1st derivatives, ID1Alg=3 FixD1E=F DoIter=F DoCFld=F I1PDM=0.
 GePol: Maximum number of non-zero 1st derivatives   =     345
 Leave Link  701 at Tue Jan  7 23:24:45 2020, MaxMem=  4294967296 cpu:              53.0 elap:               4.5
 (Enter /home/cwagen/sw/g16/g16/l702.exe)
 L702 exits ... SP integral derivatives will be done elsewhere.
 Leave Link  702 at Tue Jan  7 23:24:45 2020, MaxMem=  4294967296 cpu:               1.3 elap:               0.1
 (Enter /home/cwagen/sw/g16/g16/l703.exe)
 Integral derivatives from FoFJK, PRISM(SPDF).
 Compute integral first derivatives, UseDBF=F ICtDFT=           0.
 Calling FoFJK, ICntrl=      2127 FMM=F ISym2X=0 I1Cent= 0 IOpClX= 0 NMat=1 NMatS=1 NMatT=0.
 FoFJK:  IHMeth= 1 ICntrl=    2127 DoSepK=F KAlg= 0 I1Cent=           0 FoldK=F
 IRaf=         0 NMat=       1 IRICut=       1 DoRegI=T DoRafI=F ISym2E= 0 IDoP0=0 IntGTp=1.
 FoFCou: FMM=F IPFlag=           0 FMFlag=      100000 FMFlg1=         800
         NFxFlg=           0 DoJE=F BraDBF=F KetDBF=F FulRan=T
         wScrn=  0.000000 ICntrl=      2127 IOpCl=  0 I1Cent=           0 NGrid=           0
         NMat0=    1 NMatS0=      1 NMatT0=    0 NMatD0=    1 NMtDS0=    0 NMtDT0=    0
 Symmetry not used in FoFCou.
 Leave Link  703 at Tue Jan  7 23:24:48 2020, MaxMem=  4294967296 cpu:              34.3 elap:               2.9
 (Enter /home/cwagen/sw/g16/g16/l716.exe)
 Dipole        =-4.71756467D+00 5.80388875D-01-1.23385127D+00
 ***** Axes restored to original set *****
 -------------------------------------------------------------------
 Center     Atomic                   Forces (Hartrees/Bohr)
 Number     Number              X              Y              Z
 -------------------------------------------------------------------
      1        6          -0.048841540   -0.102957517   -0.093646769
      2        8           0.031328298    0.039523978    0.081250003
      3        6           0.028995288    0.012173167    0.003687282
      4        1           0.000243471   -0.000019374   -0.002664685
      5        1           0.001074621    0.004826608   -0.002920174
      6        1          -0.000303454    0.000584755    0.000556530
      7       17          -0.008605171    0.047413750    0.012965000
      8        6          -0.025381869   -0.007013941    0.000303982
      9        7           0.021490357    0.005468573    0.000468832
 -------------------------------------------------------------------
 Cartesian Forces:  Max     0.102957517 RMS     0.036321464
 Leave Link  716 at Tue Jan  7 23:24:48 2020, MaxMem=  4294967296 cpu:               0.9 elap:               0.1
 (Enter /home/cwagen/sw/g16/g16/l103.exe)

 GradGradGradGradGradGradGradGradGradGradGradGradGradGradGradGradGradGrad
 Berny optimization.
 FormGI is forming the generalized inverse of G from B-inverse, IUseBI=4.
 Internal  Forces:  Max     0.090559121 RMS     0.022251362
 Search for a local minimum.
 Step number   1 out of a maximum of   41
 All quantities printed in internal units (Hartrees-Bohrs-Radians)
 RMS Force = .21461D-01 SwitMx=.10000D-02 MixMth= 1
 Mixed Optimization -- RFO/linear search
 Second derivative matrix not updated -- first step.
 ITU=  0
     Eigenvalues ---    0.00230   0.04746   0.04746   0.05330   0.05908
     Eigenvalues ---    0.07453   0.10176   0.16000   0.16000   0.16000
     Eigenvalues ---    0.25000   0.25000   0.25000   0.26946   0.33918
     Eigenvalues ---    0.33999   0.34275   0.67840   1.220341000.00000
     Eigenvalues --- 1000.000001000.000001000.000001000.000001000.00000
     Eigenvalues --- 1000.000001000.000001000.000001000.000001000.00000
     Eigenvalues --- 1000.00000
 RFO step:  Lambda=-4.11462987D-02 EMin= 2.30000000D-03
 Linear search not attempted -- first point.
 Maximum step size (   0.300) exceeded in Quadratic search.
    -- Step size scaled by   0.955
 Iteration  1 RMS(Cart)=  0.09624729 RMS(Int)=  0.01057707
 Iteration  2 RMS(Cart)=  0.00899011 RMS(Int)=  0.00759567
 Iteration  3 RMS(Cart)=  0.00004441 RMS(Int)=  0.00759555
 Iteration  4 RMS(Cart)=  0.00000110 RMS(Int)=  0.00759555
 Iteration  5 RMS(Cart)=  0.00000002 RMS(Int)=  0.00759555
 Iteration  1 RMS(Cart)=  0.00000000 RMS(Int)=  0.00000000
 ITry= 1 IFail=0 DXMaxC= 1.99D-01 DCOld= 1.00D+10 DXMaxT= 3.00D-01 DXLimC= 3.00D+00 Rises=F
 Variable       Old X    -DE/DX   Delta X   Delta X   Delta X     New X
                                 (Linear)    (Quad)   (Total)
    R1        2.45227  -0.09056   0.00000  -0.12020  -0.12020   2.33207
    R2        2.94503  -0.01657   0.00000  -0.05096  -0.05096   2.89407
    R3        3.21253   0.04445   0.00000   0.00000   0.00000   3.21253
    R4        5.48021  -0.00400   0.00000   0.00000   0.00000   5.48021
    R5        2.07331  -0.00246   0.00000  -0.00616  -0.00616   2.06715
    R6        2.07468  -0.00257   0.00000  -0.00646  -0.00646   2.06823
    R7        2.06868  -0.00074   0.00000  -0.00183  -0.00183   2.06685
    R8        2.20923   0.02218   0.00000   0.01679   0.01679   2.22602
    A1        1.99667   0.03014   0.00000   0.12801   0.10844   2.10511
    A2        2.01908  -0.01104   0.00000   0.04322   0.01822   2.03730
    A3        1.89239  -0.01488   0.00000  -0.10556  -0.09772   1.79468
    A4        1.92419   0.02412   0.00000   0.11222   0.09155   2.01574
    A5        1.77194  -0.02002   0.00000  -0.12081  -0.11361   1.65834
    A6        1.83479  -0.01580   0.00000  -0.11374  -0.10725   1.72754
    A7        1.97398  -0.00024   0.00000  -0.00125  -0.00136   1.97261
    A8        1.87942  -0.00742   0.00000  -0.03720  -0.03728   1.84215
    A9        1.90140   0.00173   0.00000   0.01029   0.01030   1.91170
   A10        1.90356   0.00324   0.00000   0.01153   0.01132   1.91488
   A11        1.90837   0.00000   0.00000   0.00344   0.00341   1.91179
   A12        1.89554   0.00276   0.00000   0.01343   0.01350   1.90904
   A13        3.09039   0.00039   0.00000   0.00423   0.00423   3.09462
   A14        2.85372  -0.00023   0.00000  -0.00252  -0.00252   2.85120
    D1        3.04510  -0.01641   0.00000  -0.13868  -0.14460   2.90050
    D2       -1.13357  -0.01758   0.00000  -0.15046  -0.15625  -1.28983
    D3        0.91915  -0.01748   0.00000  -0.14959  -0.15549   0.76366
    D4       -0.92685   0.01833   0.00000   0.14690   0.15246  -0.77439
    D5        1.17766   0.01716   0.00000   0.13513   0.14081   1.31847
    D6       -3.05280   0.01726   0.00000   0.13600   0.14158  -2.91123
    D7        1.01121  -0.00024   0.00000   0.00215   0.00236   1.01357
    D8        3.11572  -0.00141   0.00000  -0.00963  -0.00929   3.10643
    D9       -1.11475  -0.00131   0.00000  -0.00876  -0.00852  -1.12327
         Item               Value     Threshold  Converged?
 Maximum Force            0.090559     0.000450     NO 
 RMS     Force            0.021461     0.000300     NO 
 Maximum Displacement     0.198579     0.001800     NO 
 RMS     Displacement     0.095686     0.001200     NO 
 Predicted change in Energy=-2.617942D-02
 Lowest energy point so far.  Saving SCF results.
 GradGradGradGradGradGradGradGradGradGradGradGradGradGradGradGradGradGrad

 Leave Link  103 at Tue Jan  7 23:24:52 2020, MaxMem=  4294967296 cpu:              53.9 elap:               4.3
 (Enter /home/cwagen/sw/g16/g16/l202.exe)
                          Input orientation:                          
 ---------------------------------------------------------------------
 Center     Atomic      Atomic             Coordinates (Angstroms)
 Number     Number       Type             X           Y           Z
 ---------------------------------------------------------------------
      1          6           0       -0.296602   -0.337485   -0.240515
      2          8           0       -0.233514   -0.610228   -1.442423
      3          6           0       -0.293787   -1.449298    0.812708
      4          1           0       -0.112196   -1.078522    1.825698
      5          1           0       -1.286772   -1.906436    0.759348
      6          1           0        0.463478   -2.195208    0.555002
      7         17           0       -1.156532    1.067197    0.180661
      8          6           0        2.389307    0.580924    0.353132
      9          7           0        3.533331    0.858713    0.393551
 ---------------------------------------------------------------------
                    Distance matrix (angstroms):
                    1          2          3          4          5
     1  C    0.000000
     2  O    1.234079   0.000000
     3  C    1.531474   2.406924   0.000000
     4  H    2.202811   3.303730   1.093891   0.000000
     5  H    2.107551   2.763567   1.094460   1.789461   0.000000
     6  H    2.159098   2.643419   1.093730   1.786913   1.785643
     7  Cl   1.700000   2.510003   2.734329   2.898429   3.032216
     8  C    2.900000   3.394414   3.395880   3.343610   4.457076
     9  N    4.062181   4.440462   4.488812   4.369644   5.568954
                    6          7          8          9
     6  H    0.000000
     7  Cl   3.661673   0.000000
     8  C    3.384742   3.583180   0.000000
     9  N    4.333185   4.699319   1.177960   0.000000
 Stoichiometry    C3H3ClNO(1-)
 Framework group  C1[X(C3H3ClNO)]
 Deg. of freedom    21
 Full point group                 C1      NOp   1
 RotChk:  IX=0 Diff= 8.42D-02
 Largest Abelian subgroup         C1      NOp   1
 Largest concise Abelian subgroup C1      NOp   1
                         Standard orientation:                         
 ---------------------------------------------------------------------
 Center     Atomic      Atomic             Coordinates (Angstroms)
 Number     Number       Type             X           Y           Z
 ---------------------------------------------------------------------
      1          6           0       -0.626328    0.397479    0.224996
      2          8           0       -0.715069    0.715995    1.413955
      3          6           0       -0.671664    1.463624   -0.873500
      4          1           0       -0.346472    1.087901   -1.848015
      5          1           0       -1.717331    1.781677   -0.930633
      6          1           0       -0.048843    2.314532   -0.583164
      7         17           0       -1.246859   -1.125110   -0.207047
      8          6           0        2.202419   -0.162801   -0.082051
      9          7           0        3.371891   -0.282143   -0.006671
 ---------------------------------------------------------------------
 Rotational constants (GHZ):           3.6445171           1.4842332           1.3134250
 Leave Link  202 at Tue Jan  7 23:24:52 2020, MaxMem=  4294967296 cpu:               1.0 elap:               0.1
 (Enter /home/cwagen/sw/g16/g16/l301.exe)
 Standard basis: 6-31+G(d) (6D, 7F)
 Ernie: Thresh=  0.10000D-02 Tol=  0.10000D-05 Strict=F.
 There are   124 symmetry adapted cartesian basis functions of A   symmetry.
 There are   124 symmetry adapted basis functions of A   symmetry.
   124 basis functions,   228 primitive gaussians,   124 cartesian basis functions
    27 alpha electrons       27 beta electrons
       nuclear repulsion energy       239.7511918169 Hartrees.
 IExCor=  402 DFT=T Ex+Corr=B3LYP ExCW=0 ScaHFX=  0.200000
 ScaDFX=  0.800000  0.720000  1.000000  0.810000 ScalE2=  1.000000  1.000000
 IRadAn=      5 IRanWt=     -1 IRanGd=            0 ICorTp=0 IEmpDi=  4
 NAtoms=    9 NActive=    9 NUniq=    9 SFac= 1.00D+00 NAtFMM=   60 NAOKFM=F Big=F
 Integral buffers will be    131072 words long.
 Raffenetti 2 integral format.
 Two-electron integral symmetry is turned on.
 ------------------------------------------------------------------------------
 Polarizable Continuum Model (PCM)
 =================================
 Model                : PCM.
 Atomic radii         : SMD-Coulomb.
 Polarization charges : Total charges.
 Charge compensation  : None.
 Solution method      : On-the-fly selection.
 Cavity type          : VdW (van der Waals Surface) (Alpha=1.000).
 Cavity algorithm     : GePol (No added spheres)
                        Default sphere list used, NSphG=    9.
                        Lebedev-Laikov grids with approx.  5.0 points / Ang**2.
                        Smoothing algorithm: York/Karplus (Gamma=1.0000).
                        Polarization charges: spherical gaussians, with
                                              point-specific exponents (IZeta= 3).
                        Self-potential: point-specific (ISelfS= 7).
                        Self-field    : sphere-specific E.n sum rule (ISelfD= 2).
 1st derivatives      : Analytical E(r).r(x)/FMM algorithm (CHGder, D1EAlg=3).
                        Cavity 1st derivative terms included.
 Solvent              : TetraHydroFuran, Eps=   7.425700 Eps(inf)=   1.974025
 ------------------------------------------------------------------------------
 Spheres list:
 ISph  on   Nord     Re0    Alpha      Xe            Ye            Ze
    1   C      1    1.8500  1.000     -0.626328      0.397479      0.224996
    2   O      2    2.2940  1.000     -0.715069      0.715995      1.413955
    3   C      3    1.8500  1.000     -0.671664      1.463624     -0.873500
    4   H      4    1.2000  1.000     -0.346472      1.087901     -1.848015
    5   H      5    1.2000  1.000     -1.717331      1.781677     -0.930633
    6   H      6    1.2000  1.000     -0.048843      2.314532     -0.583164
    7  Cl      7    2.3800  1.000     -1.246859     -1.125110     -0.207047
    8   C      8    1.8500  1.000      2.202419     -0.162801     -0.082051
    9   N      9    1.8900  1.000      3.371891     -0.282143     -0.006671
 ------------------------------------------------------------------------------
 GePol: Number of generator spheres                  =       9
 GePol: Total number of spheres                      =       9
 GePol: Number of exposed spheres                    =       9 (100.00%)
 GePol: Number of points                             =    1227
 GePol: Average weight of points                     =       0.14
 GePol: Minimum weight of points                     =   0.51D-07
 GePol: Maximum weight of points                     =    0.18138
 GePol: Number of points with low weight             =      31
 GePol: Fraction of low-weight points (<1% of avg)   =       2.53%
 GePol: Cavity surface area                          =    166.202 Ang**2
 GePol: Cavity volume                                =    148.349 Ang**3
 ------------------------------------------------------------------------------
 Atomic radii for non-electrostatic terms: SMD-CDS.
 ------------------------------------------------------------------------------
 PCM non-electrostatic energy =         0.0010816153 Hartrees.
 Nuclear repulsion after PCM non-electrostatic terms =      239.7522734322 Hartrees.
 Leave Link  301 at Tue Jan  7 23:24:52 2020, MaxMem=  4294967296 cpu:               1.8 elap:               0.2
 (Enter /home/cwagen/sw/g16/g16/l302.exe)
 NPDir=0 NMtPBC=     1 NCelOv=     1 NCel=       1 NClECP=     1 NCelD=      1
         NCelK=      1 NCelE2=     1 NClLst=     1 CellRange=     0.0.
 One-electron integrals computed using PRISM.
 One-electron integral symmetry used in STVInt
 NBasis=   124 RedAO= T EigKep=  8.23D-05  NBF=   124
 NBsUse=   124 1.00D-06 EigRej= -1.00D+00 NBFU=   124
 Precomputing XC quadrature grid using
 IXCGrd= 4 IRadAn=           5 IRanWt=          -1 IRanGd=           0 AccXCQ= 0.00D+00.
 Generated NRdTot=       0 NPtTot=           0 NUsed=           0 NTot=          32
 NSgBfM=   124   124   124   124   124 MxSgAt=     9 MxSgA2=     9.
 Leave Link  302 at Tue Jan  7 23:24:54 2020, MaxMem=  4294967296 cpu:              23.3 elap:               2.0
 (Enter /home/cwagen/sw/g16/g16/l303.exe)
 DipDrv:  MaxL=1.
 Leave Link  303 at Tue Jan  7 23:24:55 2020, MaxMem=  4294967296 cpu:               2.8 elap:               0.3
 (Enter /home/cwagen/sw/g16/g16/l401.exe)
 Initial guess from the checkpoint file:  "/scratch/users/cwagen/cwagen_scan_170_290/Gau-6372.chk"
 B after Tr=     0.000000    0.000000    0.000000
         Rot=    0.999752   -0.020832    0.005423    0.005643 Ang=  -2.55 deg.
 Guess basis will be translated and rotated to current coordinates.
 JPrj=2 DoOrth=T DoCkMO=T.
 Generating alternative initial guess.
 ExpMin= 4.38D-02 ExpMax= 2.52D+04 ExpMxC= 3.78D+03 IAcc=2 IRadAn=         4 AccDes= 0.00D+00
 Harris functional with IExCor=  402 and IRadAn=       4 diagonalized for initial guess.
 HarFok:  IExCor=  402 AccDes= 0.00D+00 IRadAn=         4 IDoV= 1 UseB2=F ITyADJ=14
 ICtDFT=  3500011 ScaDFX=  1.000000  1.000000  1.000000  1.000000
 FoFCou: FMM=F IPFlag=           0 FMFlag=      100000 FMFlg1=           0
         NFxFlg=           0 DoJE=T BraDBF=F KetDBF=T FulRan=T
         wScrn=  0.000000 ICntrl=       500 IOpCl=  0 I1Cent=   200000004 NGrid=           0
         NMat0=    1 NMatS0=      1 NMatT0=    0 NMatD0=    1 NMtDS0=    0 NMtDT0=    0
 Petite list used in FoFCou.
 Harris En= -706.425120811654    
 Leave Link  401 at Tue Jan  7 23:24:58 2020, MaxMem=  4294967296 cpu:              37.7 elap:               2.9
 (Enter /home/cwagen/sw/g16/g16/l502.exe)
 Keep R1 ints in memory in canonical form, NReq=45236517.
 FoFCou: FMM=F IPFlag=           0 FMFlag=           0 FMFlg1=           0
         NFxFlg=           0 DoJE=F BraDBF=F KetDBF=F FulRan=T
         wScrn=  0.000000 ICntrl=       600 IOpCl=  0 I1Cent=           0 NGrid=           0
         NMat0=    1 NMatS0=   7750 NMatT0=    0 NMatD0=    1 NMtDS0=    0 NMtDT0=    0
 Symmetry not used in FoFCou.
 Two-electron integral symmetry not used.
 Closed shell SCF:
 Using DIIS extrapolation, IDIIS=  1040.
 NGot=  4294967296 LenX=  4264898079 LenY=  4264882262
 Requested convergence on RMS density matrix=1.00D-08 within 128 cycles.
 Requested convergence on MAX density matrix=1.00D-06.
 Requested convergence on             energy=1.00D-06.
 No special actions if energy rises.

 Cycle   1  Pass 1  IDiag  1:
 Inv3:  Mode=1 IEnd=     4516587.
 Iteration    1 A*A^-1 deviation from unit magnitude is 3.33D-15 for   1224.
 Iteration    1 A*A^-1 deviation from orthogonality  is 1.58D-15 for   1209   1019.
 Iteration    1 A^-1*A deviation from unit magnitude is 2.89D-15 for   1224.
 Iteration    1 A^-1*A deviation from orthogonality  is 1.54D-15 for   1226   1100.
 E= -706.380952636506    
 DIIS: error= 7.34D-03 at cycle   1 NSaved=   1.
 NSaved= 1 IEnMin= 1 EnMin= -706.380952636506     IErMin= 1 ErrMin= 7.34D-03
 ErrMax= 7.34D-03  0.00D+00 EMaxC= 1.00D-01 BMatC= 1.20D-02 BMatP= 1.20D-02
 IDIUse=3 WtCom= 9.27D-01 WtEn= 7.34D-02
 Coeff-Com:  0.100D+01
 Coeff-En:   0.100D+01
 Coeff:      0.100D+01
 Gap=     0.577 Goal=   None    Shift=    0.000
 GapD=    0.577 DampG=2.000 DampE=1.000 DampFc=2.0000 IDamp=-1.
 RMSDP=6.27D-03 MaxDP=4.29D-01              OVMax= 5.26D-02

 Cycle   2  Pass 1  IDiag  1:
 E= -706.401564717344     Delta-E=       -0.020612080838 Rises=F Damp=F
 DIIS: error= 1.63D-03 at cycle   2 NSaved=   2.
 NSaved= 2 IEnMin= 2 EnMin= -706.401564717344     IErMin= 2 ErrMin= 1.63D-03
 ErrMax= 1.63D-03  0.00D+00 EMaxC= 1.00D-01 BMatC= 9.03D-04 BMatP= 1.20D-02
 IDIUse=3 WtCom= 9.84D-01 WtEn= 1.63D-02
 Coeff-Com:  0.733D-01 0.927D+00
 Coeff-En:   0.000D+00 0.100D+01
 Coeff:      0.721D-01 0.928D+00
 Gap=     0.211 Goal=   None    Shift=    0.000
 RMSDP=1.27D-03 MaxDP=7.24D-02 DE=-2.06D-02 OVMax= 2.28D-02

 Cycle   3  Pass 1  IDiag  1:
 E= -706.401161727666     Delta-E=        0.000402989678 Rises=F Damp=F
 DIIS: error= 3.43D-03 at cycle   3 NSaved=   3.
 NSaved= 3 IEnMin= 2 EnMin= -706.401564717344     IErMin= 2 ErrMin= 1.63D-03
 ErrMax= 3.43D-03  0.00D+00 EMaxC= 1.00D-01 BMatC= 1.50D-03 BMatP= 9.03D-04
 IDIUse=3 WtCom= 1.46D-01 WtEn= 8.54D-01
 Coeff-Com: -0.263D-01 0.577D+00 0.449D+00
 Coeff-En:   0.000D+00 0.581D+00 0.419D+00
 Coeff:     -0.384D-02 0.581D+00 0.423D+00
 Gap=     0.201 Goal=   None    Shift=    0.000
 RMSDP=7.48D-04 MaxDP=4.20D-02 DE= 4.03D-04 OVMax= 1.12D-02

 Cycle   4  Pass 1  IDiag  1:
 E= -706.402461674244     Delta-E=       -0.001299946579 Rises=F Damp=F
 DIIS: error= 1.12D-03 at cycle   4 NSaved=   4.
 NSaved= 4 IEnMin= 4 EnMin= -706.402461674244     IErMin= 4 ErrMin= 1.12D-03
 ErrMax= 1.12D-03  0.00D+00 EMaxC= 1.00D-01 BMatC= 1.34D-04 BMatP= 9.03D-04
 IDIUse=3 WtCom= 9.89D-01 WtEn= 1.12D-02
 Coeff-Com: -0.242D-01 0.280D+00 0.280D+00 0.464D+00
 Coeff-En:   0.000D+00 0.000D+00 0.000D+00 0.100D+01
 Coeff:     -0.240D-01 0.277D+00 0.277D+00 0.470D+00
 Gap=     0.199 Goal=   None    Shift=    0.000
 RMSDP=1.24D-04 MaxDP=2.26D-03 DE=-1.30D-03 OVMax= 3.50D-03

 Cycle   5  Pass 1  IDiag  1:
 E= -706.402570022821     Delta-E=       -0.000108348577 Rises=F Damp=F
 DIIS: error= 1.82D-04 at cycle   5 NSaved=   5.
 NSaved= 5 IEnMin= 5 EnMin= -706.402570022821     IErMin= 5 ErrMin= 1.82D-04
 ErrMax= 1.82D-04  0.00D+00 EMaxC= 1.00D-01 BMatC= 9.82D-06 BMatP= 1.34D-04
 IDIUse=3 WtCom= 9.98D-01 WtEn= 1.82D-03
 Coeff-Com: -0.801D-02 0.767D-01 0.943D-01 0.260D+00 0.577D+00
 Coeff-En:   0.000D+00 0.000D+00 0.000D+00 0.298D-01 0.970D+00
 Coeff:     -0.800D-02 0.766D-01 0.941D-01 0.260D+00 0.578D+00
 Gap=     0.199 Goal=   None    Shift=    0.000
 RMSDP=4.25D-05 MaxDP=6.73D-04 DE=-1.08D-04 OVMax= 7.18D-04

 Cycle   6  Pass 1  IDiag  1:
 E= -706.402579327855     Delta-E=       -0.000009305034 Rises=F Damp=F
 DIIS: error= 3.14D-05 at cycle   6 NSaved=   6.
 NSaved= 6 IEnMin= 6 EnMin= -706.402579327855     IErMin= 6 ErrMin= 3.14D-05
 ErrMax= 3.14D-05  0.00D+00 EMaxC= 1.00D-01 BMatC= 3.53D-07 BMatP= 9.82D-06
 IDIUse=1 WtCom= 1.00D+00 WtEn= 0.00D+00
 Coeff-Com: -0.114D-02 0.426D-02 0.116D-01 0.639D-01 0.225D+00 0.696D+00
 Coeff:     -0.114D-02 0.426D-02 0.116D-01 0.639D-01 0.225D+00 0.696D+00
 Gap=     0.200 Goal=   None    Shift=    0.000
 RMSDP=1.98D-05 MaxDP=1.26D-03 DE=-9.31D-06 OVMax= 2.93D-04

 Cycle   7  Pass 1  IDiag  1:
 E= -706.402579708232     Delta-E=       -0.000000380377 Rises=F Damp=F
 DIIS: error= 1.36D-05 at cycle   7 NSaved=   7.
 NSaved= 7 IEnMin= 7 EnMin= -706.402579708232     IErMin= 7 ErrMin= 1.36D-05
 ErrMax= 1.36D-05  0.00D+00 EMaxC= 1.00D-01 BMatC= 3.52D-08 BMatP= 3.53D-07
 IDIUse=1 WtCom= 1.00D+00 WtEn= 0.00D+00
 Coeff-Com:  0.299D-03-0.613D-02-0.451D-02 0.430D-02 0.490D-01 0.298D+00
 Coeff-Com:  0.659D+00
 Coeff:      0.299D-03-0.613D-02-0.451D-02 0.430D-02 0.490D-01 0.298D+00
 Coeff:      0.659D+00
 Gap=     0.199 Goal=   None    Shift=    0.000
 RMSDP=7.20D-06 MaxDP=4.47D-04 DE=-3.80D-07 OVMax= 7.18D-05

 Cycle   8  Pass 1  IDiag  1:
 E= -706.402579748587     Delta-E=       -0.000000040355 Rises=F Damp=F
 DIIS: error= 3.42D-06 at cycle   8 NSaved=   8.
 NSaved= 8 IEnMin= 8 EnMin= -706.402579748587     IErMin= 8 ErrMin= 3.42D-06
 ErrMax= 3.42D-06  0.00D+00 EMaxC= 1.00D-01 BMatC= 2.11D-09 BMatP= 3.52D-08
 IDIUse=1 WtCom= 1.00D+00 WtEn= 0.00D+00
 Coeff-Com:  0.153D-03-0.240D-02-0.223D-02-0.103D-02 0.107D-01 0.861D-01
 Coeff-Com:  0.268D+00 0.641D+00
 Coeff:      0.153D-03-0.240D-02-0.223D-02-0.103D-02 0.107D-01 0.861D-01
 Coeff:      0.268D+00 0.641D+00
 Gap=     0.199 Goal=   None    Shift=    0.000
 RMSDP=1.90D-06 MaxDP=1.27D-04 DE=-4.04D-08 OVMax= 2.02D-05

 Cycle   9  Pass 1  IDiag  1:
 E= -706.402579749591     Delta-E=       -0.000000001004 Rises=F Damp=F
 DIIS: error= 2.90D-06 at cycle   9 NSaved=   9.
 NSaved= 9 IEnMin= 9 EnMin= -706.402579749591     IErMin= 9 ErrMin= 2.90D-06
 ErrMax= 2.90D-06  0.00D+00 EMaxC= 1.00D-01 BMatC= 1.58D-09 BMatP= 2.11D-09
 IDIUse=1 WtCom= 1.00D+00 WtEn= 0.00D+00
 Coeff-Com:  0.647D-04-0.765D-03-0.934D-03-0.158D-02-0.608D-03 0.994D-02
 Coeff-Com:  0.792D-01 0.471D+00 0.444D+00
 Coeff:      0.647D-04-0.765D-03-0.934D-03-0.158D-02-0.608D-03 0.994D-02
 Coeff:      0.792D-01 0.471D+00 0.444D+00
 Gap=     0.199 Goal=   None    Shift=    0.000
 RMSDP=3.51D-07 MaxDP=1.09D-05 DE=-1.00D-09 OVMax= 9.23D-06

 Cycle  10  Pass 1  IDiag  1:
 E= -706.402579750868     Delta-E=       -0.000000001276 Rises=F Damp=F
 DIIS: error= 3.11D-07 at cycle  10 NSaved=  10.
 NSaved=10 IEnMin=10 EnMin= -706.402579750868     IErMin=10 ErrMin= 3.11D-07
 ErrMax= 3.11D-07  0.00D+00 EMaxC= 1.00D-01 BMatC= 3.92D-11 BMatP= 1.58D-09
 IDIUse=1 WtCom= 1.00D+00 WtEn= 0.00D+00
 Coeff-Com:  0.375D-05 0.624D-04-0.547D-04-0.488D-03-0.197D-02-0.903D-02
 Coeff-Com: -0.101D-01 0.894D-01 0.174D+00 0.758D+00
 Coeff:      0.375D-05 0.624D-04-0.547D-04-0.488D-03-0.197D-02-0.903D-02
 Coeff:     -0.101D-01 0.894D-01 0.174D+00 0.758D+00
 Gap=     0.199 Goal=   None    Shift=    0.000
 RMSDP=1.39D-07 MaxDP=5.36D-06 DE=-1.28D-09 OVMax= 3.47D-06

 Cycle  11  Pass 1  IDiag  1:
 E= -706.402579750913     Delta-E=       -0.000000000045 Rises=F Damp=F
 DIIS: error= 6.82D-08 at cycle  11 NSaved=  11.
 NSaved=11 IEnMin=11 EnMin= -706.402579750913     IErMin=11 ErrMin= 6.82D-08
 ErrMax= 6.82D-08  0.00D+00 EMaxC= 1.00D-01 BMatC= 1.75D-12 BMatP= 3.92D-11
 IDIUse=1 WtCom= 1.00D+00 WtEn= 0.00D+00
 Coeff-Com: -0.175D-05 0.549D-04 0.273D-04-0.904D-04-0.654D-03-0.326D-02
 Coeff-Com: -0.698D-02 0.922D-02 0.306D-01 0.255D+00 0.716D+00
 Coeff:     -0.175D-05 0.549D-04 0.273D-04-0.904D-04-0.654D-03-0.326D-02
 Coeff:     -0.698D-02 0.922D-02 0.306D-01 0.255D+00 0.716D+00
 Gap=     0.199 Goal=   None    Shift=    0.000
 RMSDP=3.26D-08 MaxDP=1.69D-06 DE=-4.48D-11 OVMax= 8.04D-07

 Cycle  12  Pass 1  IDiag  1:
 E= -706.402579750916     Delta-E=       -0.000000000004 Rises=F Damp=F
 DIIS: error= 1.69D-08 at cycle  12 NSaved=  12.
 NSaved=12 IEnMin=12 EnMin= -706.402579750916     IErMin=12 ErrMin= 1.69D-08
 ErrMax= 1.69D-08  0.00D+00 EMaxC= 1.00D-01 BMatC= 1.11D-13 BMatP= 1.75D-12
 IDIUse=1 WtCom= 1.00D+00 WtEn= 0.00D+00
 Coeff-Com: -0.757D-06 0.854D-05 0.130D-04 0.215D-04-0.839D-05 0.375D-04
 Coeff-Com: -0.921D-03-0.589D-02-0.874D-02 0.444D-02 0.203D+00 0.808D+00
 Coeff:     -0.757D-06 0.854D-05 0.130D-04 0.215D-04-0.839D-05 0.375D-04
 Coeff:     -0.921D-03-0.589D-02-0.874D-02 0.444D-02 0.203D+00 0.808D+00
 Gap=     0.199 Goal=   None    Shift=    0.000
 RMSDP=7.82D-09 MaxDP=2.55D-07 DE=-3.64D-12 OVMax= 3.56D-07

 Error on total polarization charges =  0.02578
 SCF Done:  E(RB3LYP) =  -706.402579751     A.U. after   12 cycles
            NFock= 12  Conv=0.78D-08     -V/T= 2.0053
 KE= 7.026438694149D+02 PE=-2.156796195525D+03 EE= 5.079974729271D+02
 SMD-CDS (non-electrostatic) energy       (kcal/mol) =       0.68
 (included in total energy above)
 Leave Link  502 at Tue Jan  7 23:25:32 2020, MaxMem=  4294967296 cpu:             460.1 elap:              34.2
 (Enter /home/cwagen/sw/g16/g16/l701.exe)
 ... and contract with generalized density number  0.
 Compute integral first derivatives.
 D1PCM: PCM CHGder 1st derivatives, ID1Alg=3 FixD1E=F DoIter=F DoCFld=F I1PDM=0.
 GePol: Maximum number of non-zero 1st derivatives   =     346
 Leave Link  701 at Tue Jan  7 23:25:36 2020, MaxMem=  4294967296 cpu:              51.5 elap:               4.3
 (Enter /home/cwagen/sw/g16/g16/l702.exe)
 L702 exits ... SP integral derivatives will be done elsewhere.
 Leave Link  702 at Tue Jan  7 23:25:36 2020, MaxMem=  4294967296 cpu:               0.8 elap:               0.1
 (Enter /home/cwagen/sw/g16/g16/l703.exe)
 Integral derivatives from FoFJK, PRISM(SPDF).
 Compute integral first derivatives, UseDBF=F ICtDFT=           0.
 Calling FoFJK, ICntrl=      2127 FMM=F ISym2X=0 I1Cent= 0 IOpClX= 0 NMat=1 NMatS=1 NMatT=0.
 FoFJK:  IHMeth= 1 ICntrl=    2127 DoSepK=F KAlg= 0 I1Cent=           0 FoldK=F
 IRaf=         0 NMat=       1 IRICut=       1 DoRegI=T DoRafI=F ISym2E= 0 IDoP0=0 IntGTp=1.
 FoFCou: FMM=F IPFlag=           0 FMFlag=      100000 FMFlg1=         800
         NFxFlg=           0 DoJE=F BraDBF=F KetDBF=F FulRan=T
         wScrn=  0.000000 ICntrl=      2127 IOpCl=  0 I1Cent=           0 NGrid=           0
         NMat0=    1 NMatS0=      1 NMatT0=    0 NMatD0=    1 NMtDS0=    0 NMtDT0=    0
 Symmetry not used in FoFCou.
 Leave Link  703 at Tue Jan  7 23:25:39 2020, MaxMem=  4294967296 cpu:              34.1 elap:               3.0
 (Enter /home/cwagen/sw/g16/g16/l716.exe)
 Dipole        =-4.72977096D+00 8.35559784D-01-1.15818074D+00
 ***** Axes restored to original set *****
 -------------------------------------------------------------------
 Center     Atomic                   Forces (Hartrees/Bohr)
 Number     Number              X              Y              Z
 -------------------------------------------------------------------
      1        6          -0.014019894   -0.066534847   -0.050495798
      2        8           0.015178365    0.010463765    0.031520658
      3        6           0.014943853    0.013815099    0.000352193
      4        1          -0.000824078    0.000019175   -0.001106041
      5        1          -0.001607517   -0.000356869    0.000557837
      6        1          -0.000869148    0.000796032   -0.000869556
      7       17          -0.013688824    0.041853547    0.018603243
      8        6          -0.003493808   -0.001246412    0.001499640
      9        7           0.004381052    0.001190512   -0.000062176
 -------------------------------------------------------------------
 Cartesian Forces:  Max     0.066534847 RMS     0.020412299
 Leave Link  716 at Tue Jan  7 23:25:39 2020, MaxMem=  4294967296 cpu:               0.9 elap:               0.1
 (Enter /home/cwagen/sw/g16/g16/l103.exe)

 GradGradGradGradGradGradGradGradGradGradGradGradGradGradGradGradGradGrad
 Berny optimization.
 Using GEDIIS/GDIIS optimizer.
 FormGI is forming the generalized inverse of G from B-inverse, IUseBI=4.
 Internal  Forces:  Max     0.046112330 RMS     0.011573836
 Search for a local minimum.
 Step number   2 out of a maximum of   41
 All quantities printed in internal units (Hartrees-Bohrs-Radians)
 RMS Force = .83563D-02 SwitMx=.10000D-02 MixMth= 1
 Mixed Optimization -- RFO/linear search
 Update second derivatives using D2CorX and points    1    2
 DE= -2.77D-02 DEPred=-2.62D-02 R= 1.06D+00
 TightC=F SS=  1.41D+00  RLast= 4.54D-01 DXNew= 5.0454D-01 1.3632D+00
 Trust test= 1.06D+00 RLast= 4.54D-01 DXMaxT set to 5.05D-01
 ITU=  1  0
 Use linear search instead of GDIIS.
     Eigenvalues ---    0.00230   0.04746   0.04746   0.05335   0.05471
     Eigenvalues ---    0.06073   0.10506   0.15988   0.16000   0.16162
     Eigenvalues ---    0.24252   0.25000   0.26288   0.28916   0.33980
     Eigenvalues ---    0.34019   0.34274   0.56832   1.218091000.00000
     Eigenvalues --- 1000.000001000.000001000.000001000.000001000.00000
     Eigenvalues --- 1000.000001000.000001000.000001000.000001000.00000
     Eigenvalues --- 1000.00000
 RFO step:  Lambda=-4.31549326D-03 EMin= 2.30017392D-03
 Quartic linear search produced a step of  0.59759.
 Iteration  1 RMS(Cart)=  0.09130833 RMS(Int)=  0.00963643
 Iteration  2 RMS(Cart)=  0.00649274 RMS(Int)=  0.00798622
 Iteration  3 RMS(Cart)=  0.00002663 RMS(Int)=  0.00798618
 Iteration  4 RMS(Cart)=  0.00000054 RMS(Int)=  0.00798618
 Iteration  1 RMS(Cart)=  0.00000000 RMS(Int)=  0.00000000
 ITry= 1 IFail=0 DXMaxC= 1.80D-01 DCOld= 1.00D+10 DXMaxT= 5.05D-01 DXLimC= 3.00D+00 Rises=F
 Variable       Old X    -DE/DX   Delta X   Delta X   Delta X     New X
                                 (Linear)    (Quad)   (Total)
    R1        2.33207  -0.03223  -0.07183  -0.00317  -0.07501   2.25707
    R2        2.89407  -0.01108  -0.03046  -0.03050  -0.06096   2.83311
    R3        3.21253   0.04611   0.00000   0.00000   0.00000   3.21253
    R4        5.48021   0.00109   0.00000   0.00000   0.00000   5.48021
    R5        2.06715  -0.00115  -0.00368  -0.00135  -0.00503   2.06213
    R6        2.06823   0.00158  -0.00386   0.01168   0.00782   2.07605
    R7        2.06685  -0.00092  -0.00109  -0.00309  -0.00419   2.06266
    R8        2.22602   0.00454   0.01003  -0.00385   0.00619   2.23221
    A1        2.10511   0.00927   0.06480   0.01299   0.05416   2.15927
    A2        2.03730   0.00466   0.01089   0.08941   0.07512   2.11242
    A3        1.79468  -0.00403  -0.05839  -0.01679  -0.06633   1.72835
    A4        2.01574  -0.00459   0.05471  -0.06044  -0.03022   1.98552
    A5        1.65834  -0.00995  -0.06789  -0.04572  -0.10857   1.54976
    A6        1.72754  -0.00435  -0.06409  -0.02411  -0.08798   1.63956
    A7        1.97261  -0.00033  -0.00081  -0.00239  -0.00327   1.96934
    A8        1.84215   0.00042  -0.02228   0.03239   0.01009   1.85224
    A9        1.91170  -0.00115   0.00616  -0.01865  -0.01248   1.89922
   A10        1.91488  -0.00034   0.00676  -0.01304  -0.00639   1.90849
   A11        1.91179   0.00106   0.00204   0.00864   0.01064   1.92243
   A12        1.90904   0.00033   0.00807  -0.00682   0.00133   1.91037
   A13        3.09462   0.00031   0.00253   0.00462   0.00715   3.10178
   A14        2.85120  -0.00029  -0.00151  -0.00606  -0.00756   2.84364
    D1        2.90050  -0.00932  -0.08641  -0.06743  -0.15810   2.74240
    D2       -1.28983  -0.00965  -0.09338  -0.06369  -0.16124  -1.45106
    D3        0.76366  -0.00962  -0.09292  -0.06331  -0.16049   0.60317
    D4       -0.77439   0.01017   0.09111   0.04085   0.13379  -0.64060
    D5        1.31847   0.00983   0.08415   0.04460   0.13065   1.44912
    D6       -2.91123   0.00987   0.08461   0.04497   0.13139  -2.77983
    D7        1.01357  -0.00067   0.00141  -0.02127  -0.01750   0.99607
    D8        3.10643  -0.00100  -0.00555  -0.01752  -0.02064   3.08579
    D9       -1.12327  -0.00097  -0.00509  -0.01715  -0.01989  -1.14316
         Item               Value     Threshold  Converged?
 Maximum Force            0.032231     0.000450     NO 
 RMS     Force            0.008356     0.000300     NO 
 Maximum Displacement     0.180041     0.001800     NO 
 RMS     Displacement     0.092915     0.001200     NO 
 Predicted change in Energy=-8.599037D-03
 Lowest energy point so far.  Saving SCF results.
 GradGradGradGradGradGradGradGradGradGradGradGradGradGradGradGradGradGrad

 Leave Link  103 at Tue Jan  7 23:25:44 2020, MaxMem=  4294967296 cpu:              58.6 elap:               4.3
 (Enter /home/cwagen/sw/g16/g16/l202.exe)
                          Input orientation:                          
 ---------------------------------------------------------------------
 Center     Atomic      Atomic             Coordinates (Angstroms)
 Number     Number       Type             X           Y           Z
 ---------------------------------------------------------------------
      1          6           0       -0.375231   -0.378537   -0.289542
      2          8           0       -0.210444   -0.610307   -1.449580
      3          6           0       -0.266799   -1.413676    0.789524
      4          1           0       -0.053820   -0.983249    1.769398
      5          1           0       -1.238443   -1.925429    0.820169
      6          1           0        0.511773   -2.127856    0.515338
      7         17           0       -1.110625    1.067171    0.219502
      8          6           0        2.301688    0.512689    0.381145
      9          7           0        3.448615    0.788848    0.441207
 ---------------------------------------------------------------------
                    Distance matrix (angstroms):
                    1          2          3          4          5
     1  C    0.000000
     2  O    1.194387   0.000000
     3  C    1.499218   2.379530   0.000000
     4  H    2.169842   3.244293   1.091230   0.000000
     5  H    2.090327   2.817462   1.098600   1.786637   0.000000
     6  H    2.120077   2.585625   1.091515   1.789606   1.788059
     7  Cl   1.700000   2.531816   2.681710   2.779071   3.054962
     8  C    2.900000   3.305069   3.236477   3.116648   4.320844
     9  N    4.064306   4.349876   4.333214   4.143848   5.429496
                    6          7          8          9
     6  H    0.000000
     7  Cl   3.595538   0.000000
     8  C    3.192849   3.460847   0.000000
     9  N    4.139771   4.573105   1.181234   0.000000
 Stoichiometry    C3H3ClNO(1-)
 Framework group  C1[X(C3H3ClNO)]
 Deg. of freedom    21
 Full point group                 C1      NOp   1
 RotChk:  IX=0 Diff= 1.08D-01
 Largest Abelian subgroup         C1      NOp   1
 Largest concise Abelian subgroup C1      NOp   1
                         Standard orientation:                         
 ---------------------------------------------------------------------
 Center     Atomic      Atomic             Coordinates (Angstroms)
 Number     Number       Type             X           Y           Z
 ---------------------------------------------------------------------
      1          6           0       -0.704143    0.446231    0.235384
      2          8           0       -0.695458    0.820271    1.369659
      3          6           0       -0.598159    1.364871   -0.944667
      4          1           0       -0.230737    0.862330   -1.840902
      5          1           0       -1.613096    1.742625   -1.129399
      6          1           0        0.057997    2.197543   -0.684819
      7         17           0       -1.207499   -1.127490   -0.164659
      8          6           0        2.115041   -0.164130   -0.064051
      9          7           0        3.285793   -0.297024    0.019579
 ---------------------------------------------------------------------
 Rotational constants (GHZ):           3.6836618           1.5629209           1.3767831
 Leave Link  202 at Tue Jan  7 23:25:44 2020, MaxMem=  4294967296 cpu:               1.3 elap:               0.1
 (Enter /home/cwagen/sw/g16/g16/l301.exe)
 Standard basis: 6-31+G(d) (6D, 7F)
 Ernie: Thresh=  0.10000D-02 Tol=  0.10000D-05 Strict=F.
 There are   124 symmetry adapted cartesian basis functions of A   symmetry.
 There are   124 symmetry adapted basis functions of A   symmetry.
   124 basis functions,   228 primitive gaussians,   124 cartesian basis functions
    27 alpha electrons       27 beta electrons
       nuclear repulsion energy       243.1077463801 Hartrees.
 IExCor=  402 DFT=T Ex+Corr=B3LYP ExCW=0 ScaHFX=  0.200000
 ScaDFX=  0.800000  0.720000  1.000000  0.810000 ScalE2=  1.000000  1.000000
 IRadAn=      5 IRanWt=     -1 IRanGd=            0 ICorTp=0 IEmpDi=  4
 NAtoms=    9 NActive=    9 NUniq=    9 SFac= 1.00D+00 NAtFMM=   60 NAOKFM=F Big=F
 Integral buffers will be    131072 words long.
 Raffenetti 2 integral format.
 Two-electron integral symmetry is turned on.
 ------------------------------------------------------------------------------
 Polarizable Continuum Model (PCM)
 =================================
 Model                : PCM.
 Atomic radii         : SMD-Coulomb.
 Polarization charges : Total charges.
 Charge compensation  : None.
 Solution method      : On-the-fly selection.
 Cavity type          : VdW (van der Waals Surface) (Alpha=1.000).
 Cavity algorithm     : GePol (No added spheres)
                        Default sphere list used, NSphG=    9.
                        Lebedev-Laikov grids with approx.  5.0 points / Ang**2.
                        Smoothing algorithm: York/Karplus (Gamma=1.0000).
                        Polarization charges: spherical gaussians, with
                                              point-specific exponents (IZeta= 3).
                        Self-potential: point-specific (ISelfS= 7).
                        Self-field    : sphere-specific E.n sum rule (ISelfD= 2).
 1st derivatives      : Analytical E(r).r(x)/FMM algorithm (CHGder, D1EAlg=3).
                        Cavity 1st derivative terms included.
 Solvent              : TetraHydroFuran, Eps=   7.425700 Eps(inf)=   1.974025
 ------------------------------------------------------------------------------
 Spheres list:
 ISph  on   Nord     Re0    Alpha      Xe            Ye            Ze
    1   C      1    1.8500  1.000     -0.704143      0.446231      0.235384
    2   O      2    2.2940  1.000     -0.695458      0.820271      1.369659
    3   C      3    1.8500  1.000     -0.598159      1.364871     -0.944667
    4   H      4    1.2000  1.000     -0.230737      0.862330     -1.840902
    5   H      5    1.2000  1.000     -1.613096      1.742625     -1.129399
    6   H      6    1.2000  1.000      0.057997      2.197543     -0.684819
    7  Cl      7    2.3800  1.000     -1.207499     -1.127490     -0.164659
    8   C      8    1.8500  1.000      2.115041     -0.164130     -0.064051
    9   N      9    1.8900  1.000      3.285793     -0.297024      0.019579
 ------------------------------------------------------------------------------
 GePol: Number of generator spheres                  =       9
 GePol: Total number of spheres                      =       9
 GePol: Number of exposed spheres                    =       9 (100.00%)
 GePol: Number of points                             =    1209
 GePol: Average weight of points                     =       0.14
 GePol: Minimum weight of points                     =   0.12D-08
 GePol: Maximum weight of points                     =    0.18138
 GePol: Number of points with low weight             =      27
 GePol: Fraction of low-weight points (<1% of avg)   =       2.23%
 GePol: Cavity surface area                          =    163.543 Ang**2
 GePol: Cavity volume                                =    147.264 Ang**3
 ------------------------------------------------------------------------------
 Atomic radii for non-electrostatic terms: SMD-CDS.
 ------------------------------------------------------------------------------
 PCM non-electrostatic energy =         0.0010413030 Hartrees.
 Nuclear repulsion after PCM non-electrostatic terms =      243.1087876831 Hartrees.
 Leave Link  301 at Tue Jan  7 23:25:44 2020, MaxMem=  4294967296 cpu:               2.3 elap:               0.2
 (Enter /home/cwagen/sw/g16/g16/l302.exe)
 NPDir=0 NMtPBC=     1 NCelOv=     1 NCel=       1 NClECP=     1 NCelD=      1
         NCelK=      1 NCelE2=     1 NClLst=     1 CellRange=     0.0.
 One-electron integrals computed using PRISM.
 One-electron integral symmetry used in STVInt
 NBasis=   124 RedAO= T EigKep=  6.56D-05  NBF=   124
 NBsUse=   124 1.00D-06 EigRej= -1.00D+00 NBFU=   124
 Precomputing XC quadrature grid using
 IXCGrd= 4 IRadAn=           5 IRanWt=          -1 IRanGd=           0 AccXCQ= 0.00D+00.
 Generated NRdTot=       0 NPtTot=           0 NUsed=           0 NTot=          32
 NSgBfM=   124   124   124   124   124 MxSgAt=     9 MxSgA2=     9.
[...]
 FoFCou: FMM=F IPFlag=           0 FMFlag=      100000 FMFlg1=         800
         NFxFlg=           0 DoJE=F BraDBF=F KetDBF=F FulRan=T
         wScrn=  0.000000 ICntrl=      2127 IOpCl=  0 I1Cent=           0 NGrid=           0
         NMat0=    1 NMatS0=      1 NMatT0=    0 NMatD0=    1 NMtDS0=    0 NMtDT0=    0
 Symmetry not used in FoFCou.
 Leave Link  703 at Tue Jan  7 23:55:44 2020, MaxMem=  4294967296 cpu:              36.9 elap:               3.2
 (Enter /home/cwagen/sw/g16/g16/l716.exe)
 Dipole        =-4.73440114D+00 9.14606045D-01-1.08335998D+00
 ***** Axes restored to original set *****
 -------------------------------------------------------------------
 Center     Atomic                   Forces (Hartrees/Bohr)
 Number     Number              X              Y              Z
 -------------------------------------------------------------------
      1        6           0.015556708   -0.042589740   -0.015551783
      2        8          -0.000247412   -0.000085292   -0.000074375
      3        6           0.000135256   -0.000026317    0.000028752
      4        1           0.000048179    0.000025831   -0.000001140
      5        1          -0.000019828    0.000049821    0.000147258
      6        1          -0.000012640    0.000038601    0.000010496
      7       17          -0.021377084    0.040684838    0.013876683
      8        6          -0.014704085   -0.004473066    0.002575247
      9        7           0.020620906    0.006375323   -0.001011139
 -------------------------------------------------------------------
 Cartesian Forces:  Max     0.042589740 RMS     0.014026979
 Leave Link  716 at Tue Jan  7 23:55:44 2020, MaxMem=  4294967296 cpu:               1.2 elap:               0.1
 (Enter /home/cwagen/sw/g16/g16/l103.exe)

 GradGradGradGradGradGradGradGradGradGradGradGradGradGradGradGradGradGrad
 Berny optimization.
 Using GEDIIS/GDIIS optimizer.
 FormGI is forming the generalized inverse of G from B-inverse, IUseBI=4.
 Internal  Forces:  Max     0.047993146 RMS     0.009523526
 Search for a local minimum.
 Step number  41 out of a maximum of   41
 All quantities printed in internal units (Hartrees-Bohrs-Radians)
 RMS Force = .40115D-02 SwitMx=.10000D-02 MixMth= 1
 Mixed Optimization -- RFO/linear search
 Update second derivatives using D2CorX and points   10   11   12   13   15
                                                     16   14   18   17   19
                                                     20   21   22   24   25
                                                     26   27   28   29   30
                                                     31   32   33   34   35
                                                     36   37   38   39   40
                                                     41   23
 ITU=  0  0  0  0  0  0  0  0  0  0  0  0  0  0  0 -1  0 -1  1 -1
 ITU= -1  0 -1 -1 -1  0 -1  1 -1 -1  1 -1
 Use linear search instead of GDIIS.
 Skip linear search -- no minimum in search direction.
 Steepest descent instead of Quadratic search.
 Steepest descent step scaled to max of 0.05000.
 Iteration  1 RMS(Cart)=  0.00829466 RMS(Int)=  0.00000152
 Iteration  2 RMS(Cart)=  0.00000239 RMS(Int)=  0.00000000
 Iteration  3 RMS(Cart)=  0.00000000 RMS(Int)=  0.00000000
 Iteration  1 RMS(Cart)=  0.00000000 RMS(Int)=  0.00000000
 ITry= 1 IFail=0 DXMaxC= 4.08D-02 DCOld= 1.00D+10 DXMaxT= 5.00D-02 DXLimC= 3.00D+00 Rises=T
 Variable       Old X    -DE/DX   Delta X   Delta X   Delta X     New X
                                 (Linear)    (Quad)   (Total)
    R1        2.27868   0.00007   0.00000   0.00015   0.00015   2.27883
    R2        2.84624   0.00000   0.00000   0.00001   0.00001   2.84625
    R3        3.21253   0.04799   0.00000   0.00000   0.00000   3.21253
    R4        5.48021   0.00645   0.00000   0.00000   0.00000   5.48021
    R5        2.06097  -0.00002   0.00000  -0.00005  -0.00005   2.06092
    R6        2.07811   0.00002   0.00000   0.00005   0.00005   2.07816
    R7        2.06339  -0.00001   0.00000  -0.00002  -0.00002   2.06337
    R8        2.21300   0.02160   0.00000   0.05000   0.05000   2.26300
    A1        2.17853   0.00000   0.00000   0.00000   0.00000   2.17853
    A2        2.09548  -0.00001   0.00000  -0.00003  -0.00003   2.09546
    A3        1.66805   0.00030   0.00000   0.00071   0.00071   1.66876
    A4        1.99624   0.00002   0.00000   0.00004   0.00004   1.99628
    A5        1.53044  -0.00028   0.00000  -0.00064  -0.00064   1.52980
    A6        1.66252  -0.00009   0.00000  -0.00020  -0.00020   1.66231
    A7        1.95608  -0.00002   0.00000  -0.00005  -0.00005   1.95603
    A8        1.87534   0.00002   0.00000   0.00005   0.00005   1.87539
    A9        1.90691  -0.00002   0.00000  -0.00004  -0.00004   1.90687
   A10        1.89523  -0.00002   0.00000  -0.00005  -0.00005   1.89518
   A11        1.92540   0.00001   0.00000   0.00003   0.00003   1.92542
   A12        1.90358   0.00003   0.00000   0.00007   0.00007   1.90365
   A13        3.18030   0.00002   0.00000   0.00005   0.00005   3.18035
   A14        2.69405  -0.00024   0.00000  -0.00056  -0.00056   2.69349
    D1        2.59408   0.00004   0.00000   0.00009   0.00009   2.59417
    D2       -1.60844   0.00001   0.00000   0.00003   0.00003  -1.60841
    D3        0.45453   0.00005   0.00000   0.00012   0.00012   0.45465
    D4       -0.72037   0.00008   0.00000   0.00019   0.00019  -0.72018
    D5        1.36029   0.00006   0.00000   0.00014   0.00014   1.36043
    D6       -2.85992   0.00010   0.00000   0.00022   0.00022  -2.85969
    D7        0.93286  -0.00014   0.00000  -0.00032  -0.00032   0.93254
    D8        3.01353  -0.00016   0.00000  -0.00038  -0.00038   3.01315
    D9       -1.20668  -0.00013   0.00000  -0.00029  -0.00029  -1.20698
         Item               Value     Threshold  Converged?
 Maximum Force            0.021595     0.000450     NO 
 RMS     Force            0.004012     0.000300     NO 
 Maximum Displacement     0.040809     0.001800     NO 
 RMS     Displacement     0.008295     0.001200     NO 
 Predicted change in Energy=-6.836264D-04
 Optimization stopped.
    -- Number of steps exceeded,  NStep=  41
    -- Flag reset to prevent archiving.
                           ----------------------------
                           ! Non-Optimized Parameters !
                           ! (Angstroms and Degrees)  !
 --------------------------                            --------------------------
 ! Name  Definition              Value          Derivative Info.                !
 --------------------------------------------------------------------------------
 ! R1    R(1,2)                  1.2059         -DE/DX =    0.0001              !
 ! R2    R(1,3)                  1.5062         -DE/DX =    0.0                 !
 ! R3    R(1,7)                  1.7            -DE/DX =    0.048               !
 ! R4    R(1,8)                  2.9            -DE/DX =    0.0064              !
 ! R5    R(3,4)                  1.0906         -DE/DX =    0.0                 !
 ! R6    R(3,5)                  1.0997         -DE/DX =    0.0                 !
 ! R7    R(3,6)                  1.0919         -DE/DX =    0.0                 !
 ! R8    R(8,9)                  1.1975         -DE/DX =    0.0216              !
 ! A1    A(2,1,3)              124.8208         -DE/DX =    0.0                 !
 ! A2    A(2,1,7)              120.0609         -DE/DX =    0.0                 !
 ! A3    A(2,1,8)               95.6129         -DE/DX =    0.0003              !
 ! A4    A(3,1,7)              114.3787         -DE/DX =    0.0                 !
 ! A5    A(3,1,8)               87.651          -DE/DX =   -0.0003              !
 ! A6    A(7,1,8)               95.2436         -DE/DX =   -0.0001              !
 ! A7    A(1,3,4)              112.0722         -DE/DX =    0.0                 !
 ! A8    A(1,3,5)              107.4522         -DE/DX =    0.0                 !
 ! A9    A(1,3,6)              109.2555         -DE/DX =    0.0                 !
 ! A10   A(4,3,5)              108.5861         -DE/DX =    0.0                 !
 ! A11   A(4,3,6)              110.3186         -DE/DX =    0.0                 !
 ! A12   A(5,3,6)              109.0709         -DE/DX =    0.0                 !
 ! A13   L(1,8,9,6,-1)         182.2205         -DE/DX =    0.0                 !
 ! A14   L(1,8,9,6,-2)         154.3255         -DE/DX =   -0.0002              !
 ! D1    D(2,1,3,4)            148.635          -DE/DX =    0.0                 !
 ! D2    D(2,1,3,5)            -92.155          -DE/DX =    0.0                 !
 ! D3    D(2,1,3,6)             26.0497         -DE/DX =    0.0001              !
 ! D4    D(7,1,3,4)            -41.2631         -DE/DX =    0.0001              !
 ! D5    D(7,1,3,5)             77.9469         -DE/DX =    0.0001              !
 ! D6    D(7,1,3,6)           -163.8484         -DE/DX =    0.0001              !
 ! D7    D(8,1,3,4)             53.4307         -DE/DX =   -0.0001              !
 ! D8    D(8,1,3,5)            172.6407         -DE/DX =   -0.0002              !
 ! D9    D(8,1,3,6)            -69.1546         -DE/DX =   -0.0001              !
 --------------------------------------------------------------------------------
 Largest change from initial coordinates is atom    4       0.251 Angstoms.
 GradGradGradGradGradGradGradGradGradGradGradGradGradGradGradGradGradGrad

 Leave Link  103 at Tue Jan  7 23:55:47 2020, MaxMem=  4294967296 cpu:              33.6 elap:               2.9
 (Enter /home/cwagen/sw/g16/g16/l202.exe)
                          Input orientation:                          
 ---------------------------------------------------------------------
 Center     Atomic      Atomic             Coordinates (Angstroms)
 Number     Number       Type             X           Y           Z
 ---------------------------------------------------------------------
      1          6           0       -0.377241   -0.377886   -0.291000
      2          8           0       -0.129093   -0.563905   -1.456263
      3          6           0       -0.270360   -1.422743    0.788532
      4          1           0        0.000305   -0.990073    1.752373
      5          1           0       -1.256076   -1.900951    0.883345
      6          1           0        0.463588   -2.174371    0.490841
      7         17           0       -1.138052    1.061415    0.198465
      8          6           0        2.297779    0.475920    0.433766
      9          7           0        3.415863    0.822249    0.397103
 ---------------------------------------------------------------------
                    Distance matrix (angstroms):
                    1          2          3          4          5
     1  C    0.000000
     2  O    1.205827   0.000000
     3  C    1.506167   2.407626   0.000000
     4  H    2.166261   3.239400   1.090621   0.000000
     5  H    2.114513   2.920881   1.099686   1.778596   0.000000
     6  H    2.132047   2.595397   1.091899   1.791272   1.784954
     7  Cl   1.700000   2.529385   2.696686   2.814088   3.042795
     8  C    2.900000   3.247022   3.213428   3.027581   4.299014
     9  N    4.037505   4.233569   4.333757   4.097231   5.429482
                    6          7          8          9
     6  H    0.000000
     7  Cl   3.622299   0.000000
     8  C    3.223594   3.493294   0.000000
     9  N    4.207666   4.564516   1.171069   0.000000
 Stoichiometry    C3H3ClNO(1-)
 Framework group  C1[X(C3H3ClNO)]
 Deg. of freedom    21
 Full point group                 C1      NOp   1
 RotChk:  IX=0 Diff= 1.14D-15
 Largest Abelian subgroup         C1      NOp   1
 Largest concise Abelian subgroup C1      NOp   1
                         Standard orientation:                         
 ---------------------------------------------------------------------
 Center     Atomic      Atomic             Coordinates (Angstroms)
 Number     Number       Type             X           Y           Z
 ---------------------------------------------------------------------
      1          6           0       -0.697764    0.446136    0.251431
      2          8           0       -0.589652    0.742393    1.415287
      3          6           0       -0.595599    1.416357   -0.896076
      4          1           0       -0.184337    0.949762   -1.791959
      5          1           0       -1.612402    1.770097   -1.120330
      6          1           0        0.019612    2.266721   -0.595013
      7         17           0       -1.246350   -1.102388   -0.185751
      8          6           0        2.112813   -0.144300   -0.151113
      9          7           0        3.252227   -0.356328    0.016759
 ---------------------------------------------------------------------
 Rotational constants (GHZ):           3.6820846           1.5677507           1.3893795
 Leave Link  202 at Tue Jan  7 23:55:47 2020, MaxMem=  4294967296 cpu:               1.2 elap:               0.1
 (Enter /home/cwagen/sw/g16/g16/l601.exe)
 Copying SCF densities to generalized density rwf, IOpCl= 0 IROHF=0.

 **********************************************************************

            Population analysis using the SCF density.

 **********************************************************************

 Orbital symmetries:
       Occupied  (A) (A) (A) (A) (A) (A) (A) (A) (A) (A) (A) (A)
                 (A) (A) (A) (A) (A) (A) (A) (A) (A) (A) (A) (A)
                 (A) (A) (A)
       Virtual   (A) (A) (A) (A) (A) (A) (A) (A) (A) (A) (A) (A)
                 (A) (A) (A) (A) (A) (A) (A) (A) (A) (A) (A) (A)
                 (A) (A) (A) (A) (A) (A) (A) (A) (A) (A) (A) (A)
                 (A) (A) (A) (A) (A) (A) (A) (A) (A) (A) (A) (A)
                 (A) (A) (A) (A) (A) (A) (A) (A) (A) (A) (A) (A)
                 (A) (A) (A) (A) (A) (A) (A) (A) (A) (A) (A) (A)
                 (A) (A) (A) (A) (A) (A) (A) (A) (A) (A) (A) (A)
                 (A) (A) (A) (A) (A) (A) (A) (A) (A) (A) (A) (A)
                 (A)
 The electronic state is 1-A.
 Alpha  occ. eigenvalues -- -101.54166 -19.15106 -14.25488 -10.31717 -10.18036
 Alpha  occ. eigenvalues --  -10.11757  -9.46004  -7.22298  -7.21501  -7.21376
 Alpha  occ. eigenvalues --   -1.06039  -0.85902  -0.81616  -0.72866  -0.54322
 Alpha  occ. eigenvalues --   -0.46766  -0.44792  -0.44625  -0.38890  -0.36891
 Alpha  occ. eigenvalues --   -0.34685  -0.31237  -0.30983  -0.27017  -0.26493
 Alpha  occ. eigenvalues --   -0.26464  -0.22833
 Alpha virt. eigenvalues --   -0.01607   0.02622   0.04636   0.05083   0.05475
 Alpha virt. eigenvalues --    0.06078   0.08402   0.08883   0.09144   0.09441
 Alpha virt. eigenvalues --    0.11116   0.11574   0.12066   0.13504   0.13529
 Alpha virt. eigenvalues --    0.14643   0.15195   0.16441   0.19708   0.21439
 Alpha virt. eigenvalues --    0.21942   0.23454   0.24693   0.25543   0.26707
 Alpha virt. eigenvalues --    0.28270   0.28792   0.29828   0.32830   0.34832
 Alpha virt. eigenvalues --    0.35908   0.40213   0.43382   0.51823   0.57841
 Alpha virt. eigenvalues --    0.63114   0.63429   0.65794   0.67390   0.71967
 Alpha virt. eigenvalues --    0.73868   0.74219   0.76510   0.79031   0.81536
 Alpha virt. eigenvalues --    0.83493   0.86301   0.88708   0.89516   0.92561
 Alpha virt. eigenvalues --    0.98029   1.01685   1.02764   1.03857   1.06271
 Alpha virt. eigenvalues --    1.10904   1.13686   1.15465   1.19951   1.23557
 Alpha virt. eigenvalues --    1.28620   1.31821   1.35229   1.40139   1.46028
 Alpha virt. eigenvalues --    1.55096   1.60392   1.61481   1.61830   1.63432
 Alpha virt. eigenvalues --    1.65078   1.71348   1.78332   1.83842   1.86809
 Alpha virt. eigenvalues --    1.93034   2.04288   2.04595   2.08976   2.18148
 Alpha virt. eigenvalues --    2.23550   2.33043   2.41844   2.53298   2.57198
 Alpha virt. eigenvalues --    2.62309   2.68190   2.68454   2.87633   3.09545
 Alpha virt. eigenvalues --    3.10774   4.01808   4.18159   4.30143   4.32364
 Alpha virt. eigenvalues --    4.36573   4.49703
          Condensed to atoms (all electrons):
               1          2          3          4          5          6
     1  C    8.141683   0.247847  -1.531819  -0.117192   0.055751  -0.132551
     2  O    0.247847   8.194594   0.010023   0.008257  -0.008919   0.005178
     3  C   -1.531819   0.010023   6.875393   0.418667   0.299904   0.443692
     4  H   -0.117192   0.008257   0.418667   0.452801  -0.025885  -0.019856
     5  H    0.055751  -0.008919   0.299904  -0.025885   0.465653  -0.022207
     6  H   -0.132551   0.005178   0.443692  -0.019856  -0.022207   0.452538
     7  Cl  -0.987343  -0.069180   0.362052   0.027903  -0.018952   0.018955
     8  C    0.684024  -0.093188  -0.430938  -0.002860   0.003446  -0.000488
     9  N   -0.050489   0.001561   0.022500  -0.000189  -0.000026  -0.000153
               7          8          9
     1  C   -0.987343   0.684024  -0.050489
     2  O   -0.069180  -0.093188   0.001561
     3  C    0.362052  -0.430938   0.022500
     4  H    0.027903  -0.002860  -0.000189
     5  H   -0.018952   0.003446  -0.000026
     6  H    0.018955  -0.000488  -0.000153
     7  Cl  17.627863  -0.180135   0.006516
     8  C   -0.180135   5.636795   0.624839
     9  N    0.006516   0.624839   7.055189
 Mulliken charges:
               1
     1  C   -0.309910
     2  O   -0.296173
     3  C   -0.469475
     4  H    0.258354
     5  H    0.251234
     6  H    0.254892
     7  Cl   0.212321
     8  C   -0.241495
     9  N   -0.659748
 Sum of Mulliken charges =  -1.00000
 Mulliken charges with hydrogens summed into heavy atoms:
               1
     1  C   -0.309910
     2  O   -0.296173
     3  C    0.295005
     7  Cl   0.212321
     8  C   -0.241495
     9  N   -0.659748
 Electronic spatial extent (au):  <R**2>=            893.1830
 Charge=             -1.0000 electrons
 Dipole moment (field-independent basis, Debye):
    X=            -12.0336    Y=              2.3247    Z=             -2.7536  Tot=             12.5617
 Quadrupole moment (field-independent basis, Debye-Ang):
   XX=            -84.3046   YY=            -45.0337   ZZ=            -49.1853
   XY=              2.8461   XZ=              2.0924   YZ=             -3.0452
 Traceless Quadrupole moment (field-independent basis, Debye-Ang):
   XX=            -24.7968   YY=             14.4742   ZZ=             10.3226
   XY=              2.8461   XZ=              2.0924   YZ=             -3.0452
 Octapole moment (field-independent basis, Debye-Ang**2):
  XXX=           -161.0433  YYY=              2.8102  ZZZ=             -4.6243  XYY=            -13.6424
  XXY=             16.7629  XXZ=             -0.3542  XZZ=             -8.9055  YZZ=             -1.8275
  YYZ=             -2.6628  XYZ=              1.8614
 Hexadecapole moment (field-independent basis, Debye-Ang**3):
 XXXX=          -1305.6089 YYYY=           -270.8779 ZZZZ=           -185.4888 XXXY=             53.3074
 XXXZ=             -1.0142 YYYX=             14.9863 YYYZ=              0.4893 ZZZX=              4.8655
 ZZZY=             -2.8176 XXYY=           -195.5860 XXZZ=           -178.6377 YYZZ=            -79.9774
 XXYZ=             -0.2131 YYXZ=              3.8651 ZZXY=              4.3876
 N-N= 2.429777207707D+02 E-N=-2.163466572315D+03  KE= 7.028189689664D+02
 No NMR shielding tensors so no spin-rotation constants.
 Leave Link  601 at Tue Jan  7 23:55:49 2020, MaxMem=  4294967296 cpu:              16.0 elap:               1.4
 (Enter /home/cwagen/sw/g16/g16/l9999.exe)


 THE RED LIGHT IS ALWAYS LONGER THAN THE GREEN LIGHT.

                     -- PETER'S THEORY OF RELATIVITY
 Error termination request processed by link 9999.
 Error termination via Lnk1e in /home/cwagen/sw/g16/g16/l9999.exe at Tue Jan  7 23:55:50 2020.
 Job cpu time:       0 days  7 hours 12 minutes 15.5 seconds.
 Elapsed time:       0 days  0 hours 31 minutes 42.1 seconds.
 File lengths (MBytes):  RWF=     64 Int=      0 D2E=      0 Chk=      3 Scr=      1
