 Entering Gaussian System, Link 0=g16
 Input=scan_240_200.gjf
 Output=scan_240_200.out
 Initial command:
 /home/cwagen/sw/g16/g16/l1.exe "/scratch/users/cwagen/cwagen_scan_240_200/Gau-65529.inp" -scrdir="/scratch/users/cwagen/cwagen_scan_240_200/"
 Entering Link 1 = /home/cwagen/sw/g16/g16/l1.exe PID=     65530.
  
 Copyright (c) 1988,1990,1992,1993,1995,1998,2003,2009,2016,
            Gaussian, Inc.  All Rights Reserved.
  
 This is part of the Gaussian(R) 16 program.  It is based on
 the Gaussian(R) 09 system (copyright 2009, Gaussian, Inc.),
 the Gaussian(R) 03 system (copyright 2003, Gaussian, Inc.),
 the Gaussian(R) 98 system (copyright 1998, Gaussian, Inc.),
 the Gaussian(R) 94 system (copyright 1995, Gaussian, Inc.),
 the Gaussian 92(TM) system (copyright 1992, Gaussian, Inc.),
 the Gaussian 90(TM) system (copyright 1990, Gaussian, Inc.),
 the Gaussian 88(TM) system (copyright 1988, Gaussian, Inc.),
 the Gaussian 86(TM) system (copyright 1986, Carnegie Mellon
 University), and the Gaussian 82(TM) system (copyright 1983,
 Carnegie Mellon University). Gaussian is a federally registered
 trademark of Gaussian, Inc.
  
 This software contains proprietary and confidential information,
 including trade secrets, belonging to Gaussian, Inc.
  
 This software is provided under written license and may be
 used, copied, transmitted, or stored only in accord with that
 written license.
  
 The following legend is applicable only to US Government
 contracts under FAR:
  
                    RESTRICTED RIGHTS LEGEND
  
 Use, reproduction and disclosure by the US Government is
 subject to restrictions as set forth in subparagraphs (a)
 and (c) of the Commercial Computer Software - Restricted
 Rights clause in FAR 52.227-19.
  
 Gaussian, Inc.
 340 Quinnipiac St., Bldg. 40, Wallingford CT 06492
  
  
 ---------------------------------------------------------------
 Warning -- This program may not be used in any manner that
 competes with the business of Gaussian, Inc. or will provide
 assistance to any competitor of Gaussian, Inc.  The licensee
 of this program is prohibited from giving any competitor of
 Gaussian, Inc. access to this program.  By using this program,
 the user acknowledges that Gaussian, Inc. is engaged in the
 business of creating and licensing software in the field of
 computational chemistry and represents and warrants to the
 licensee that it is not a competitor of Gaussian, Inc. and that
 it will not use this program in any manner prohibited above.
 ---------------------------------------------------------------
  

 Cite this work as:
 Gaussian 16, Revision A.03,
 M. J. Frisch, G. W. Trucks, H. B. Schlegel, G. E. Scuseria, 
 M. A. Robb, J. R. Cheeseman, G. Scalmani, V. Barone, 
 G. A. Petersson, H. Nakatsuji, X. Li, M. Caricato, A. V. Marenich, 
 J. Bloino, B. G. Janesko, R. Gomperts, B. Mennucci, H. P. Hratchian, 
 J. V. Ortiz, A. F. Izmaylov, J. L. Sonnenberg, D. Williams-Young, 
 F. Ding, F. Lipparini, F. Egidi, J. Goings, B. Peng, A. Petrone, 
 T. Henderson, D. Ranasinghe, V. G. Zakrzewski, J. Gao, N. Rega, 
 G. Zheng, W. Liang, M. Hada, M. Ehara, K. Toyota, R. Fukuda, 
 J. Hasegawa, M. Ishida, T. Nakajima, Y. Honda, O. Kitao, H. Nakai, 
 T. Vreven, K. Throssell, J. A. Montgomery, Jr., J. E. Peralta, 
 F. Ogliaro, M. J. Bearpark, J. J. Heyd, E. N. Brothers, K. N. Kudin, 
 V. N. Staroverov, T. A. Keith, R. Kobayashi, J. Normand, 
 K. Raghavachari, A. P. Rendell, J. C. Burant, S. S. Iyengar, 
 J. Tomasi, M. Cossi, J. M. Millam, M. Klene, C. Adamo, R. Cammi, 
 J. W. Ochterski, R. L. Martin, K. Morokuma, O. Farkas, 
 J. B. Foresman, and D. J. Fox, Gaussian, Inc., Wallingford CT, 2016.
 
 ******************************************
 Gaussian 16:  AS64L-G16RevA.03 25-Dec-2016
                 8-Jan-2020 
 ******************************************
 %nprocshared=16
 Will use up to   16 processors via shared memory.
 %mem=32GB
 ----------------------------------------------------------------------
 #p opt=modredundant b3lyp/6-31+g(d) scrf=(smd, solvent=tetrahydrofuran
 )
 ----------------------------------------------------------------------
 1/18=120,19=15,26=3,38=1/1,3;
 2/9=110,12=2,17=6,18=5,40=1/2;
 3/5=1,6=6,7=11,11=2,25=1,30=1,70=32201,71=1,72=20,74=-5/1,2,3;
 4//1;
 5/5=2,38=5,53=20/2;
 6/7=2,8=2,9=2,10=2,28=1/1;
 7//1,2,3,16;
 1/18=20,19=15,26=3/3(2);
 2/9=110/2;
 99//99;
 2/9=110/2;
 3/5=1,6=6,7=11,11=2,25=1,30=1,70=32205,71=1,72=20,74=-5/1,2,3;
 4/5=5,16=3,69=1/1;
 5/5=2,38=5,53=20/2;
 7//1,2,3,16;
 1/18=20,19=15,26=3/3(-5);
 2/9=110/2;
 6/7=2,8=2,9=2,10=2,19=2,28=1/1;
 99/9=1/99;
 Leave Link    1 at Wed Jan  8 01:05:02 2020, MaxMem=  4294967296 cpu:               2.1 elap:               0.2
 (Enter /home/cwagen/sw/g16/g16/l101.exe)
 -----
 title
 -----
 Symbolic Z-matrix:
 Charge = -1 Multiplicity = 1
 6                    -0.19426  -0.292    -0.21291 
 8                    -0.25532  -0.66526  -1.45426 
 6                    -0.33095  -1.45422   0.81632 
 1                    -0.18039  -1.13044   1.85373 
 1                    -1.34067  -1.87301   0.71427 
 1                     0.39707  -2.23395   0.57058 
 17                   -1.63124   1.53092   0.39705 
 6                     1.65998   0.35731   0.1615 
 7                     2.79455   0.63761   0.1918 
 
 Add virtual bond connecting atoms C8         and C1         Dist= 3.78D+00.
 Add virtual bond connecting atoms Cl7        and C1         Dist= 4.54D+00.
 The following ModRedundant input section has been read:
 B       1       7 F                                                           
 B       1       8 F                                                           
 
 ITRead=  0  0  0  0  0  0  0  0  0
 MicOpt= -1 -1 -1 -1 -1 -1 -1 -1 -1
 NAtoms=      9 NQM=        9 NQMF=       0 NMMI=      0 NMMIF=      0
                NMic=       0 NMicF=      0.
                    Isotopes and Nuclear Properties:
 (Nuclear quadrupole moments (NQMom) in fm**2, nuclear magnetic moments (NMagM)
  in nuclear magnetons)

  Atom         1           2           3           4           5           6           7           8           9
 IAtWgt=          12          16          12           1           1           1          35          12          14
 AtmWgt=  12.0000000  15.9949146  12.0000000   1.0078250   1.0078250   1.0078250  34.9688527  12.0000000  14.0030740
 NucSpn=           0           0           0           1           1           1           3           0           2
 AtZEff=   0.0000000   0.0000000   0.0000000   0.0000000   0.0000000   0.0000000   0.0000000   0.0000000   0.0000000
 NQMom=    0.0000000   0.0000000   0.0000000   0.0000000   0.0000000   0.0000000  -8.1650000   0.0000000   2.0440000
 NMagM=    0.0000000   0.0000000   0.0000000   2.7928460   2.7928460   2.7928460   0.8218740   0.0000000   0.4037610
 AtZNuc=   6.0000000   8.0000000   6.0000000   1.0000000   1.0000000   1.0000000  17.0000000   6.0000000   7.0000000
 Leave Link  101 at Wed Jan  8 01:05:03 2020, MaxMem=  4294967296 cpu:               6.5 elap:               0.6
 (Enter /home/cwagen/sw/g16/g16/l103.exe)

 GradGradGradGradGradGradGradGradGradGradGradGradGradGradGradGradGradGrad
 Berny optimization.
 Initialization pass.
                           ----------------------------
                           !    Initial Parameters    !
                           ! (Angstroms and Degrees)  !
 --------------------------                            --------------------------
 ! Name  Definition              Value          Derivative Info.                !
 --------------------------------------------------------------------------------
 ! R1    R(1,2)                  1.2977         estimate D2E/DX2                !
 ! R2    R(1,3)                  1.5584         estimate D2E/DX2                !
 ! R3    R(1,7)                  2.4            Frozen                          !
 ! R4    R(1,8)                  2.0            Frozen                          !
 ! R5    R(3,4)                  1.0971         estimate D2E/DX2                !
 ! R6    R(3,5)                  1.0979         estimate D2E/DX2                !
 ! R7    R(3,6)                  1.0947         estimate D2E/DX2                !
 ! R8    R(8,9)                  1.1691         estimate D2E/DX2                !
 ! A1    A(2,1,3)              114.4006         estimate D2E/DX2                !
 ! A2    A(2,1,7)              115.6846         estimate D2E/DX2                !
 ! A3    A(2,1,8)              108.426          estimate D2E/DX2                !
 ! A4    A(3,1,7)              110.248          estimate D2E/DX2                !
 ! A5    A(3,1,8)              101.5248         estimate D2E/DX2                !
 ! A6    A(7,1,8)              105.1256         estimate D2E/DX2                !
 ! A7    A(1,3,4)              113.1005         estimate D2E/DX2                !
 ! A8    A(1,3,5)              107.683          estimate D2E/DX2                !
 ! A9    A(1,3,6)              108.9421         estimate D2E/DX2                !
 ! A10   A(4,3,5)              109.0662         estimate D2E/DX2                !
 ! A11   A(4,3,6)              109.3417         estimate D2E/DX2                !
 ! A12   A(5,3,6)              108.6067         estimate D2E/DX2                !
 ! A13   L(1,8,9,6,-1)         177.436          estimate D2E/DX2                !
 ! A14   L(1,8,9,6,-2)         166.2769         estimate D2E/DX2                !
 ! D1    D(2,1,3,4)            174.4714         estimate D2E/DX2                !
 ! D2    D(2,1,3,5)            -64.9488         estimate D2E/DX2                !
 ! D3    D(2,1,3,6)             52.6633         estimate D2E/DX2                !
 ! D4    D(7,1,3,4)            -53.1046         estimate D2E/DX2                !
 ! D5    D(7,1,3,5)             67.4752         estimate D2E/DX2                !
 ! D6    D(7,1,3,6)           -174.9127         estimate D2E/DX2                !
 ! D7    D(8,1,3,4)             57.938          estimate D2E/DX2                !
 ! D8    D(8,1,3,5)            178.5177         estimate D2E/DX2                !
 ! D9    D(8,1,3,6)            -63.8702         estimate D2E/DX2                !
 --------------------------------------------------------------------------------
 Trust Radius=3.00D-01 FncErr=1.00D-07 GrdErr=1.00D-06 EigMax=2.50D+02 EigMin=1.00D-04
 Number of steps in this run=     41 maximum allowed number of steps=    100.
 GradGradGradGradGradGradGradGradGradGradGradGradGradGradGradGradGradGrad

 Leave Link  103 at Wed Jan  8 01:05:03 2020, MaxMem=  4294967296 cpu:               0.8 elap:               0.1
 (Enter /home/cwagen/sw/g16/g16/l202.exe)
                          Input orientation:                          
 ---------------------------------------------------------------------
 Center     Atomic      Atomic             Coordinates (Angstroms)
 Number     Number       Type             X           Y           Z
 ---------------------------------------------------------------------
      1          6           0       -0.194263   -0.291999   -0.212908
      2          8           0       -0.255321   -0.665256   -1.454255
      3          6           0       -0.330945   -1.454221    0.816316
      4          1           0       -0.180394   -1.130438    1.853734
      5          1           0       -1.340665   -1.873010    0.714272
      6          1           0        0.397068   -2.233949    0.570583
      7         17           0       -1.631237    1.530925    0.397055
      8          6           0        1.659981    0.357308    0.161500
      9          7           0        2.794552    0.637606    0.191803
 ---------------------------------------------------------------------
                    Distance matrix (angstroms):
                    1          2          3          4          5
     1  C    0.000000
     2  O    1.297687   0.000000
     3  C    1.558443   2.404928   0.000000
     4  H    2.230287   3.341377   1.097150   0.000000
     5  H    2.161827   2.709087   1.097876   1.787740   0.000000
     6  H    2.175937   2.643176   1.094698   1.788205   1.780629
     7  Cl   2.400000   3.184918   3.282931   3.362991   3.431010
     8  C    2.000000   2.706415   2.770236   2.909299   3.779385
     9  N    3.156100   3.702523   3.812412   3.839049   4.865818
                    6          7          8          9
     6  H    0.000000
     7  Cl   4.280001   0.000000
     8  C    2.911513   3.502139   0.000000
     9  N    3.759951   4.519707   1.169075   0.000000
 Stoichiometry    C3H3ClNO(1-)
 Framework group  C1[X(C3H3ClNO)]
 Deg. of freedom    21
 Full point group                 C1      NOp   1
 Largest Abelian subgroup         C1      NOp   1
 Largest concise Abelian subgroup C1      NOp   1
                         Standard orientation:                         
 ---------------------------------------------------------------------
 Center     Atomic      Atomic             Coordinates (Angstroms)
 Number     Number       Type             X           Y           Z
 ---------------------------------------------------------------------
      1          6           0        0.077705    0.555480    0.208244
      2          8           0        0.222137    1.105493    1.374699
      3          6           0        0.244016    1.536527   -0.991185
      4          1           0        0.213799    1.033775   -1.965898
      5          1           0       -0.573043    2.268013   -0.939472
      6          1           0        1.195487    2.067671   -0.886536
      7         17           0       -1.898244   -0.776714   -0.076158
      8          6           0        1.603092   -0.703077   -0.090470
      9          7           0        2.586846   -1.334691   -0.095789
 ---------------------------------------------------------------------
 Rotational constants (GHZ):           3.1162818           1.6750989           1.3724397
 Leave Link  202 at Wed Jan  8 01:05:03 2020, MaxMem=  4294967296 cpu:               1.9 elap:               0.2
 (Enter /home/cwagen/sw/g16/g16/l301.exe)
 Standard basis: 6-31+G(d) (6D, 7F)
 Ernie: Thresh=  0.10000D-02 Tol=  0.10000D-05 Strict=F.
 There are   124 symmetry adapted cartesian basis functions of A   symmetry.
 There are   124 symmetry adapted basis functions of A   symmetry.
   124 basis functions,   228 primitive gaussians,   124 cartesian basis functions
    27 alpha electrons       27 beta electrons
       nuclear repulsion energy       230.3969333859 Hartrees.
 IExCor=  402 DFT=T Ex+Corr=B3LYP ExCW=0 ScaHFX=  0.200000
 ScaDFX=  0.800000  0.720000  1.000000  0.810000 ScalE2=  1.000000  1.000000
 IRadAn=      5 IRanWt=     -1 IRanGd=            0 ICorTp=0 IEmpDi=  4
 NAtoms=    9 NActive=    9 NUniq=    9 SFac= 1.00D+00 NAtFMM=   60 NAOKFM=F Big=F
 Integral buffers will be    131072 words long.
 Raffenetti 2 integral format.
 Two-electron integral symmetry is turned on.
 ------------------------------------------------------------------------------
 Polarizable Continuum Model (PCM)
 =================================
 Model                : PCM.
 Atomic radii         : SMD-Coulomb.
 Polarization charges : Total charges.
 Charge compensation  : None.
 Solution method      : On-the-fly selection.
 Cavity type          : VdW (van der Waals Surface) (Alpha=1.000).
 Cavity algorithm     : GePol (No added spheres)
                        Default sphere list used, NSphG=    9.
                        Lebedev-Laikov grids with approx.  5.0 points / Ang**2.
                        Smoothing algorithm: York/Karplus (Gamma=1.0000).
                        Polarization charges: spherical gaussians, with
                                              point-specific exponents (IZeta= 3).
                        Self-potential: point-specific (ISelfS= 7).
                        Self-field    : sphere-specific E.n sum rule (ISelfD= 2).
 1st derivatives      : Analytical E(r).r(x)/FMM algorithm (CHGder, D1EAlg=3).
                        Cavity 1st derivative terms included.
 Solvent              : TetraHydroFuran, Eps=   7.425700 Eps(inf)=   1.974025
 ------------------------------------------------------------------------------
 Spheres list:
 ISph  on   Nord     Re0    Alpha      Xe            Ye            Ze
    1   C      1    1.8500  1.000      0.077705      0.555480      0.208244
    2   O      2    2.2940  1.000      0.222137      1.105493      1.374699
    3   C      3    1.8500  1.000      0.244016      1.536527     -0.991185
    4   H      4    1.2000  1.000      0.213799      1.033775     -1.965898
    5   H      5    1.2000  1.000     -0.573043      2.268013     -0.939472
    6   H      6    1.2000  1.000      1.195487      2.067671     -0.886536
    7  Cl      7    2.3800  1.000     -1.898244     -0.776714     -0.076158
    8   C      8    1.8500  1.000      1.603092     -0.703077     -0.090470
    9   N      9    1.8900  1.000      2.586846     -1.334691     -0.095789
 ------------------------------------------------------------------------------
 GePol: Number of generator spheres                  =       9
 GePol: Total number of spheres                      =       9
 GePol: Number of exposed spheres                    =       9 (100.00%)
 GePol: Number of points                             =    1230
 GePol: Average weight of points                     =       0.14
 GePol: Minimum weight of points                     =   0.93D-07
 GePol: Maximum weight of points                     =    0.18138
 GePol: Number of points with low weight             =      28
 GePol: Fraction of low-weight points (<1% of avg)   =       2.28%
 GePol: Cavity surface area                          =    167.917 Ang**2
 GePol: Cavity volume                                =    152.262 Ang**3
 ------------------------------------------------------------------------------
 Atomic radii for non-electrostatic terms: SMD-CDS.
 ------------------------------------------------------------------------------
 PCM non-electrostatic energy =         0.0001626581 Hartrees.
 Nuclear repulsion after PCM non-electrostatic terms =      230.3970960440 Hartrees.
 Leave Link  301 at Wed Jan  8 01:05:03 2020, MaxMem=  4294967296 cpu:               2.1 elap:               0.2
 (Enter /home/cwagen/sw/g16/g16/l302.exe)
 NPDir=0 NMtPBC=     1 NCelOv=     1 NCel=       1 NClECP=     1 NCelD=      1
         NCelK=      1 NCelE2=     1 NClLst=     1 CellRange=     0.0.
 One-electron integrals computed using PRISM.
 One-electron integral symmetry used in STVInt
 NBasis=   124 RedAO= T EigKep=  1.09D-04  NBF=   124
 NBsUse=   124 1.00D-06 EigRej= -1.00D+00 NBFU=   124
 Precomputing XC quadrature grid using
 IXCGrd= 4 IRadAn=           5 IRanWt=          -1 IRanGd=           0 AccXCQ= 0.00D+00.
 Generated NRdTot=       0 NPtTot=           0 NUsed=           0 NTot=          32
 NSgBfM=   124   124   124   124   124 MxSgAt=     9 MxSgA2=     9.
 Leave Link  302 at Wed Jan  8 01:05:06 2020, MaxMem=  4294967296 cpu:              28.0 elap:               2.6
 (Enter /home/cwagen/sw/g16/g16/l303.exe)
 DipDrv:  MaxL=1.
 Leave Link  303 at Wed Jan  8 01:05:06 2020, MaxMem=  4294967296 cpu:               3.4 elap:               0.3
 (Enter /home/cwagen/sw/g16/g16/l401.exe)
 ExpMin= 4.38D-02 ExpMax= 2.52D+04 ExpMxC= 3.78D+03 IAcc=3 IRadAn=         5 AccDes= 0.00D+00
 Harris functional with IExCor=  402 and IRadAn=       5 diagonalized for initial guess.
 HarFok:  IExCor=  402 AccDes= 0.00D+00 IRadAn=         5 IDoV= 1 UseB2=F ITyADJ=14
 ICtDFT=  3500011 ScaDFX=  1.000000  1.000000  1.000000  1.000000
 FoFCou: FMM=F IPFlag=           0 FMFlag=      100000 FMFlg1=           0
         NFxFlg=           0 DoJE=T BraDBF=F KetDBF=T FulRan=T
         wScrn=  0.000000 ICntrl=       500 IOpCl=  0 I1Cent=   200000004 NGrid=           0
         NMat0=    1 NMatS0=      1 NMatT0=    0 NMatD0=    1 NMtDS0=    0 NMtDT0=    0
 Petite list used in FoFCou.
 Harris En= -706.374690493600    
 JPrj=0 DoOrth=F DoCkMO=F.
 Leave Link  401 at Wed Jan  8 01:05:09 2020, MaxMem=  4294967296 cpu:              31.2 elap:               2.3
 (Enter /home/cwagen/sw/g16/g16/l502.exe)
 Keep R1 ints in memory in canonical form, NReq=45236517.
 FoFCou: FMM=F IPFlag=           0 FMFlag=           0 FMFlg1=           0
         NFxFlg=           0 DoJE=F BraDBF=F KetDBF=F FulRan=T
         wScrn=  0.000000 ICntrl=       600 IOpCl=  0 I1Cent=           0 NGrid=           0
         NMat0=    1 NMatS0=   7750 NMatT0=    0 NMatD0=    1 NMtDS0=    0 NMtDT0=    0
 Symmetry not used in FoFCou.
 Two-electron integral symmetry not used.
 Closed shell SCF:
 Using DIIS extrapolation, IDIIS=  1040.
 NGot=  4294967296 LenX=  4264898079 LenY=  4264882262
 Requested convergence on RMS density matrix=1.00D-08 within 128 cycles.
 Requested convergence on MAX density matrix=1.00D-06.
 Requested convergence on             energy=1.00D-06.
 No special actions if energy rises.

 Cycle   1  Pass 1  IDiag  1:
 Inv3:  Mode=1 IEnd=     4538700.
 Iteration    1 A*A^-1 deviation from unit magnitude is 4.66D-15 for   1218.
 Iteration    1 A*A^-1 deviation from orthogonality  is 2.24D-15 for    348     36.
 Iteration    1 A^-1*A deviation from unit magnitude is 4.66D-15 for   1218.
 Iteration    1 A^-1*A deviation from orthogonality  is 1.45D-15 for   1214    302.
 E= -706.188167000158    
 DIIS: error= 2.47D-02 at cycle   1 NSaved=   1.
 NSaved= 1 IEnMin= 1 EnMin= -706.188167000158     IErMin= 1 ErrMin= 2.47D-02
 ErrMax= 2.47D-02  0.00D+00 EMaxC= 1.00D-01 BMatC= 2.21D-01 BMatP= 2.21D-01
 IDIUse=3 WtCom= 7.53D-01 WtEn= 2.47D-01
 Coeff-Com:  0.100D+01
 Coeff-En:   0.100D+01
 Coeff:      0.100D+01
 Gap=     0.188 Goal=   None    Shift=    0.000
 GapD=    0.188 DampG=1.000 DampE=0.500 DampFc=0.5000 IDamp=-1.
 Damping current iteration by 5.00D-01
 RMSDP=1.20D-02 MaxDP=2.59D-01              OVMax= 5.11D-01

 Cycle   2  Pass 1  IDiag  1:
 E= -706.077403863125     Delta-E=        0.110763137033 Rises=F Damp=T
 DIIS: error= 2.11D-02 at cycle   2 NSaved=   2.
 NSaved= 2 IEnMin= 1 EnMin= -706.188167000158     IErMin= 2 ErrMin= 2.11D-02
 ErrMax= 2.11D-02  0.00D+00 EMaxC= 1.00D-01 BMatC= 1.59D-01 BMatP= 2.21D-01
 IDIUse=3 WtCom= 7.89D-01 WtEn= 2.11D-01
 Coeff-Com:  0.450D+00 0.550D+00
 Coeff-En:   0.638D+00 0.362D+00
 Coeff:      0.489D+00 0.511D+00
 Gap=     0.118 Goal=   None    Shift=    0.000
 RMSDP=4.83D-03 MaxDP=9.49D-02 DE= 1.11D-01 OVMax= 3.47D-01

 Cycle   3  Pass 1  IDiag  1:
 E= -706.327697772935     Delta-E=       -0.250293909811 Rises=F Damp=F
 DIIS: error= 1.30D-02 at cycle   3 NSaved=   3.
 NSaved= 3 IEnMin= 3 EnMin= -706.327697772935     IErMin= 3 ErrMin= 1.30D-02
 ErrMax= 1.30D-02  0.00D+00 EMaxC= 1.00D-01 BMatC= 5.59D-02 BMatP= 1.59D-01
 IDIUse=3 WtCom= 8.70D-01 WtEn= 1.30D-01
 Coeff-Com:  0.204D+00 0.349D+00 0.447D+00
 Coeff-En:   0.591D-02 0.000D+00 0.994D+00
 Coeff:      0.178D+00 0.304D+00 0.518D+00
 Gap=     0.189 Goal=   None    Shift=    0.000
 RMSDP=2.58D-03 MaxDP=4.83D-02 DE=-2.50D-01 OVMax= 8.64D-02

 Cycle   4  Pass 1  IDiag  1:
 E= -706.376876577670     Delta-E=       -0.049178804735 Rises=F Damp=F
 DIIS: error= 5.25D-03 at cycle   4 NSaved=   4.
 NSaved= 4 IEnMin= 4 EnMin= -706.376876577670     IErMin= 4 ErrMin= 5.25D-03
 ErrMax= 5.25D-03  0.00D+00 EMaxC= 1.00D-01 BMatC= 7.81D-03 BMatP= 5.59D-02
 IDIUse=3 WtCom= 9.47D-01 WtEn= 5.25D-02
 Coeff-Com:  0.545D-01 0.102D+00 0.288D+00 0.556D+00
 Coeff-En:   0.000D+00 0.000D+00 0.908D-01 0.909D+00
 Coeff:      0.516D-01 0.962D-01 0.277D+00 0.575D+00
 Gap=     0.179 Goal=   None    Shift=    0.000
 RMSDP=9.65D-04 MaxDP=2.02D-02 DE=-4.92D-02 OVMax= 2.98D-02

 Cycle   5  Pass 1  IDiag  1:
 E= -706.381390162598     Delta-E=       -0.004513584928 Rises=F Damp=F
 DIIS: error= 2.55D-03 at cycle   5 NSaved=   5.
 NSaved= 5 IEnMin= 5 EnMin= -706.381390162598     IErMin= 5 ErrMin= 2.55D-03
 ErrMax= 2.55D-03  0.00D+00 EMaxC= 1.00D-01 BMatC= 2.42D-03 BMatP= 7.81D-03
 IDIUse=3 WtCom= 9.75D-01 WtEn= 2.55D-02
 Coeff-Com:  0.360D-02 0.140D-01 0.121D+00 0.426D+00 0.436D+00
 Coeff-En:   0.000D+00 0.000D+00 0.000D+00 0.275D+00 0.725D+00
 Coeff:      0.351D-02 0.137D-01 0.118D+00 0.422D+00 0.443D+00
 Gap=     0.179 Goal=   None    Shift=    0.000
 RMSDP=4.66D-04 MaxDP=9.00D-03 DE=-4.51D-03 OVMax= 1.65D-02

 Cycle   6  Pass 1  IDiag  1:
 E= -706.383517952831     Delta-E=       -0.002127790233 Rises=F Damp=F
 DIIS: error= 4.90D-04 at cycle   6 NSaved=   6.
 NSaved= 6 IEnMin= 6 EnMin= -706.383517952831     IErMin= 6 ErrMin= 4.90D-04
 ErrMax= 4.90D-04  0.00D+00 EMaxC= 1.00D-01 BMatC= 1.13D-04 BMatP= 2.42D-03
 IDIUse=3 WtCom= 9.95D-01 WtEn= 4.90D-03
 Coeff-Com: -0.793D-03 0.631D-03 0.434D-01 0.178D+00 0.257D+00 0.522D+00
 Coeff-En:   0.000D+00 0.000D+00 0.000D+00 0.000D+00 0.000D+00 0.100D+01
 Coeff:     -0.789D-03 0.628D-03 0.432D-01 0.177D+00 0.256D+00 0.524D+00
 Gap=     0.179 Goal=   None    Shift=    0.000
 RMSDP=9.75D-05 MaxDP=2.56D-03 DE=-2.13D-03 OVMax= 2.59D-03

 Cycle   7  Pass 1  IDiag  1:
 E= -706.383624868317     Delta-E=       -0.000106915485 Rises=F Damp=F
 DIIS: error= 1.23D-04 at cycle   7 NSaved=   7.
 NSaved= 7 IEnMin= 7 EnMin= -706.383624868317     IErMin= 7 ErrMin= 1.23D-04
 ErrMax= 1.23D-04  0.00D+00 EMaxC= 1.00D-01 BMatC= 4.96D-06 BMatP= 1.13D-04
 IDIUse=3 WtCom= 9.99D-01 WtEn= 1.23D-03
 Coeff-Com: -0.160D-03-0.162D-02 0.857D-02 0.351D-01 0.756D-01 0.222D+00
 Coeff-Com:  0.661D+00
 Coeff-En:   0.000D+00 0.000D+00 0.000D+00 0.000D+00 0.000D+00 0.000D+00
 Coeff-En:   0.100D+01
 Coeff:     -0.160D-03-0.162D-02 0.856D-02 0.351D-01 0.755D-01 0.221D+00
 Coeff:      0.661D+00
 Gap=     0.179 Goal=   None    Shift=    0.000
 RMSDP=3.92D-05 MaxDP=8.97D-04 DE=-1.07D-04 OVMax= 8.69D-04

 Cycle   8  Pass 1  IDiag  1:
 E= -706.383629149032     Delta-E=       -0.000004280716 Rises=F Damp=F
 DIIS: error= 4.35D-05 at cycle   8 NSaved=   8.
 NSaved= 8 IEnMin= 8 EnMin= -706.383629149032     IErMin= 8 ErrMin= 4.35D-05
 ErrMax= 4.35D-05  0.00D+00 EMaxC= 1.00D-01 BMatC= 8.66D-07 BMatP= 4.96D-06
 IDIUse=1 WtCom= 1.00D+00 WtEn= 0.00D+00
 Coeff-Com:  0.416D-04-0.107D-02 0.225D-02 0.819D-02 0.273D-01 0.905D-01
 Coeff-Com:  0.376D+00 0.497D+00
 Coeff:      0.416D-04-0.107D-02 0.225D-02 0.819D-02 0.273D-01 0.905D-01
 Coeff:      0.376D+00 0.497D+00
 Gap=     0.179 Goal=   None    Shift=    0.000
 RMSDP=1.15D-05 MaxDP=3.91D-04 DE=-4.28D-06 OVMax= 4.19D-04

 Cycle   9  Pass 1  IDiag  1:
 E= -706.383630029350     Delta-E=       -0.000000880318 Rises=F Damp=F
 DIIS: error= 1.90D-05 at cycle   9 NSaved=   9.
 NSaved= 9 IEnMin= 9 EnMin= -706.383630029350     IErMin= 9 ErrMin= 1.90D-05
 ErrMax= 1.90D-05  0.00D+00 EMaxC= 1.00D-01 BMatC= 8.06D-08 BMatP= 8.66D-07
 IDIUse=1 WtCom= 1.00D+00 WtEn= 0.00D+00
 Coeff-Com:  0.127D-03-0.319D-03-0.415D-03-0.266D-02-0.124D-03 0.244D-02
 Coeff-Com:  0.443D-01 0.225D+00 0.731D+00
 Coeff:      0.127D-03-0.319D-03-0.415D-03-0.266D-02-0.124D-03 0.244D-02
 Coeff:      0.443D-01 0.225D+00 0.731D+00
 Gap=     0.179 Goal=   None    Shift=    0.000
 RMSDP=4.27D-06 MaxDP=1.28D-04 DE=-8.80D-07 OVMax= 1.38D-04

 Cycle  10  Pass 1  IDiag  1:
 E= -706.383630127228     Delta-E=       -0.000000097878 Rises=F Damp=F
 DIIS: error= 3.35D-06 at cycle  10 NSaved=  10.
 NSaved=10 IEnMin=10 EnMin= -706.383630127228     IErMin=10 ErrMin= 3.35D-06
 ErrMax= 3.35D-06  0.00D+00 EMaxC= 1.00D-01 BMatC= 3.47D-09 BMatP= 8.06D-08
 IDIUse=1 WtCom= 1.00D+00 WtEn= 0.00D+00
 Coeff-Com:  0.501D-04-0.102D-03-0.199D-03-0.111D-02-0.826D-03-0.257D-02
 Coeff-Com: -0.510D-04 0.699D-01 0.324D+00 0.610D+00
 Coeff:      0.501D-04-0.102D-03-0.199D-03-0.111D-02-0.826D-03-0.257D-02
 Coeff:     -0.510D-04 0.699D-01 0.324D+00 0.610D+00
 Gap=     0.179 Goal=   None    Shift=    0.000
 RMSDP=9.03D-07 MaxDP=2.72D-05 DE=-9.79D-08 OVMax= 4.32D-05

 Cycle  11  Pass 1  IDiag  1:
 E= -706.383630131551     Delta-E=       -0.000000004322 Rises=F Damp=F
 DIIS: error= 9.76D-07 at cycle  11 NSaved=  11.
 NSaved=11 IEnMin=11 EnMin= -706.383630131551     IErMin=11 ErrMin= 9.76D-07
 ErrMax= 9.76D-07  0.00D+00 EMaxC= 1.00D-01 BMatC= 4.11D-10 BMatP= 3.47D-09
 IDIUse=1 WtCom= 1.00D+00 WtEn= 0.00D+00
 Coeff-Com:  0.547D-05 0.584D-05-0.491D-04-0.174D-03-0.544D-03-0.218D-02
 Coeff-Com: -0.814D-02-0.771D-02 0.302D-01 0.271D+00 0.717D+00
 Coeff:      0.547D-05 0.584D-05-0.491D-04-0.174D-03-0.544D-03-0.218D-02
 Coeff:     -0.814D-02-0.771D-02 0.302D-01 0.271D+00 0.717D+00
 Gap=     0.179 Goal=   None    Shift=    0.000
 RMSDP=4.07D-07 MaxDP=1.11D-05 DE=-4.32D-09 OVMax= 5.67D-06

 Cycle  12  Pass 1  IDiag  1:
 E= -706.383630132083     Delta-E=       -0.000000000533 Rises=F Damp=F
 DIIS: error= 1.49D-07 at cycle  12 NSaved=  12.
 NSaved=12 IEnMin=12 EnMin= -706.383630132083     IErMin=12 ErrMin= 1.49D-07
 ErrMax= 1.49D-07  0.00D+00 EMaxC= 1.00D-01 BMatC= 5.68D-12 BMatP= 4.11D-10
 IDIUse=1 WtCom= 1.00D+00 WtEn= 0.00D+00
 Coeff-Com: -0.205D-05 0.543D-05-0.156D-05 0.183D-04-0.490D-04-0.264D-03
 Coeff-Com: -0.104D-02-0.474D-02-0.820D-02 0.282D-01 0.108D+00 0.878D+00
 Coeff:     -0.205D-05 0.543D-05-0.156D-05 0.183D-04-0.490D-04-0.264D-03
 Coeff:     -0.104D-02-0.474D-02-0.820D-02 0.282D-01 0.108D+00 0.878D+00
 Gap=     0.179 Goal=   None    Shift=    0.000
 RMSDP=5.32D-08 MaxDP=9.80D-07 DE=-5.33D-10 OVMax= 2.02D-06

 Cycle  13  Pass 1  IDiag  1:
 E= -706.383630132095     Delta-E=       -0.000000000012 Rises=F Damp=F
 DIIS: error= 2.82D-08 at cycle  13 NSaved=  13.
 NSaved=13 IEnMin=13 EnMin= -706.383630132095     IErMin=13 ErrMin= 2.82D-08
 ErrMax= 2.82D-08  0.00D+00 EMaxC= 1.00D-01 BMatC= 2.66D-13 BMatP= 5.68D-12
 IDIUse=1 WtCom= 1.00D+00 WtEn= 0.00D+00
 Coeff-Com: -0.619D-06 0.420D-06 0.100D-05 0.661D-05 0.183D-04 0.622D-04
 Coeff-Com:  0.326D-03-0.210D-03-0.272D-02-0.760D-02-0.250D-01 0.109D+00
 Coeff-Com:  0.926D+00
 Coeff:     -0.619D-06 0.420D-06 0.100D-05 0.661D-05 0.183D-04 0.622D-04
 Coeff:      0.326D-03-0.210D-03-0.272D-02-0.760D-02-0.250D-01 0.109D+00
 Coeff:      0.926D+00
 Gap=     0.179 Goal=   None    Shift=    0.000
 RMSDP=1.56D-08 MaxDP=4.72D-07 DE=-1.18D-11 OVMax= 4.02D-07

 Cycle  14  Pass 1  IDiag  1:
 E= -706.383630132096     Delta-E=       -0.000000000001 Rises=F Damp=F
 DIIS: error= 8.68D-09 at cycle  14 NSaved=  14.
 NSaved=14 IEnMin=14 EnMin= -706.383630132096     IErMin=14 ErrMin= 8.68D-09
 ErrMax= 8.68D-09  0.00D+00 EMaxC= 1.00D-01 BMatC= 1.05D-14 BMatP= 2.66D-13
 IDIUse=1 WtCom= 1.00D+00 WtEn= 0.00D+00
 Coeff-Com: -0.693D-07-0.519D-07 0.316D-06 0.133D-05 0.567D-05 0.212D-04
 Coeff-Com:  0.104D-03 0.502D-04-0.458D-03-0.255D-02-0.914D-02-0.132D-02
 Coeff-Com:  0.221D+00 0.792D+00
 Coeff:     -0.693D-07-0.519D-07 0.316D-06 0.133D-05 0.567D-05 0.212D-04
 Coeff:      0.104D-03 0.502D-04-0.458D-03-0.255D-02-0.914D-02-0.132D-02
 Coeff:      0.221D+00 0.792D+00
 Gap=     0.179 Goal=   None    Shift=    0.000
 RMSDP=2.81D-09 MaxDP=7.90D-08 DE=-9.09D-13 OVMax= 7.44D-08

 Error on total polarization charges =  0.02254
 SCF Done:  E(RB3LYP) =  -706.383630132     A.U. after   14 cycles
            NFock= 14  Conv=0.28D-08     -V/T= 2.0063
 KE= 7.019844204322D+02 PE=-2.138444398050D+03 EE= 4.996792514416D+02
 SMD-CDS (non-electrostatic) energy       (kcal/mol) =       0.10
 (included in total energy above)
 Leave Link  502 at Wed Jan  8 01:05:50 2020, MaxMem=  4294967296 cpu:             522.2 elap:              41.5
 (Enter /home/cwagen/sw/g16/g16/l601.exe)
 Copying SCF densities to generalized density rwf, IOpCl= 0 IROHF=0.

 **********************************************************************

            Population analysis using the SCF density.

 **********************************************************************

 Orbital symmetries:
       Occupied  (A) (A) (A) (A) (A) (A) (A) (A) (A) (A) (A) (A)
                 (A) (A) (A) (A) (A) (A) (A) (A) (A) (A) (A) (A)
                 (A) (A) (A)
       Virtual   (A) (A) (A) (A) (A) (A) (A) (A) (A) (A) (A) (A)
                 (A) (A) (A) (A) (A) (A) (A) (A) (A) (A) (A) (A)
                 (A) (A) (A) (A) (A) (A) (A) (A) (A) (A) (A) (A)
                 (A) (A) (A) (A) (A) (A) (A) (A) (A) (A) (A) (A)
                 (A) (A) (A) (A) (A) (A) (A) (A) (A) (A) (A) (A)
                 (A) (A) (A) (A) (A) (A) (A) (A) (A) (A) (A) (A)
                 (A) (A) (A) (A) (A) (A) (A) (A) (A) (A) (A) (A)
                 (A) (A) (A) (A) (A) (A) (A) (A) (A) (A) (A) (A)
                 (A)
 The electronic state is 1-A.
 Alpha  occ. eigenvalues -- -101.47147 -19.14977 -14.30986 -10.33641 -10.19538
 Alpha  occ. eigenvalues --  -10.19059  -9.38463  -7.14587  -7.14064  -7.14058
 Alpha  occ. eigenvalues --   -1.00240  -0.86926  -0.73269  -0.71434  -0.54173
 Alpha  occ. eigenvalues --   -0.45344  -0.42487  -0.41289  -0.38576  -0.34963
 Alpha  occ. eigenvalues --   -0.34810  -0.31110  -0.30991  -0.26093  -0.25649
 Alpha  occ. eigenvalues --   -0.25272  -0.24902
 Alpha virt. eigenvalues --   -0.07021   0.00561   0.03448   0.04801   0.05036
 Alpha virt. eigenvalues --    0.06384   0.06759   0.07754   0.08959   0.09726
 Alpha virt. eigenvalues --    0.10047   0.10192   0.11206   0.12130   0.13431
 Alpha virt. eigenvalues --    0.14257   0.15029   0.16563   0.17196   0.21036
 Alpha virt. eigenvalues --    0.23225   0.24209   0.24600   0.25851   0.26226
 Alpha virt. eigenvalues --    0.27087   0.28339   0.29570   0.32665   0.33759
 Alpha virt. eigenvalues --    0.35555   0.37841   0.42260   0.60836   0.61966
 Alpha virt. eigenvalues --    0.63982   0.66137   0.68113   0.68743   0.71512
 Alpha virt. eigenvalues --    0.73910   0.74984   0.77339   0.79609   0.80739
 Alpha virt. eigenvalues --    0.82617   0.88668   0.92106   0.94669   0.95421
 Alpha virt. eigenvalues --    0.96630   0.98595   0.99474   1.02449   1.02909
 Alpha virt. eigenvalues --    1.05285   1.08551   1.14410   1.18169   1.23665
 Alpha virt. eigenvalues --    1.30306   1.32292   1.34591   1.44794   1.48387
 Alpha virt. eigenvalues --    1.50262   1.55360   1.56949   1.57337   1.57854
 Alpha virt. eigenvalues --    1.63026   1.69367   1.78820   1.83539   1.90544
 Alpha virt. eigenvalues --    1.91954   1.98396   1.99436   2.00593   2.12727
 Alpha virt. eigenvalues --    2.20025   2.24921   2.29605   2.49388   2.50275
 Alpha virt. eigenvalues --    2.62448   2.64443   2.68880   2.73327   2.97991
 Alpha virt. eigenvalues --    3.07843   4.04657   4.15373   4.28158   4.31457
 Alpha virt. eigenvalues --    4.37786   4.47386
          Condensed to atoms (all electrons):
               1          2          3          4          5          6
     1  C    5.060415   0.560065   0.220234  -0.060900  -0.052981  -0.011865
     2  O    0.560065   8.127320  -0.150044   0.008462  -0.001590  -0.010130
     3  C    0.220234  -0.150044   5.695714   0.370225   0.373669   0.376202
     4  H   -0.060900   0.008462   0.370225   0.471313  -0.023144  -0.027718
     5  H   -0.052981  -0.001590   0.373669  -0.023144   0.464447  -0.023753
     6  H   -0.011865  -0.010130   0.376202  -0.027718  -0.023753   0.455798
     7  Cl   0.057281  -0.047021  -0.055212   0.005522  -0.002238   0.001929
     8  C   -0.200610  -0.123081  -0.132904   0.014845   0.019427  -0.019101
     9  N   -0.020924  -0.004005   0.000714  -0.000865  -0.000045  -0.000182
               7          8          9
     1  C    0.057281  -0.200610  -0.020924
     2  O   -0.047021  -0.123081  -0.004005
     3  C   -0.055212  -0.132904   0.000714
     4  H    0.005522   0.014845  -0.000865
     5  H   -0.002238   0.019427  -0.000045
     6  H    0.001929  -0.019101  -0.000182
     7  Cl  17.602570  -0.011009  -0.009255
     8  C   -0.011009   5.815761   0.626672
     9  N   -0.009255   0.626672   7.013322
 Mulliken charges:
               1
     1  C    0.449284
     2  O   -0.359975
     3  C   -0.698599
     4  H    0.242260
     5  H    0.246208
     6  H    0.258820
     7  Cl  -0.542567
     8  C    0.010000
     9  N   -0.605432
 Sum of Mulliken charges =  -1.00000
 Mulliken charges with hydrogens summed into heavy atoms:
               1
     1  C    0.449284
     2  O   -0.359975
     3  C    0.048690
     7  Cl  -0.542567
     8  C    0.010000
     9  N   -0.605432
 Electronic spatial extent (au):  <R**2>=            896.8796
 Charge=             -1.0000 electrons
 Dipole moment (field-independent basis, Debye):
    X=             -0.7218    Y=              5.2804    Z=             -2.9268  Tot=              6.0803
 Quadrupole moment (field-independent basis, Debye-Ang):
   XX=            -72.1984   YY=            -51.6312   ZZ=            -49.3274
   XY=              5.1439   XZ=             -0.5343   YZ=             -5.1838
 Traceless Quadrupole moment (field-independent basis, Debye-Ang):
   XX=            -14.4794   YY=              6.0878   ZZ=              8.3916
   XY=              5.1439   XZ=             -0.5343   YZ=             -5.1838
 Octapole moment (field-independent basis, Debye-Ang**2):
  XXX=            -33.8676  YYY=             20.9629  ZZZ=             -5.3643  XYY=            -11.5257
  XXY=             36.3893  XXZ=              3.2455  XZZ=             -1.7153  YZZ=             -0.1594
  YYZ=             -4.4475  XYZ=             -1.8579
 Hexadecapole moment (field-independent basis, Debye-Ang**3):
 XXXX=           -913.3871 YYYY=           -375.9026 ZZZZ=           -187.4153 XXXY=             73.1919
 XXXZ=              5.5157 YYYX=             27.9801 YYYZ=             -8.5328 ZZZX=             -0.4318
 ZZZY=             -6.1708 XXYY=           -222.9915 XXZZ=           -157.4838 YYZZ=            -96.8515
 XXYZ=             -3.9329 YYXZ=              0.7409 ZZXY=              2.5196
 N-N= 2.303970960440D+02 E-N=-2.138444398180D+03  KE= 7.019844204322D+02
 No NMR shielding tensors so no spin-rotation constants.
 Leave Link  601 at Wed Jan  8 01:05:52 2020, MaxMem=  4294967296 cpu:              16.7 elap:               1.6
 (Enter /home/cwagen/sw/g16/g16/l701.exe)
 ... and contract with generalized density number  0.
 Compute integral first derivatives.
 D1PCM: PCM CHGder 1st derivatives, ID1Alg=3 FixD1E=F DoIter=F DoCFld=F I1PDM=0.
 GePol: Maximum number of non-zero 1st derivatives   =     379
 Leave Link  701 at Wed Jan  8 01:05:57 2020, MaxMem=  4294967296 cpu:              57.5 elap:               5.3
 (Enter /home/cwagen/sw/g16/g16/l702.exe)
 L702 exits ... SP integral derivatives will be done elsewhere.
 Leave Link  702 at Wed Jan  8 01:05:57 2020, MaxMem=  4294967296 cpu:               1.0 elap:               0.2
 (Enter /home/cwagen/sw/g16/g16/l703.exe)
 Integral derivatives from FoFJK, PRISM(SPDF).
 Compute integral first derivatives, UseDBF=F ICtDFT=           0.
 Calling FoFJK, ICntrl=      2127 FMM=F ISym2X=0 I1Cent= 0 IOpClX= 0 NMat=1 NMatS=1 NMatT=0.
 FoFJK:  IHMeth= 1 ICntrl=    2127 DoSepK=F KAlg= 0 I1Cent=           0 FoldK=F
 IRaf=         0 NMat=       1 IRICut=       1 DoRegI=T DoRafI=F ISym2E= 0 IDoP0=0 IntGTp=1.
 FoFCou: FMM=F IPFlag=           0 FMFlag=      100000 FMFlg1=         800
         NFxFlg=           0 DoJE=F BraDBF=F KetDBF=F FulRan=T
         wScrn=  0.000000 ICntrl=      2127 IOpCl=  0 I1Cent=           0 NGrid=           0
         NMat0=    1 NMatS0=      1 NMatT0=    0 NMatD0=    1 NMtDS0=    0 NMtDT0=    0
 Symmetry not used in FoFCou.
 Leave Link  703 at Wed Jan  8 01:06:00 2020, MaxMem=  4294967296 cpu:              35.0 elap:               3.2
 (Enter /home/cwagen/sw/g16/g16/l716.exe)
 Dipole        =-2.83970289D-01 2.07748487D+00-1.15149683D+00
 ***** Axes restored to original set *****
 -------------------------------------------------------------------
 Center     Atomic                   Forces (Hartrees/Bohr)
 Number     Number              X              Y              Z
 -------------------------------------------------------------------
      1        6           0.037630971   -0.070916998   -0.092675428
      2        8          -0.003277795    0.056269297    0.100760317
      3        6          -0.013478493    0.024873855    0.007966794
      4        1          -0.000431388    0.001315675   -0.003224028
      5        1           0.001060515    0.001332637    0.000007462
      6        1           0.001774707    0.004751939   -0.003799467
      7       17           0.014422107   -0.016019786   -0.003615184
      8        6          -0.039277586   -0.001192821   -0.006246528
      9        7           0.001576963   -0.000413799    0.000826062
 -------------------------------------------------------------------
 Cartesian Forces:  Max     0.100760317 RMS     0.034073506
 Leave Link  716 at Wed Jan  8 01:06:01 2020, MaxMem=  4294967296 cpu:               1.1 elap:               0.1
 (Enter /home/cwagen/sw/g16/g16/l103.exe)

 GradGradGradGradGradGradGradGradGradGradGradGradGradGradGradGradGradGrad
 Berny optimization.
 FormGI is forming the generalized inverse of G from B-inverse, IUseBI=4.
 Internal  Forces:  Max     0.112409350 RMS     0.024433579
 Search for a local minimum.
 Step number   1 out of a maximum of   41
 All quantities printed in internal units (Hartrees-Bohrs-Radians)
 RMS Force = .24000D-01 SwitMx=.10000D-02 MixMth= 1
 Mixed Optimization -- RFO/linear search
 Second derivative matrix not updated -- first step.
 ITU=  0
     Eigenvalues ---    0.00230   0.04746   0.04746   0.05330   0.05908
     Eigenvalues ---    0.07453   0.10176   0.16000   0.16000   0.16000
     Eigenvalues ---    0.25000   0.25000   0.25000   0.26946   0.33918
     Eigenvalues ---    0.33999   0.34275   0.67840   1.220341000.00000
     Eigenvalues --- 1000.000001000.000001000.000001000.000001000.00000
     Eigenvalues --- 1000.000001000.000001000.000001000.000001000.00000
     Eigenvalues --- 1000.00000
 RFO step:  Lambda=-3.52913365D-02 EMin= 2.30000000D-03
 Linear search not attempted -- first point.
 Iteration  1 RMS(Cart)=  0.06946177 RMS(Int)=  0.00712506
 Iteration  2 RMS(Cart)=  0.00748339 RMS(Int)=  0.00346444
 Iteration  3 RMS(Cart)=  0.00005978 RMS(Int)=  0.00346410
 Iteration  4 RMS(Cart)=  0.00000110 RMS(Int)=  0.00346410
 Iteration  5 RMS(Cart)=  0.00000001 RMS(Int)=  0.00346410
 Iteration  1 RMS(Cart)=  0.00000000 RMS(Int)=  0.00000000
 ITry= 1 IFail=0 DXMaxC= 1.82D-01 DCOld= 1.00D+10 DXMaxT= 3.00D-01 DXLimC= 3.00D+00 Rises=F
 Variable       Old X    -DE/DX   Delta X   Delta X   Delta X     New X
                                 (Linear)    (Quad)   (Total)
    R1        2.45227  -0.11241   0.00000  -0.15750  -0.15750   2.29477
    R2        2.94503  -0.02241   0.00000  -0.07353  -0.07353   2.87150
    R3        4.53534  -0.02173   0.00000   0.00000   0.00000   4.53534
    R4        3.77945  -0.03649   0.00000   0.00000   0.00000   3.77945
    R5        2.07331  -0.00270   0.00000  -0.00720  -0.00720   2.06611
    R6        2.07468  -0.00150   0.00000  -0.00400  -0.00400   2.07068
    R7        2.06868  -0.00143   0.00000  -0.00378  -0.00378   2.06490
    R8        2.20923   0.00144   0.00000   0.00115   0.00115   2.21038
    A1        1.99667   0.04347   0.00000   0.16500   0.16022   2.15689
    A2        2.01908  -0.01738   0.00000  -0.07122  -0.06756   1.95152
    A3        1.89239  -0.00895   0.00000   0.01887   0.00578   1.89817
    A4        1.92419  -0.01906   0.00000  -0.08667  -0.08383   1.84036
    A5        1.77194   0.01306   0.00000   0.05445   0.04562   1.81757
    A6        1.83479  -0.01169   0.00000  -0.08153  -0.08098   1.75381
    A7        1.97398  -0.00170   0.00000  -0.00955  -0.00978   1.96419
    A8        1.87942   0.00101   0.00000   0.00812   0.00816   1.88758
    A9        1.90140  -0.00833   0.00000  -0.04483  -0.04508   1.85632
   A10        1.90356   0.00110   0.00000   0.00954   0.00956   1.91313
   A11        1.90837   0.00441   0.00000   0.01727   0.01675   1.92513
   A12        1.89554   0.00369   0.00000   0.02065   0.02070   1.91625
   A13        3.09684  -0.00195   0.00000  -0.02360  -0.02360   3.07325
   A14        2.90208   0.00102   0.00000   0.01237   0.01237   2.91444
    D1        3.04510   0.00615   0.00000   0.05109   0.05511   3.10021
    D2       -1.13357   0.00717   0.00000   0.06265   0.06653  -1.06704
    D3        0.91915   0.00761   0.00000   0.06748   0.07120   0.99035
    D4       -0.92685   0.00293   0.00000   0.01771   0.01722  -0.90963
    D5        1.17766   0.00395   0.00000   0.02927   0.02864   1.20630
    D6       -3.05280   0.00439   0.00000   0.03410   0.03331  -3.01949
    D7        1.01121  -0.01091   0.00000  -0.07946  -0.08256   0.92865
    D8        3.11572  -0.00990   0.00000  -0.06791  -0.07114   3.04458
    D9       -1.11475  -0.00945   0.00000  -0.06307  -0.06647  -1.18121
         Item               Value     Threshold  Converged?
 Maximum Force            0.112409     0.000450     NO 
 RMS     Force            0.024000     0.000300     NO 
 Maximum Displacement     0.182406     0.001800     NO 
 RMS     Displacement     0.068964     0.001200     NO 
 Predicted change in Energy=-1.994145D-02
 Lowest energy point so far.  Saving SCF results.
 GradGradGradGradGradGradGradGradGradGradGradGradGradGradGradGradGradGrad

 Leave Link  103 at Wed Jan  8 01:06:09 2020, MaxMem=  4294967296 cpu:              98.3 elap:               8.9
 (Enter /home/cwagen/sw/g16/g16/l202.exe)
                          Input orientation:                          
 ---------------------------------------------------------------------
 Center     Atomic      Atomic             Coordinates (Angstroms)
 Number     Number       Type             X           Y           Z
 ---------------------------------------------------------------------
      1          6           0       -0.161037   -0.388524   -0.248973
      2          8           0       -0.248944   -0.604151   -1.440777
      3          6           0       -0.350861   -1.456962    0.814695
      4          1           0       -0.191031   -1.074294    1.826331
      5          1           0       -1.370257   -1.849069    0.726539
      6          1           0        0.370080   -2.246673    0.589771
      7         17           0       -1.553183    1.444480    0.430750
      8          6           0        1.650048    0.367679    0.135902
      9          7           0        2.773960    0.684479    0.203861
 ---------------------------------------------------------------------
                    Distance matrix (angstroms):
                    1          2          3          4          5
     1  C    0.000000
     2  O    1.214339   0.000000
     3  C    1.519534   2.413468   0.000000
     4  H    2.185879   3.301270   1.093338   0.000000
     5  H    2.132376   2.739420   1.095759   1.788964   0.000000
     6  H    2.106726   2.684064   1.092699   1.793990   1.790410
     7  Cl   2.400000   3.066030   3.164073   3.185488   3.311861
     8  C    2.000000   2.652648   2.791721   2.885551   3.792765
     9  N    3.157626   3.674691   3.837108   3.810100   4.885345
                    6          7          8          9
     6  H    0.000000
     7  Cl   4.165195   0.000000
     8  C    2.946040   3.392215   0.000000
     9  N    3.810410   4.399233   1.169684   0.000000
 Stoichiometry    C3H3ClNO(1-)
 Framework group  C1[X(C3H3ClNO)]
 Deg. of freedom    21
 Full point group                 C1      NOp   1
 RotChk:  IX=0 Diff= 8.89D-02
 Largest Abelian subgroup         C1      NOp   1
 Largest concise Abelian subgroup C1      NOp   1
                         Standard orientation:                         
 ---------------------------------------------------------------------
 Center     Atomic      Atomic             Coordinates (Angstroms)
 Number     Number       Type             X           Y           Z
 ---------------------------------------------------------------------
      1          6           0        0.081248    0.635286    0.235575
      2          8           0        0.144411    1.045627    1.376737
      3          6           0        0.088056    1.540701   -0.984736
      4          1           0        0.065624    0.979749   -1.922936
      5          1           0       -0.787468    2.197119   -0.927627
      6          1           0        1.001898    2.136360   -0.920917
      7         17           0       -1.781121   -0.845720   -0.077800
      8          6           0        1.603739   -0.622465   -0.080786
      9          7           0        2.600780   -1.231731   -0.134304
 ---------------------------------------------------------------------
 Rotational constants (GHZ):           3.1532934           1.7638059           1.4397979
 Leave Link  202 at Wed Jan  8 01:06:10 2020, MaxMem=  4294967296 cpu:               2.4 elap:               0.2
 (Enter /home/cwagen/sw/g16/g16/l301.exe)
 Standard basis: 6-31+G(d) (6D, 7F)
 Ernie: Thresh=  0.10000D-02 Tol=  0.10000D-05 Strict=F.
 There are   124 symmetry adapted cartesian basis functions of A   symmetry.
 There are   124 symmetry adapted basis functions of A   symmetry.
   124 basis functions,   228 primitive gaussians,   124 cartesian basis functions
    27 alpha electrons       27 beta electrons
       nuclear repulsion energy       234.9127818047 Hartrees.
 IExCor=  402 DFT=T Ex+Corr=B3LYP ExCW=0 ScaHFX=  0.200000
 ScaDFX=  0.800000  0.720000  1.000000  0.810000 ScalE2=  1.000000  1.000000
 IRadAn=      5 IRanWt=     -1 IRanGd=            0 ICorTp=0 IEmpDi=  4
 NAtoms=    9 NActive=    9 NUniq=    9 SFac= 1.00D+00 NAtFMM=   60 NAOKFM=F Big=F
 Integral buffers will be    131072 words long.
 Raffenetti 2 integral format.
 Two-electron integral symmetry is turned on.
 ------------------------------------------------------------------------------
 Polarizable Continuum Model (PCM)
 =================================
 Model                : PCM.
 Atomic radii         : SMD-Coulomb.
 Polarization charges : Total charges.
 Charge compensation  : None.
 Solution method      : On-the-fly selection.
 Cavity type          : VdW (van der Waals Surface) (Alpha=1.000).
 Cavity algorithm     : GePol (No added spheres)
                        Default sphere list used, NSphG=    9.
                        Lebedev-Laikov grids with approx.  5.0 points / Ang**2.
                        Smoothing algorithm: York/Karplus (Gamma=1.0000).
                        Polarization charges: spherical gaussians, with
                                              point-specific exponents (IZeta= 3).
                        Self-potential: point-specific (ISelfS= 7).
                        Self-field    : sphere-specific E.n sum rule (ISelfD= 2).
 1st derivatives      : Analytical E(r).r(x)/FMM algorithm (CHGder, D1EAlg=3).
                        Cavity 1st derivative terms included.
 Solvent              : TetraHydroFuran, Eps=   7.425700 Eps(inf)=   1.974025
 ------------------------------------------------------------------------------
 Spheres list:
 ISph  on   Nord     Re0    Alpha      Xe            Ye            Ze
    1   C      1    1.8500  1.000      0.081248      0.635286      0.235575
    2   O      2    2.2940  1.000      0.144411      1.045627      1.376737
    3   C      3    1.8500  1.000      0.088056      1.540701     -0.984736
    4   H      4    1.2000  1.000      0.065624      0.979749     -1.922936
    5   H      5    1.2000  1.000     -0.787468      2.197119     -0.927627
    6   H      6    1.2000  1.000      1.001898      2.136360     -0.920917
    7  Cl      7    2.3800  1.000     -1.781121     -0.845720     -0.077800
    8   C      8    1.8500  1.000      1.603739     -0.622465     -0.080786
    9   N      9    1.8900  1.000      2.600780     -1.231731     -0.134304
 ------------------------------------------------------------------------------
 GePol: Number of generator spheres                  =       9
 GePol: Total number of spheres                      =       9
 GePol: Number of exposed spheres                    =       9 (100.00%)
 GePol: Number of points                             =    1215
 GePol: Average weight of points                     =       0.14
 GePol: Minimum weight of points                     =   0.29D-08
 GePol: Maximum weight of points                     =    0.18138
 GePol: Number of points with low weight             =      33
 GePol: Fraction of low-weight points (<1% of avg)   =       2.72%
 GePol: Cavity surface area                          =    164.489 Ang**2
 GePol: Cavity volume                                =    149.979 Ang**3
 ------------------------------------------------------------------------------
 Atomic radii for non-electrostatic terms: SMD-CDS.
 ------------------------------------------------------------------------------
 PCM non-electrostatic energy =         0.0000569339 Hartrees.
 Nuclear repulsion after PCM non-electrostatic terms =      234.9128387386 Hartrees.
 Leave Link  301 at Wed Jan  8 01:06:10 2020, MaxMem=  4294967296 cpu:               2.1 elap:               0.2
 (Enter /home/cwagen/sw/g16/g16/l302.exe)
 NPDir=0 NMtPBC=     1 NCelOv=     1 NCel=       1 NClECP=     1 NCelD=      1
         NCelK=      1 NCelE2=     1 NClLst=     1 CellRange=     0.0.
 One-electron integrals computed using PRISM.
 One-electron integral symmetry used in STVInt
 NBasis=   124 RedAO= T EigKep=  8.87D-05  NBF=   124
 NBsUse=   124 1.00D-06 EigRej= -1.00D+00 NBFU=   124
 Precomputing XC quadrature grid using
 IXCGrd= 4 IRadAn=           5 IRanWt=          -1 IRanGd=           0 AccXCQ= 0.00D+00.
 Generated NRdTot=       0 NPtTot=           0 NUsed=           0 NTot=          32
 NSgBfM=   124   124   124   124   124 MxSgAt=     9 MxSgA2=     9.
 Leave Link  302 at Wed Jan  8 01:06:13 2020, MaxMem=  4294967296 cpu:              30.5 elap:               2.8
 (Enter /home/cwagen/sw/g16/g16/l303.exe)
 DipDrv:  MaxL=1.
 Leave Link  303 at Wed Jan  8 01:06:13 2020, MaxMem=  4294967296 cpu:               3.1 elap:               0.3
 (Enter /home/cwagen/sw/g16/g16/l401.exe)
 Initial guess from the checkpoint file:  "/scratch/users/cwagen/cwagen_scan_240_200/Gau-65530.chk"
 B after Tr=     0.000000    0.000000    0.000000
         Rot=    0.999624   -0.005683   -0.003836   -0.026550 Ang=  -3.14 deg.
 Guess basis will be translated and rotated to current coordinates.
 JPrj=2 DoOrth=T DoCkMO=T.
 Generating alternative initial guess.
 ExpMin= 4.38D-02 ExpMax= 2.52D+04 ExpMxC= 3.78D+03 IAcc=2 IRadAn=         4 AccDes= 0.00D+00
 Harris functional with IExCor=  402 and IRadAn=       4 diagonalized for initial guess.
 HarFok:  IExCor=  402 AccDes= 0.00D+00 IRadAn=         4 IDoV= 1 UseB2=F ITyADJ=14
 ICtDFT=  3500011 ScaDFX=  1.000000  1.000000  1.000000  1.000000
 FoFCou: FMM=F IPFlag=           0 FMFlag=      100000 FMFlg1=           0
         NFxFlg=           0 DoJE=T BraDBF=F KetDBF=T FulRan=T
         wScrn=  0.000000 ICntrl=       500 IOpCl=  0 I1Cent=   200000004 NGrid=           0
         NMat0=    1 NMatS0=      1 NMatT0=    0 NMatD0=    1 NMtDS0=    0 NMtDT0=    0
 Petite list used in FoFCou.
 Harris En= -706.394166028695    
 Leave Link  401 at Wed Jan  8 01:06:17 2020, MaxMem=  4294967296 cpu:              46.7 elap:               3.9
 (Enter /home/cwagen/sw/g16/g16/l502.exe)
 Keep R1 ints in memory in canonical form, NReq=45236517.
 FoFCou: FMM=F IPFlag=           0 FMFlag=           0 FMFlg1=           0
         NFxFlg=           0 DoJE=F BraDBF=F KetDBF=F FulRan=T
         wScrn=  0.000000 ICntrl=       600 IOpCl=  0 I1Cent=           0 NGrid=           0
         NMat0=    1 NMatS0=   7750 NMatT0=    0 NMatD0=    1 NMtDS0=    0 NMtDT0=    0
 Symmetry not used in FoFCou.
 Two-electron integral symmetry not used.
 Closed shell SCF:
 Using DIIS extrapolation, IDIIS=  1040.
 NGot=  4294967296 LenX=  4264898079 LenY=  4264882262
 Requested convergence on RMS density matrix=1.00D-08 within 128 cycles.
 Requested convergence on MAX density matrix=1.00D-06.
 Requested convergence on             energy=1.00D-06.
 No special actions if energy rises.

 Cycle   1  Pass 1  IDiag  1:
 Inv3:  Mode=1 IEnd=     4428675.
 Iteration    1 A*A^-1 deviation from unit magnitude is 3.55D-15 for   1209.
 Iteration    1 A*A^-1 deviation from orthogonality  is 2.19D-15 for   1201    928.
 Iteration    1 A^-1*A deviation from unit magnitude is 4.00D-15 for   1209.
 Iteration    1 A^-1*A deviation from orthogonality  is 1.99D-15 for   1213    920.
 E= -706.393688026166    
 DIIS: error= 6.21D-03 at cycle   1 NSaved=   1.
 NSaved= 1 IEnMin= 1 EnMin= -706.393688026166     IErMin= 1 ErrMin= 6.21D-03
 ErrMax= 6.21D-03  0.00D+00 EMaxC= 1.00D-01 BMatC= 9.69D-03 BMatP= 9.69D-03
 IDIUse=3 WtCom= 9.38D-01 WtEn= 6.21D-02
 Coeff-Com:  0.100D+01
 Coeff-En:   0.100D+01
 Coeff:      0.100D+01
 Gap=     0.600 Goal=   None    Shift=    0.000
 GapD=    0.600 DampG=2.000 DampE=1.000 DampFc=2.0000 IDamp=-1.
 RMSDP=2.09D-03 MaxDP=3.87D-02              OVMax= 4.25D-02

 Cycle   2  Pass 1  IDiag  1:
 E= -706.408271366537     Delta-E=       -0.014583340370 Rises=F Damp=F
 DIIS: error= 1.96D-03 at cycle   2 NSaved=   2.
 NSaved= 2 IEnMin= 2 EnMin= -706.408271366537     IErMin= 2 ErrMin= 1.96D-03
 ErrMax= 1.96D-03  0.00D+00 EMaxC= 1.00D-01 BMatC= 8.30D-04 BMatP= 9.69D-03
 IDIUse=3 WtCom= 9.80D-01 WtEn= 1.96D-02
 Coeff-Com:  0.103D+00 0.897D+00
 Coeff-En:   0.000D+00 0.100D+01
 Coeff:      0.101D+00 0.899D+00
 Gap=     0.205 Goal=   None    Shift=    0.000
 RMSDP=5.97D-04 MaxDP=1.30D-02 DE=-1.46D-02 OVMax= 2.17D-02

 Cycle   3  Pass 1  IDiag  1:
 E= -706.407586814771     Delta-E=        0.000684551766 Rises=F Damp=F
 DIIS: error= 2.45D-03 at cycle   3 NSaved=   3.
 NSaved= 3 IEnMin= 2 EnMin= -706.408271366537     IErMin= 2 ErrMin= 1.96D-03
 ErrMax= 2.45D-03  0.00D+00 EMaxC= 1.00D-01 BMatC= 1.55D-03 BMatP= 8.30D-04
 IDIUse=3 WtCom= 1.68D-01 WtEn= 8.32D-01
 Coeff-Com: -0.225D-01 0.588D+00 0.434D+00
 Coeff-En:   0.000D+00 0.631D+00 0.369D+00
 Coeff:     -0.378D-02 0.624D+00 0.380D+00
 Gap=     0.199 Goal=   None    Shift=    0.000
 RMSDP=4.15D-04 MaxDP=9.17D-03 DE= 6.85D-04 OVMax= 1.52D-02

 Cycle   4  Pass 1  IDiag  1:
 E= -706.409038799517     Delta-E=       -0.001451984746 Rises=F Damp=F
 DIIS: error= 5.17D-04 at cycle   4 NSaved=   4.
 NSaved= 4 IEnMin= 4 EnMin= -706.409038799517     IErMin= 4 ErrMin= 5.17D-04
 ErrMax= 5.17D-04  0.00D+00 EMaxC= 1.00D-01 BMatC= 7.33D-05 BMatP= 8.30D-04
 IDIUse=3 WtCom= 9.95D-01 WtEn= 5.17D-03
 Coeff-Com: -0.221D-01 0.280D+00 0.234D+00 0.508D+00
 Coeff-En:   0.000D+00 0.000D+00 0.000D+00 0.100D+01
 Coeff:     -0.220D-01 0.279D+00 0.232D+00 0.511D+00
 Gap=     0.197 Goal=   None    Shift=    0.000
 RMSDP=1.13D-04 MaxDP=2.06D-03 DE=-1.45D-03 OVMax= 2.87D-03

 Cycle   5  Pass 1  IDiag  1:
 E= -706.409089153679     Delta-E=       -0.000050354162 Rises=F Damp=F
 DIIS: error= 2.29D-04 at cycle   5 NSaved=   5.
 NSaved= 5 IEnMin= 5 EnMin= -706.409089153679     IErMin= 5 ErrMin= 2.29D-04
 ErrMax= 2.29D-04  0.00D+00 EMaxC= 1.00D-01 BMatC= 1.43D-05 BMatP= 7.33D-05
 IDIUse=3 WtCom= 9.98D-01 WtEn= 2.29D-03
 Coeff-Com: -0.805D-02 0.836D-01 0.903D-01 0.312D+00 0.522D+00
 Coeff-En:   0.000D+00 0.000D+00 0.000D+00 0.173D+00 0.827D+00
 Coeff:     -0.804D-02 0.834D-01 0.901D-01 0.312D+00 0.522D+00
 Gap=     0.198 Goal=   None    Shift=    0.000
 RMSDP=5.89D-05 MaxDP=1.28D-03 DE=-5.04D-05 OVMax= 1.39D-03

 Cycle   6  Pass 1  IDiag  1:
 E= -706.409103912416     Delta-E=       -0.000014758738 Rises=F Damp=F
 DIIS: error= 5.11D-05 at cycle   6 NSaved=   6.
 NSaved= 6 IEnMin= 6 EnMin= -706.409103912416     IErMin= 6 ErrMin= 5.11D-05
 ErrMax= 5.11D-05  0.00D+00 EMaxC= 1.00D-01 BMatC= 8.76D-07 BMatP= 1.43D-05
 IDIUse=1 WtCom= 1.00D+00 WtEn= 0.00D+00
 Coeff-Com: -0.233D-02 0.175D-01 0.262D-01 0.120D+00 0.271D+00 0.568D+00
 Coeff:     -0.233D-02 0.175D-01 0.262D-01 0.120D+00 0.271D+00 0.568D+00
 Gap=     0.198 Goal=   None    Shift=    0.000
 RMSDP=1.14D-05 MaxDP=3.20D-04 DE=-1.48D-05 OVMax= 3.68D-04

 Cycle   7  Pass 1  IDiag  1:
 E= -706.409104542300     Delta-E=       -0.000000629884 Rises=F Damp=F
 DIIS: error= 4.31D-05 at cycle   7 NSaved=   7.
 NSaved= 7 IEnMin= 7 EnMin= -706.409104542300     IErMin= 7 ErrMin= 4.31D-05
 ErrMax= 4.31D-05  0.00D+00 EMaxC= 1.00D-01 BMatC= 2.73D-07 BMatP= 8.76D-07
 IDIUse=1 WtCom= 1.00D+00 WtEn= 0.00D+00
 Coeff-Com: -0.483D-03-0.302D-03 0.476D-02 0.408D-01 0.120D+00 0.390D+00
 Coeff-Com:  0.444D+00
 Coeff:     -0.483D-03-0.302D-03 0.476D-02 0.408D-01 0.120D+00 0.390D+00
 Coeff:      0.444D+00
 Gap=     0.198 Goal=   None    Shift=    0.000
 RMSDP=4.85D-06 MaxDP=1.12D-04 DE=-6.30D-07 OVMax= 2.11D-04

 Cycle   8  Pass 1  IDiag  1:
 E= -706.409104767905     Delta-E=       -0.000000225605 Rises=F Damp=F
 DIIS: error= 1.07D-05 at cycle   8 NSaved=   8.
 NSaved= 8 IEnMin= 8 EnMin= -706.409104767905     IErMin= 8 ErrMin= 1.07D-05
 ErrMax= 1.07D-05  0.00D+00 EMaxC= 1.00D-01 BMatC= 2.27D-08 BMatP= 2.73D-07
 IDIUse=1 WtCom= 1.00D+00 WtEn= 0.00D+00
 Coeff-Com:  0.101D-03-0.312D-02-0.212D-02 0.359D-02 0.254D-01 0.123D+00
 Coeff-Com:  0.264D+00 0.589D+00
 Coeff:      0.101D-03-0.312D-02-0.212D-02 0.359D-02 0.254D-01 0.123D+00
 Coeff:      0.264D+00 0.589D+00
 Gap=     0.198 Goal=   None    Shift=    0.000
 RMSDP=2.11D-06 MaxDP=4.67D-05 DE=-2.26D-07 OVMax= 4.44D-05

 Cycle   9  Pass 1  IDiag  1:
 E= -706.409104788769     Delta-E=       -0.000000020864 Rises=F Damp=F
 DIIS: error= 1.80D-06 at cycle   9 NSaved=   9.
 NSaved= 9 IEnMin= 9 EnMin= -706.409104788769     IErMin= 9 ErrMin= 1.80D-06
 ErrMax= 1.80D-06  0.00D+00 EMaxC= 1.00D-01 BMatC= 1.16D-09 BMatP= 2.27D-08
 IDIUse=1 WtCom= 1.00D+00 WtEn= 0.00D+00
 Coeff-Com:  0.784D-04-0.132D-02-0.153D-02-0.104D-02 0.303D-02 0.237D-01
 Coeff-Com:  0.820D-01 0.242D+00 0.653D+00
 Coeff:      0.784D-04-0.132D-02-0.153D-02-0.104D-02 0.303D-02 0.237D-01
 Coeff:      0.820D-01 0.242D+00 0.653D+00
 Gap=     0.198 Goal=   None    Shift=    0.000
 RMSDP=5.16D-07 MaxDP=1.49D-05 DE=-2.09D-08 OVMax= 1.94D-05

 Cycle  10  Pass 1  IDiag  1:
 E= -706.409104790128     Delta-E=       -0.000000001359 Rises=F Damp=F
 DIIS: error= 5.60D-07 at cycle  10 NSaved=  10.
 NSaved=10 IEnMin=10 EnMin= -706.409104790128     IErMin=10 ErrMin= 5.60D-07
 ErrMax= 5.60D-07  0.00D+00 EMaxC= 1.00D-01 BMatC= 1.07D-10 BMatP= 1.16D-09
 IDIUse=1 WtCom= 1.00D+00 WtEn= 0.00D+00
 Coeff-Com:  0.238D-04-0.217D-03-0.492D-03-0.757D-03-0.136D-02-0.359D-02
 Coeff-Com:  0.489D-02 0.383D-01 0.285D+00 0.679D+00
 Coeff:      0.238D-04-0.217D-03-0.492D-03-0.757D-03-0.136D-02-0.359D-02
 Coeff:      0.489D-02 0.383D-01 0.285D+00 0.679D+00
 Gap=     0.198 Goal=   None    Shift=    0.000
 RMSDP=1.57D-07 MaxDP=3.97D-06 DE=-1.36D-09 OVMax= 4.71D-06

 Cycle  11  Pass 1  IDiag  1:
 E= -706.409104790254     Delta-E=       -0.000000000126 Rises=F Damp=F
 DIIS: error= 1.50D-07 at cycle  11 NSaved=  11.
 NSaved=11 IEnMin=11 EnMin= -706.409104790254     IErMin=11 ErrMin= 1.50D-07
 ErrMax= 1.50D-07  0.00D+00 EMaxC= 1.00D-01 BMatC= 2.59D-12 BMatP= 1.07D-10
 IDIUse=1 WtCom= 1.00D+00 WtEn= 0.00D+00
 Coeff-Com:  0.281D-05 0.128D-04-0.566D-04-0.188D-03-0.580D-03-0.248D-02
 Coeff-Com: -0.362D-02-0.157D-02 0.509D-01 0.208D+00 0.750D+00
 Coeff:      0.281D-05 0.128D-04-0.566D-04-0.188D-03-0.580D-03-0.248D-02
 Coeff:     -0.362D-02-0.157D-02 0.509D-01 0.208D+00 0.750D+00
 Gap=     0.198 Goal=   None    Shift=    0.000
 RMSDP=5.65D-08 MaxDP=1.73D-06 DE=-1.26D-10 OVMax= 8.64D-07

 Cycle  12  Pass 1  IDiag  1:
 E= -706.409104790257     Delta-E=       -0.000000000003 Rises=F Damp=F
 DIIS: error= 2.45D-08 at cycle  12 NSaved=  12.
 NSaved=12 IEnMin=12 EnMin= -706.409104790257     IErMin=12 ErrMin= 2.45D-08
 ErrMax= 2.45D-08  0.00D+00 EMaxC= 1.00D-01 BMatC= 1.72D-13 BMatP= 2.59D-12
 IDIUse=1 WtCom= 1.00D+00 WtEn= 0.00D+00
 Coeff-Com: -0.160D-06 0.109D-04 0.932D-05-0.252D-04-0.927D-04-0.435D-03
 Coeff-Com: -0.121D-02-0.162D-02 0.132D-02 0.224D-01 0.194D+00 0.785D+00
 Coeff:     -0.160D-06 0.109D-04 0.932D-05-0.252D-04-0.927D-04-0.435D-03
 Coeff:     -0.121D-02-0.162D-02 0.132D-02 0.224D-01 0.194D+00 0.785D+00
 Gap=     0.198 Goal=   None    Shift=    0.000
 RMSDP=8.69D-09 MaxDP=2.21D-07 DE=-2.73D-12 OVMax= 1.58D-07

 Error on total polarization charges =  0.02330
 SCF Done:  E(RB3LYP) =  -706.409104790     A.U. after   12 cycles
            NFock= 12  Conv=0.87D-08     -V/T= 2.0059
 KE= 7.022994840899D+02 PE=-2.147788523643D+03 EE= 5.041670960246D+02
 SMD-CDS (non-electrostatic) energy       (kcal/mol) =       0.04
 (included in total energy above)
 Leave Link  502 at Wed Jan  8 01:06:49 2020, MaxMem=  4294967296 cpu:             425.5 elap:              31.9
 (Enter /home/cwagen/sw/g16/g16/l701.exe)
 ... and contract with generalized density number  0.
 Compute integral first derivatives.
 D1PCM: PCM CHGder 1st derivatives, ID1Alg=3 FixD1E=F DoIter=F DoCFld=F I1PDM=0.
 GePol: Maximum number of non-zero 1st derivatives   =     377
 Leave Link  701 at Wed Jan  8 01:06:54 2020, MaxMem=  4294967296 cpu:              54.5 elap:               4.6
 (Enter /home/cwagen/sw/g16/g16/l702.exe)
 L702 exits ... SP integral derivatives will be done elsewhere.
 Leave Link  702 at Wed Jan  8 01:06:54 2020, MaxMem=  4294967296 cpu:               1.0 elap:               0.2
 (Enter /home/cwagen/sw/g16/g16/l703.exe)
 Integral derivatives from FoFJK, PRISM(SPDF).
 Compute integral first derivatives, UseDBF=F ICtDFT=           0.
 Calling FoFJK, ICntrl=      2127 FMM=F ISym2X=0 I1Cent= 0 IOpClX= 0 NMat=1 NMatS=1 NMatT=0.
 FoFJK:  IHMeth= 1 ICntrl=    2127 DoSepK=F KAlg= 0 I1Cent=           0 FoldK=F
 IRaf=         0 NMat=       1 IRICut=       1 DoRegI=T DoRafI=F ISym2E= 0 IDoP0=0 IntGTp=1.
 FoFCou: FMM=F IPFlag=           0 FMFlag=      100000 FMFlg1=         800
         NFxFlg=           0 DoJE=F BraDBF=F KetDBF=F FulRan=T
         wScrn=  0.000000 ICntrl=      2127 IOpCl=  0 I1Cent=           0 NGrid=           0
         NMat0=    1 NMatS0=      1 NMatT0=    0 NMatD0=    1 NMtDS0=    0 NMtDT0=    0
 Symmetry not used in FoFCou.
 Leave Link  703 at Wed Jan  8 01:06:57 2020, MaxMem=  4294967296 cpu:              35.0 elap:               3.2
 (Enter /home/cwagen/sw/g16/g16/l716.exe)
 Dipole        =-2.65542930D-01 2.48383738D+00-9.72902064D-01
 ***** Axes restored to original set *****
 -------------------------------------------------------------------
 Center     Atomic                   Forces (Hartrees/Bohr)
 Number     Number              X              Y              Z
 -------------------------------------------------------------------
      1        6           0.032441043   -0.020003837   -0.033153827
      2        8          -0.005469454    0.019044118    0.033162494
      3        6          -0.006762422    0.016719627    0.005579170
      4        1           0.000240199   -0.000112193   -0.002024862
      5        1           0.000551505   -0.000034076   -0.000296801
      6        1           0.001466684   -0.000617944   -0.000414245
      7       17           0.007495535   -0.008677678   -0.001345076
      8        6          -0.031150138   -0.007053631   -0.001464969
      9        7           0.001187047    0.000735614   -0.000041885
 -------------------------------------------------------------------
 Cartesian Forces:  Max     0.033162494 RMS     0.014356886
 Leave Link  716 at Wed Jan  8 01:06:57 2020, MaxMem=  4294967296 cpu:               1.0 elap:               0.1
 (Enter /home/cwagen/sw/g16/g16/l103.exe)

 GradGradGradGradGradGradGradGradGradGradGradGradGradGradGradGradGradGrad
 Berny optimization.
 Using GEDIIS/GDIIS optimizer.
 FormGI is forming the generalized inverse of G from B-inverse, IUseBI=4.
 Internal  Forces:  Max     0.035537550 RMS     0.010299509
 Search for a local minimum.
 Step number   2 out of a maximum of   41
 All quantities printed in internal units (Hartrees-Bohrs-Radians)
 RMS Force = .88496D-02 SwitMx=.10000D-02 MixMth= 1
 Mixed Optimization -- RFO/linear search
 Update second derivatives using D2CorX and points    1    2
 DE= -2.55D-02 DEPred=-1.99D-02 R= 1.28D+00
 TightC=F SS=  1.41D+00  RLast= 3.33D-01 DXNew= 5.0454D-01 9.9946D-01
 Trust test= 1.28D+00 RLast= 3.33D-01 DXMaxT set to 5.05D-01
 ITU=  1  0
 Use linear search instead of GDIIS.
     Eigenvalues ---    0.00230   0.04746   0.04759   0.05482   0.05821
     Eigenvalues ---    0.06083   0.08878   0.15992   0.16000   0.16163
     Eigenvalues ---    0.21827   0.25000   0.25847   0.26857   0.33917
     Eigenvalues ---    0.33982   0.34308   0.59754   1.220311000.00000
     Eigenvalues --- 1000.000001000.000001000.000001000.000001000.00000
     Eigenvalues --- 1000.000001000.000001000.000001000.000001000.00000
     Eigenvalues --- 1000.00000
 RFO step:  Lambda=-1.88358912D-03 EMin= 2.30117785D-03
 Quartic linear search produced a step of  0.51052.
 Iteration  1 RMS(Cart)=  0.07160299 RMS(Int)=  0.00596346
 Iteration  2 RMS(Cart)=  0.00504607 RMS(Int)=  0.00368613
 Iteration  3 RMS(Cart)=  0.00003336 RMS(Int)=  0.00368603
 Iteration  4 RMS(Cart)=  0.00000051 RMS(Int)=  0.00368603
 Iteration  1 RMS(Cart)=  0.00000000 RMS(Int)=  0.00000000
 ITry= 1 IFail=0 DXMaxC= 1.42D-01 DCOld= 1.00D+10 DXMaxT= 5.05D-01 DXLimC= 3.00D+00 Rises=F
 Variable       Old X    -DE/DX   Delta X   Delta X   Delta X     New X
                                 (Linear)    (Quad)   (Total)
    R1        2.29477  -0.03554  -0.08041   0.00480  -0.07561   2.21916
    R2        2.87150  -0.00869  -0.03754  -0.00112  -0.03866   2.83285
    R3        4.53534  -0.01135   0.00000   0.00000   0.00000   4.53534
    R4        3.77945  -0.02981   0.00000   0.00000   0.00000   3.77945
    R5        2.06611  -0.00188  -0.00368  -0.00400  -0.00767   2.05843
    R6        2.07068  -0.00047  -0.00204   0.00033  -0.00171   2.06897
    R7        2.06490   0.00152  -0.00193   0.00900   0.00707   2.07198
    R8        2.21038   0.00134   0.00059   0.00109   0.00168   2.21206
    A1        2.15689   0.02083   0.08180   0.03475   0.11093   2.26782
    A2        1.95152  -0.00624  -0.03449  -0.00953  -0.03888   1.91264
    A3        1.89817  -0.00111   0.00295   0.04525   0.03510   1.93327
    A4        1.84036  -0.01182  -0.04280  -0.04119  -0.08047   1.75989
    A5        1.81757  -0.00115   0.02329  -0.02036  -0.00787   1.80969
    A6        1.75381  -0.00504  -0.04134  -0.02010  -0.06295   1.69086
    A7        1.96419  -0.00092  -0.00499  -0.00099  -0.00610   1.95810
    A8        1.88758   0.00024   0.00416  -0.00394   0.00024   1.88781
    A9        1.85632  -0.00070  -0.02301   0.02840   0.00526   1.86158
   A10        1.91313   0.00063   0.00488  -0.00131   0.00359   1.91671
   A11        1.92513   0.00041   0.00855  -0.00885  -0.00056   1.92457
   A12        1.91625   0.00032   0.01057  -0.01303  -0.00244   1.91381
   A13        3.07325   0.00085  -0.01205   0.06146   0.04941   3.12266
   A14        2.91444  -0.00005   0.00631  -0.01986  -0.01355   2.90089
    D1        3.10021   0.00527   0.02814  -0.00064   0.03121   3.13142
    D2       -1.06704   0.00564   0.03396  -0.00561   0.03200  -1.03504
    D3        0.99035   0.00577   0.03635  -0.00787   0.03204   1.02239
    D4       -0.90963   0.00202   0.00879  -0.02843  -0.02113  -0.93076
    D5        1.20630   0.00239   0.01462  -0.03339  -0.02033   1.18597
    D6       -3.01949   0.00252   0.01701  -0.03566  -0.02029  -3.03978
    D7        0.92865  -0.00787  -0.04215  -0.07147  -0.11562   0.81303
    D8        3.04458  -0.00750  -0.03632  -0.07644  -0.11483   2.92975
    D9       -1.18121  -0.00737  -0.03393  -0.07870  -0.11479  -1.29600
         Item               Value     Threshold  Converged?
 Maximum Force            0.035538     0.000450     NO 
 RMS     Force            0.008850     0.000300     NO 
 Maximum Displacement     0.141829     0.001800     NO 
 RMS     Displacement     0.072115     0.001200     NO 
 Predicted change in Energy=-6.390925D-03
 Lowest energy point so far.  Saving SCF results.
 GradGradGradGradGradGradGradGradGradGradGradGradGradGradGradGradGradGrad

 Leave Link  103 at Wed Jan  8 01:07:04 2020, MaxMem=  4294967296 cpu:              73.5 elap:               6.8
 (Enter /home/cwagen/sw/g16/g16/l202.exe)
                          Input orientation:                          
 ---------------------------------------------------------------------
 Center     Atomic      Atomic             Coordinates (Angstroms)
 Number     Number       Type             X           Y           Z
 ---------------------------------------------------------------------
      1          6           0       -0.132497   -0.458825   -0.298086
      2          8           0       -0.253316   -0.582633   -1.459602
      3          6           0       -0.354115   -1.450941    0.803651
      4          1           0       -0.144987   -1.028692    1.785738
      5          1           0       -1.395642   -1.785291    0.757456
      6          1           0        0.314001   -2.297043    0.603852
      7         17           0       -1.489121    1.369428    0.461561
      8          6           0        1.638816    0.355791    0.147837
      9          7           0        2.735636    0.755172    0.235694
 ---------------------------------------------------------------------
                    Distance matrix (angstroms):
                    1          2          3          4          5
     1  C    0.000000
     2  O    1.174328   0.000000
     3  C    1.499078   2.426198   0.000000
     4  H    2.160376   3.277642   1.089277   0.000000
     5  H    2.114052   2.768870   1.094852   1.787161   0.000000
     6  H    2.095685   2.742060   1.096443   1.793387   1.791190
     7  Cl   2.400000   3.004767   3.059370   3.051413   3.169943
     8  C    2.000000   2.654179   2.768782   2.789528   3.763483
     9  N    3.159889   3.687491   3.838760   3.725962   4.877873
                    6          7          8          9
     6  H    0.000000
     7  Cl   4.088337   0.000000
     8  C    3.000103   3.303009   0.000000
     9  N    3.913550   4.275149   1.170571   0.000000
 Stoichiometry    C3H3ClNO(1-)
 Framework group  C1[X(C3H3ClNO)]
 Deg. of freedom    21
 Full point group                 C1      NOp   1
 RotChk:  IX=0 Diff= 9.94D-02
 Largest Abelian subgroup         C1      NOp   1
 Largest concise Abelian subgroup C1      NOp   1
                         Standard orientation:                         
 ---------------------------------------------------------------------
 Center     Atomic      Atomic             Coordinates (Angstroms)
 Number     Number       Type             X           Y           Z
 ---------------------------------------------------------------------
      1          6           0        0.073785    0.704857    0.252487
      2          8           0        0.071536    1.075707    1.366718
      3          6           0       -0.032602    1.486652   -1.022155
      4          1           0        0.010855    0.846396   -1.902329
      5          1           0       -0.980259    2.034790   -1.008261
      6          1           0        0.803581    2.195852   -1.026664
      7         17           0       -1.673760   -0.909914   -0.061523
      8          6           0        1.607828   -0.534760   -0.079267
      9          7           0        2.593340   -1.164950   -0.122427
 ---------------------------------------------------------------------
 Rotational constants (GHZ):           3.1397261           1.8475660           1.4982505
 Leave Link  202 at Wed Jan  8 01:07:04 2020, MaxMem=  4294967296 cpu:               2.0 elap:               0.2
 (Enter /home/cwagen/sw/g16/g16/l301.exe)
 Standard basis: 6-31+G(d) (6D, 7F)
 Ernie: Thresh=  0.10000D-02 Tol=  0.10000D-05 Strict=F.
 There are   124 symmetry adapted cartesian basis functions of A   symmetry.
 There are   124 symmetry adapted basis functions of A   symmetry.
   124 basis functions,   228 primitive gaussians,   124 cartesian basis functions
    27 alpha electrons       27 beta electrons
       nuclear repulsion energy       237.9597828963 Hartrees.
 IExCor=  402 DFT=T Ex+Corr=B3LYP ExCW=0 ScaHFX=  0.200000
 ScaDFX=  0.800000  0.720000  1.000000  0.810000 ScalE2=  1.000000  1.000000
 IRadAn=      5 IRanWt=     -1 IRanGd=            0 ICorTp=0 IEmpDi=  4
 NAtoms=    9 NActive=    9 NUniq=    9 SFac= 1.00D+00 NAtFMM=   60 NAOKFM=F Big=F
 Integral buffers will be    131072 words long.
 Raffenetti 2 integral format.
 Two-electron integral symmetry is turned on.
 ------------------------------------------------------------------------------
 Polarizable Continuum Model (PCM)
 =================================
 Model                : PCM.
 Atomic radii         : SMD-Coulomb.
 Polarization charges : Total charges.
 Charge compensation  : None.
 Solution method      : On-the-fly selection.
 Cavity type          : VdW (van der Waals Surface) (Alpha=1.000).
 Cavity algorithm     : GePol (No added spheres)
                        Default sphere list used, NSphG=    9.
                        Lebedev-Laikov grids with approx.  5.0 points / Ang**2.
                        Smoothing algorithm: York/Karplus (Gamma=1.0000).
                        Polarization charges: spherical gaussians, with
                                              point-specific exponents (IZeta= 3).
                        Self-potential: point-specific (ISelfS= 7).
                        Self-field    : sphere-specific E.n sum rule (ISelfD= 2).
 1st derivatives      : Analytical E(r).r(x)/FMM algorithm (CHGder, D1EAlg=3).
                        Cavity 1st derivative terms included.
 Solvent              : TetraHydroFuran, Eps=   7.425700 Eps(inf)=   1.974025
 ------------------------------------------------------------------------------
 Spheres list:
 ISph  on   Nord     Re0    Alpha      Xe            Ye            Ze
    1   C      1    1.8500  1.000      0.073785      0.704857      0.252487
    2   O      2    2.2940  1.000      0.071536      1.075707      1.366718
    3   C      3    1.8500  1.000     -0.032602      1.486652     -1.022155
    4   H      4    1.2000  1.000      0.010855      0.846396     -1.902329
    5   H      5    1.2000  1.000     -0.980259      2.034790     -1.008261
    6   H      6    1.2000  1.000      0.803581      2.195852     -1.026664
    7  Cl      7    2.3800  1.000     -1.673760     -0.909914     -0.061523
    8   C      8    1.8500  1.000      1.607828     -0.534760     -0.079267
    9   N      9    1.8900  1.000      2.593340     -1.164950     -0.122427
 ------------------------------------------------------------------------------
 GePol: Number of generator spheres                  =       9
 GePol: Total number of spheres                      =       9
 GePol: Number of exposed spheres                    =       9 (100.00%)
 GePol: Number of points                             =    1196
 GePol: Average weight of points                     =       0.14
 GePol: Minimum weight of points                     =   0.52D-08
 GePol: Maximum weight of points                     =    0.18138
 GePol: Number of points with low weight             =      38
 GePol: Fraction of low-weight points (<1% of avg)   =       3.18%
 GePol: Cavity surface area                          =    163.041 Ang**2
 GePol: Cavity volume                                =    149.153 Ang**3
 ------------------------------------------------------------------------------
 Atomic radii for non-electrostatic terms: SMD-CDS.
 ------------------------------------------------------------------------------
 PCM non-electrostatic energy =         0.0000572250 Hartrees.
 Nuclear repulsion after PCM non-electrostatic terms =      237.9598401213 Hartrees.
 Leave Link  301 at Wed Jan  8 01:07:04 2020, MaxMem=  4294967296 cpu:               2.0 elap:               0.2
 (Enter /home/cwagen/sw/g16/g16/l302.exe)
 NPDir=0 NMtPBC=     1 NCelOv=     1 NCel=       1 NClECP=     1 NCelD=      1
         NCelK=      1 NCelE2=     1 NClLst=     1 CellRange=     0.0.
 One-electron integrals computed using PRISM.
 One-electron integral symmetry used in STVInt
 NBasis=   124 RedAO= T EigKep=  7.45D-05  NBF=   124
 NBsUse=   124 1.00D-06 EigRej= -1.00D+00 NBFU=   124
 Precomputing XC quadrature grid using
 IXCGrd= 4 IRadAn=           5 IRanWt=          -1 IRanGd=           0 AccXCQ= 0.00D+00.
 Generated NRdTot=       0 NPtTot=           0 NUsed=           0 NTot=          32
 NSgBfM=   124   124   124   124   124 MxSgAt=     9 MxSgA2=     9.
[...]
      4        1           0.000033014    0.000026306   -0.000011936
      5        1           0.000030851   -0.000020385    0.000030538
      6        1           0.000020501   -0.000031995    0.000022550
      7       17          -0.000704242    0.001039937    0.000443414
      8        6          -0.026481553   -0.012907145   -0.006799805
      9        7          -0.000011651   -0.000007834   -0.000028183
 -------------------------------------------------------------------
 Cartesian Forces:  Max     0.027167603 RMS     0.008234699
 Leave Link  716 at Wed Jan  8 01:13:13 2020, MaxMem=  4294967296 cpu:               1.0 elap:               0.1
 (Enter /home/cwagen/sw/g16/g16/l103.exe)

 GradGradGradGradGradGradGradGradGradGradGradGradGradGradGradGradGradGrad
 Berny optimization.
 Using GEDIIS/GDIIS optimizer.
 FormGI is forming the generalized inverse of G from B-inverse, IUseBI=4.
 Internal  Forces:  Max     0.030236934 RMS     0.005436112
 Search for a local minimum.
 Step number   9 out of a maximum of   41
 All quantities printed in internal units (Hartrees-Bohrs-Radians)
 RMS Force = .35080D-04 SwitMx=.10000D-02 MixMth= 2
 Mixed Optimization -- En-DIIS/RFO-DIIS
 Swapping is turned off.
 Update second derivatives using D2CorX and points    2    3    4    5    6
                                                      7    8    9
 DE= -5.71D-06 DEPred=-2.89D-06 R= 1.98D+00
 TightC=F SS=  1.41D+00  RLast= 1.62D-02 DXNew= 1.4236D+00 4.8710D-02
 Trust test= 1.98D+00 RLast= 1.62D-02 DXMaxT set to 8.46D-01
 ITU=  1  1  1  1  1  1  1  1  0
     Eigenvalues ---    0.00281   0.01384   0.03805   0.05205   0.05622
     Eigenvalues ---    0.06040   0.07655   0.16074   0.16589   0.16812
     Eigenvalues ---    0.18896   0.25005   0.25736   0.28018   0.33972
     Eigenvalues ---    0.34024   0.35070   0.88443   1.225951000.00000
     Eigenvalues --- 1000.000001000.000001000.000001000.000001000.00000
     Eigenvalues --- 1000.000001000.000001000.000001000.000001000.00000
     Eigenvalues --- 1000.00000
 En-DIIS/RFO-DIIS/Sim-DIIS IScMMF=       -3 using points:     9    8    7    6    5
 RFO step:  Lambda=-1.11979941D-06.
 NNeg= 0 NGDIIS= 5 SimSw=  2.50D-01 Rises=F DC= -5.71D-06 SmlDif=  1.00D-05
 NRisDI= 0 DoIntr=F SqrtH=F CThrHd= 10.0 CDAdj=  3.0
 RMS Error=  0.3257194770D-03 NUsed= 5 OKEnD=F EnDIS=F
 InvSVX:  RCond= 1.26D-07 Info=           0 Equed=N FErr=  4.89D-13 BErr=  9.52D-17
 DidBck=F Rises=F RFO-DIIS coefs:    1.34730   -0.82083    0.45418    0.02190   -0.00256
 Iteration  1 RMS(Cart)=  0.00071421 RMS(Int)=  0.00000037
 Iteration  2 RMS(Cart)=  0.00000035 RMS(Int)=  0.00000022
 Iteration  1 RMS(Cart)=  0.00000000 RMS(Int)=  0.00000000
 ITry= 1 IFail=0 DXMaxC= 1.76D-03 DCOld= 1.00D+10 DXMaxT= 8.46D-01 DXLimC= 3.00D+00 Rises=F
 Variable       Old X    -DE/DX   Delta X   Delta X   Delta X     New X
                                 (Linear)    (Quad)   (Total)
    R1        2.23856  -0.00005  -0.00018   0.00008  -0.00010   2.23846
    R2        2.82356  -0.00002   0.00016  -0.00028  -0.00012   2.82344
    R3        4.53534   0.00134   0.00000   0.00000   0.00000   4.53534
    R4        3.77945  -0.03024   0.00000   0.00000   0.00000   3.77945
    R5        2.05609  -0.00001  -0.00005   0.00001  -0.00004   2.05605
    R6        2.06877  -0.00002  -0.00003  -0.00003  -0.00005   2.06872
    R7        2.07556   0.00004   0.00006   0.00005   0.00012   2.07568
    R8        2.21165  -0.00001  -0.00001   0.00001  -0.00001   2.21164
    A1        2.30559   0.00012   0.00050   0.00024   0.00073   2.30633
    A2        1.89096  -0.00005  -0.00016  -0.00018  -0.00033   1.89062
    A3        1.97325  -0.00002   0.00003  -0.00001   0.00002   1.97327
    A4        1.71758  -0.00002  -0.00039   0.00011  -0.00028   1.71729
    A5        1.82095  -0.00008  -0.00026  -0.00027  -0.00052   1.82043
    A6        1.61663   0.00002   0.00009   0.00010   0.00019   1.61682
    A7        1.94810  -0.00004  -0.00004  -0.00023  -0.00027   1.94782
    A8        1.89511   0.00004   0.00028   0.00005   0.00033   1.89544
    A9        1.86657   0.00001   0.00003  -0.00004  -0.00001   1.86657
   A10        1.92640   0.00001  -0.00006   0.00025   0.00019   1.92659
   A11        1.91691   0.00000  -0.00007  -0.00002  -0.00009   1.91682
   A12        1.90948  -0.00002  -0.00013  -0.00002  -0.00015   1.90932
   A13        3.16052  -0.00001  -0.00063   0.00005  -0.00058   3.15993
   A14        3.02059   0.00001   0.00075   0.00007   0.00083   3.02141
    D1       -3.03248   0.00000   0.00049  -0.00018   0.00031  -3.03217
    D2       -0.90507   0.00001   0.00058   0.00002   0.00060  -0.90447
    D3        1.15373   0.00001   0.00058   0.00000   0.00059   1.15432
    D4       -0.86444  -0.00001   0.00017  -0.00014   0.00003  -0.86441
    D5        1.26297   0.00000   0.00026   0.00006   0.00032   1.26329
    D6       -2.96141   0.00000   0.00027   0.00004   0.00031  -2.96110
    D7        0.79204  -0.00001   0.00012  -0.00005   0.00007   0.79211
    D8        2.91945   0.00000   0.00021   0.00015   0.00036   2.91981
    D9       -1.30493   0.00000   0.00022   0.00013   0.00035  -1.30458
         Item               Value     Threshold  Converged?
 Maximum Force            0.000123     0.000450     YES
 RMS     Force            0.000035     0.000300     YES
 Maximum Displacement     0.001761     0.001800     YES
 RMS     Displacement     0.000714     0.001200     YES
 Predicted change in Energy=-9.737181D-08
 Optimization completed.
    -- Stationary point found.
                           ----------------------------
                           !   Optimized Parameters   !
                           ! (Angstroms and Degrees)  !
 --------------------------                            --------------------------
 ! Name  Definition              Value          Derivative Info.                !
 --------------------------------------------------------------------------------
 ! R1    R(1,2)                  1.1846         -DE/DX =   -0.0001              !
 ! R2    R(1,3)                  1.4942         -DE/DX =    0.0                 !
 ! R3    R(1,7)                  2.4            -DE/DX =    0.0013              !
 ! R4    R(1,8)                  2.0            -DE/DX =   -0.0302              !
 ! R5    R(3,4)                  1.088          -DE/DX =    0.0                 !
 ! R6    R(3,5)                  1.0947         -DE/DX =    0.0                 !
 ! R7    R(3,6)                  1.0983         -DE/DX =    0.0                 !
 ! R8    R(8,9)                  1.1704         -DE/DX =    0.0                 !
 ! A1    A(2,1,3)              132.1007         -DE/DX =    0.0001              !
 ! A2    A(2,1,7)              108.3438         -DE/DX =   -0.0001              !
 ! A3    A(2,1,8)              113.0591         -DE/DX =    0.0                 !
 ! A4    A(3,1,7)               98.4099         -DE/DX =    0.0                 !
 ! A5    A(3,1,8)              104.3328         -DE/DX =   -0.0001              !
 ! A6    A(7,1,8)               92.6261         -DE/DX =    0.0                 !
 ! A7    A(1,3,4)              111.6176         -DE/DX =    0.0                 !
 ! A8    A(1,3,5)              108.5819         -DE/DX =    0.0                 !
 ! A9    A(1,3,6)              106.9468         -DE/DX =    0.0                 !
 ! A10   A(4,3,5)              110.3743         -DE/DX =    0.0                 !
 ! A11   A(4,3,6)              109.8308         -DE/DX =    0.0                 !
 ! A12   A(5,3,6)              109.4049         -DE/DX =    0.0                 !
 ! A13   L(1,8,9,6,-1)         181.0842         -DE/DX =    0.0                 !
 ! A14   L(1,8,9,6,-2)         173.0669         -DE/DX =    0.0                 !
 ! D1    D(2,1,3,4)           -173.7484         -DE/DX =    0.0                 !
 ! D2    D(2,1,3,5)            -51.8568         -DE/DX =    0.0                 !
 ! D3    D(2,1,3,6)             66.104          -DE/DX =    0.0                 !
 ! D4    D(7,1,3,4)            -49.5287         -DE/DX =    0.0                 !
 ! D5    D(7,1,3,5)             72.3629         -DE/DX =    0.0                 !
 ! D6    D(7,1,3,6)           -169.6764         -DE/DX =    0.0                 !
 ! D7    D(8,1,3,4)             45.3806         -DE/DX =    0.0                 !
 ! D8    D(8,1,3,5)            167.2722         -DE/DX =    0.0                 !
 ! D9    D(8,1,3,6)            -74.767          -DE/DX =    0.0                 !
 --------------------------------------------------------------------------------
 Lowest energy point so far.  Saving SCF results.
 Largest change from initial coordinates is atom    5       0.228 Angstoms.
 GradGradGradGradGradGradGradGradGradGradGradGradGradGradGradGradGradGrad

 Leave Link  103 at Wed Jan  8 01:13:17 2020, MaxMem=  4294967296 cpu:              57.3 elap:               4.7
 (Enter /home/cwagen/sw/g16/g16/l202.exe)
                          Input orientation:                          
 ---------------------------------------------------------------------
 Center     Atomic      Atomic             Coordinates (Angstroms)
 Number     Number       Type             X           Y           Z
 ---------------------------------------------------------------------
      1          6           0       -0.115297   -0.507645   -0.329511
      2          8           0       -0.305505   -0.592156   -1.495675
      3          6           0       -0.363328   -1.456999    0.797313
      4          1           0       -0.162297   -0.995499    1.761896
      5          1           0       -1.403229   -1.795290    0.745978
      6          1           0        0.307031   -2.314015    0.647344
      7         17           0       -1.365175    1.363092    0.506041
      8          6           0        1.637212    0.345554    0.118556
      9          7           0        2.689364    0.829923    0.286159
 ---------------------------------------------------------------------
                    Distance matrix (angstroms):
                    1          2          3          4          5
     1  C    0.000000
     2  O    1.184593   0.000000
     3  C    1.494163   2.451345   0.000000
     4  H    2.148067   3.285569   1.088034   0.000000
     5  H    2.115059   2.770838   1.094747   1.792113   0.000000
     6  H    2.096563   2.816474   1.098339   1.789128   1.789915
     7  Cl   2.400000   2.992117   3.006901   2.930365   3.167712
     8  C    2.000000   2.694288   2.777061   2.781585   3.771095
     9  N    3.167691   3.763839   3.848405   3.693499   4.883902
                    6          7          8          9
     6  H    0.000000
     7  Cl   4.041949   0.000000
     8  C    3.020315   3.193721   0.000000
     9  N    3.961099   4.095352   1.170354   0.000000
 Stoichiometry    C3H3ClNO(1-)
 Framework group  C1[X(C3H3ClNO)]
 Deg. of freedom    21
 Full point group                 C1      NOp   1
 RotChk:  IX=0 Diff= 2.03D-15
 Largest Abelian subgroup         C1      NOp   1
 Largest concise Abelian subgroup C1      NOp   1
                         Standard orientation:                         
 ---------------------------------------------------------------------
 Center     Atomic      Atomic             Coordinates (Angstroms)
 Number     Number       Type             X           Y           Z
 ---------------------------------------------------------------------
      1          6           0        0.040740    0.776831    0.241420
      2          8           0       -0.047631    1.179011    1.352142
      3          6           0       -0.147220    1.442578   -1.082956
      4          1           0       -0.088952    0.728944   -1.902193
      5          1           0       -1.118912    1.946842   -1.085138
      6          1           0        0.651813    2.189627   -1.182017
      7         17           0       -1.530745   -1.015110   -0.040326
      8          6           0        1.609538   -0.433397   -0.031014
      9          7           0        2.563059   -1.108100   -0.103849
 ---------------------------------------------------------------------
 Rotational constants (GHZ):           2.9895374           1.9678476           1.5483844
 Leave Link  202 at Wed Jan  8 01:13:18 2020, MaxMem=  4294967296 cpu:               2.3 elap:               0.2
 (Enter /home/cwagen/sw/g16/g16/l601.exe)
 Copying SCF densities to generalized density rwf, IOpCl= 0 IROHF=0.

 **********************************************************************

            Population analysis using the SCF density.

 **********************************************************************

 Orbital symmetries:
       Occupied  (A) (A) (A) (A) (A) (A) (A) (A) (A) (A) (A) (A)
                 (A) (A) (A) (A) (A) (A) (A) (A) (A) (A) (A) (A)
                 (A) (A) (A)
       Virtual   (A) (A) (A) (A) (A) (A) (A) (A) (A) (A) (A) (A)
                 (A) (A) (A) (A) (A) (A) (A) (A) (A) (A) (A) (A)
                 (A) (A) (A) (A) (A) (A) (A) (A) (A) (A) (A) (A)
                 (A) (A) (A) (A) (A) (A) (A) (A) (A) (A) (A) (A)
                 (A) (A) (A) (A) (A) (A) (A) (A) (A) (A) (A) (A)
                 (A) (A) (A) (A) (A) (A) (A) (A) (A) (A) (A) (A)
                 (A) (A) (A) (A) (A) (A) (A) (A) (A) (A) (A) (A)
                 (A) (A) (A) (A) (A) (A) (A) (A) (A) (A) (A) (A)
                 (A)
 The electronic state is 1-A.
 Alpha  occ. eigenvalues -- -101.44272 -19.16844 -14.30343 -10.33127 -10.19069
 Alpha  occ. eigenvalues --  -10.18603  -9.35719  -7.11696  -7.11381  -7.11375
 Alpha  occ. eigenvalues --   -1.07561  -0.86278  -0.75159  -0.69837  -0.54024
 Alpha  occ. eigenvalues --   -0.47458  -0.44767  -0.44504  -0.39062  -0.37306
 Alpha  occ. eigenvalues --   -0.35973  -0.30738  -0.30550  -0.27239  -0.24011
 Alpha  occ. eigenvalues --   -0.23412  -0.23362
 Alpha virt. eigenvalues --   -0.02496   0.01393   0.03013   0.05140   0.05228
 Alpha virt. eigenvalues --    0.06458   0.07039   0.07876   0.09106   0.10041
 Alpha virt. eigenvalues --    0.10276   0.10565   0.11059   0.12961   0.13681
 Alpha virt. eigenvalues --    0.14168   0.14389   0.16967   0.17552   0.21272
 Alpha virt. eigenvalues --    0.23548   0.24631   0.25108   0.25196   0.26544
 Alpha virt. eigenvalues --    0.28087   0.28907   0.29805   0.33394   0.34815
 Alpha virt. eigenvalues --    0.37527   0.41810   0.46850   0.61228   0.63210
 Alpha virt. eigenvalues --    0.64883   0.65223   0.68373   0.70969   0.72212
 Alpha virt. eigenvalues --    0.74913   0.75912   0.78814   0.79981   0.82082
 Alpha virt. eigenvalues --    0.82734   0.89247   0.94087   0.97045   0.97426
 Alpha virt. eigenvalues --    0.98477   0.99792   1.01535   1.02130   1.03939
 Alpha virt. eigenvalues --    1.05576   1.08517   1.15423   1.18632   1.28394
 Alpha virt. eigenvalues --    1.29383   1.32765   1.34518   1.45310   1.46439
 Alpha virt. eigenvalues --    1.53499   1.55607   1.57287   1.58729   1.59222
 Alpha virt. eigenvalues --    1.64641   1.69654   1.81443   1.83427   1.88003
 Alpha virt. eigenvalues --    1.91750   1.99761   2.00518   2.04998   2.16017
 Alpha virt. eigenvalues --    2.25004   2.26032   2.41836   2.54435   2.58192
 Alpha virt. eigenvalues --    2.63812   2.68406   2.72915   2.91016   3.10028
 Alpha virt. eigenvalues --    3.13812   4.08726   4.19979   4.29276   4.37543
 Alpha virt. eigenvalues --    4.40617   4.50293
          Condensed to atoms (all electrons):
               1          2          3          4          5          6
     1  C    5.343539   0.594915   0.068443  -0.076585  -0.063821  -0.002951
     2  O    0.594915   7.983973  -0.110745   0.007349  -0.000359  -0.004989
     3  C    0.068443  -0.110745   5.765440   0.400717   0.375832   0.346652
     4  H   -0.076585   0.007349   0.400717   0.439969  -0.020844  -0.024331
     5  H   -0.063821  -0.000359   0.375832  -0.020844   0.454172  -0.023442
     6  H   -0.002951  -0.004989   0.346652  -0.024331  -0.023442   0.465060
     7  Cl   0.176977  -0.080597  -0.104379  -0.001583  -0.005704   0.006317
     8  C   -0.355628  -0.119936  -0.129401   0.009123   0.024801  -0.020091
     9  N   -0.013853  -0.000344  -0.004468   0.000060  -0.000086  -0.000757
               7          8          9
     1  C    0.176977  -0.355628  -0.013853
     2  O   -0.080597  -0.119936  -0.000344
     3  C   -0.104379  -0.129401  -0.004468
     4  H   -0.001583   0.009123   0.000060
     5  H   -0.005704   0.024801  -0.000086
     6  H    0.006317  -0.020091  -0.000757
     7  Cl  17.744748  -0.075659  -0.014703
     8  C   -0.075659   6.000613   0.621118
     9  N   -0.014703   0.621118   7.048388
 Mulliken charges:
               1
     1  C    0.328963
     2  O   -0.269268
     3  C   -0.608091
     4  H    0.266125
     5  H    0.259451
     6  H    0.258531
     7  Cl  -0.645418
     8  C    0.045061
     9  N   -0.635354
 Sum of Mulliken charges =  -1.00000
 Mulliken charges with hydrogens summed into heavy atoms:
               1
     1  C    0.328963
     2  O   -0.269268
     3  C    0.176016
     7  Cl  -0.645418
     8  C    0.045061
     9  N   -0.635354
 Electronic spatial extent (au):  <R**2>=            823.7807
 Charge=             -1.0000 electrons
 Dipole moment (field-independent basis, Debye):
    X=             -0.9849    Y=              6.9579    Z=             -2.6431  Tot=              7.5079
 Quadrupole moment (field-independent basis, Debye-Ang):
   XX=            -71.2843   YY=            -51.9171   ZZ=            -47.6894
   XY=              2.1476   XZ=              0.9333   YZ=             -4.8128
 Traceless Quadrupole moment (field-independent basis, Debye-Ang):
   XX=            -14.3207   YY=              5.0465   ZZ=              9.2742
   XY=              2.1476   XZ=              0.9333   YZ=             -4.8128
 Octapole moment (field-independent basis, Debye-Ang**2):
  XXX=            -39.9555  YYY=             23.9002  ZZZ=             -3.7793  XYY=             -5.7780
  XXY=             35.7025  XXZ=              3.3731  XZZ=             -1.2162  YZZ=              1.9024
  YYZ=             -4.5181  XYZ=             -0.3690
 Hexadecapole moment (field-independent basis, Debye-Ang**3):
 XXXX=           -799.9245 YYYY=           -382.5302 ZZZZ=           -187.0146 XXXY=             49.8868
 XXXZ=              7.1381 YYYX=             11.7142 YYYZ=             -8.1523 ZZZX=              1.0473
 ZZZY=             -4.2879 XXYY=           -200.0808 XXZZ=           -139.1646 YYZZ=            -97.7018
 XXYZ=             -3.6804 YYXZ=              1.7588 ZZXY=              0.7665
 N-N= 2.390682523995D+02 E-N=-2.156324466136D+03  KE= 7.024533307579D+02
 No NMR shielding tensors so no spin-rotation constants.
 Leave Link  601 at Wed Jan  8 01:13:19 2020, MaxMem=  4294967296 cpu:              19.2 elap:               1.8
 (Enter /home/cwagen/sw/g16/g16/l9999.exe)
 1\1\GINC-NODE041\FOpt\RB3LYP\6-31+G(d)\C3H3Cl1N1O1(1-)\CWAGEN\08-Jan-2
 020\0\\#p opt=modredundant b3lyp/6-31+g(d) scrf=(smd, solvent=tetrahyd
 rofuran)\\title\\-1,1\C,-0.1152973057,-0.5076453699,-0.3295105041\O,-0
 .3055048077,-0.5921556914,-1.4956753327\C,-0.3633283732,-1.456999029,0
 .7973125131\H,-0.1622965143,-0.9954985912,1.7618957517\H,-1.4032293936
 ,-1.7952903878,0.7459781778\H,0.3070311763,-2.3140145981,0.647343588\C
 l,-1.3651754106,1.3630921663,0.5060406849\C,1.6372116374,0.3455538506,
 0.1185558985\N,2.6893643117,0.8299228306,0.2861590327\\Version=AS64L-G
 16RevA.03\State=1-A\HF=-706.4161457\RMSD=3.971e-09\RMSF=8.235e-03\Dipo
 le=-0.7901531,-2.8245196,0.3505537\Quadrupole=-10.8452157,5.8059025,5.
 0393132,0.8205596,-0.4630245,-3.7517755\PG=C01 [X(C3H3Cl1N1O1)]\\@


 FRICTION IS A DRAG,
 AND ENTROPY AIN'T WHAT IT USED TO BE.
 Job cpu time:       0 days  1 hours 41 minutes 15.1 seconds.
 Elapsed time:       0 days  0 hours  8 minutes 16.8 seconds.
 File lengths (MBytes):  RWF=     37 Int=      0 D2E=      0 Chk=      3 Scr=      1
 Normal termination of Gaussian 16 at Wed Jan  8 01:13:20 2020.
