 Entering Gaussian System, Link 0=g16
 Input=scan_260_260.gjf
 Output=scan_260_260.out
 Initial command:
 /home/cwagen/sw/g16/g16/l1.exe "/scratch/users/cwagen/cwagen_scan_260_260/Gau-37806.inp" -scrdir="/scratch/users/cwagen/cwagen_scan_260_260/"
 Entering Link 1 = /home/cwagen/sw/g16/g16/l1.exe PID=     37807.
  
 Copyright (c) 1988,1990,1992,1993,1995,1998,2003,2009,2016,
            Gaussian, Inc.  All Rights Reserved.
  
 This is part of the Gaussian(R) 16 program.  It is based on
 the Gaussian(R) 09 system (copyright 2009, Gaussian, Inc.),
 the Gaussian(R) 03 system (copyright 2003, Gaussian, Inc.),
 the Gaussian(R) 98 system (copyright 1998, Gaussian, Inc.),
 the Gaussian(R) 94 system (copyright 1995, Gaussian, Inc.),
 the Gaussian 92(TM) system (copyright 1992, Gaussian, Inc.),
 the Gaussian 90(TM) system (copyright 1990, Gaussian, Inc.),
 the Gaussian 88(TM) system (copyright 1988, Gaussian, Inc.),
 the Gaussian 86(TM) system (copyright 1986, Carnegie Mellon
 University), and the Gaussian 82(TM) system (copyright 1983,
 Carnegie Mellon University). Gaussian is a federally registered
 trademark of Gaussian, Inc.
  
 This software contains proprietary and confidential information,
 including trade secrets, belonging to Gaussian, Inc.
  
 This software is provided under written license and may be
 used, copied, transmitted, or stored only in accord with that
 written license.
  
 The following legend is applicable only to US Government
 contracts under FAR:
  
                    RESTRICTED RIGHTS LEGEND
  
 Use, reproduction and disclosure by the US Government is
 subject to restrictions as set forth in subparagraphs (a)
 and (c) of the Commercial Computer Software - Restricted
 Rights clause in FAR 52.227-19.
  
 Gaussian, Inc.
 340 Quinnipiac St., Bldg. 40, Wallingford CT 06492
  
  
 ---------------------------------------------------------------
 Warning -- This program may not be used in any manner that
 competes with the business of Gaussian, Inc. or will provide
 assistance to any competitor of Gaussian, Inc.  The licensee
 of this program is prohibited from giving any competitor of
 Gaussian, Inc. access to this program.  By using this program,
 the user acknowledges that Gaussian, Inc. is engaged in the
 business of creating and licensing software in the field of
 computational chemistry and represents and warrants to the
 licensee that it is not a competitor of Gaussian, Inc. and that
 it will not use this program in any manner prohibited above.
 ---------------------------------------------------------------
  

 Cite this work as:
 Gaussian 16, Revision A.03,
 M. J. Frisch, G. W. Trucks, H. B. Schlegel, G. E. Scuseria, 
 M. A. Robb, J. R. Cheeseman, G. Scalmani, V. Barone, 
 G. A. Petersson, H. Nakatsuji, X. Li, M. Caricato, A. V. Marenich, 
 J. Bloino, B. G. Janesko, R. Gomperts, B. Mennucci, H. P. Hratchian, 
 J. V. Ortiz, A. F. Izmaylov, J. L. Sonnenberg, D. Williams-Young, 
 F. Ding, F. Lipparini, F. Egidi, J. Goings, B. Peng, A. Petrone, 
 T. Henderson, D. Ranasinghe, V. G. Zakrzewski, J. Gao, N. Rega, 
 G. Zheng, W. Liang, M. Hada, M. Ehara, K. Toyota, R. Fukuda, 
 J. Hasegawa, M. Ishida, T. Nakajima, Y. Honda, O. Kitao, H. Nakai, 
 T. Vreven, K. Throssell, J. A. Montgomery, Jr., J. E. Peralta, 
 F. Ogliaro, M. J. Bearpark, J. J. Heyd, E. N. Brothers, K. N. Kudin, 
 V. N. Staroverov, T. A. Keith, R. Kobayashi, J. Normand, 
 K. Raghavachari, A. P. Rendell, J. C. Burant, S. S. Iyengar, 
 J. Tomasi, M. Cossi, J. M. Millam, M. Klene, C. Adamo, R. Cammi, 
 J. W. Ochterski, R. L. Martin, K. Morokuma, O. Farkas, 
 J. B. Foresman, and D. J. Fox, Gaussian, Inc., Wallingford CT, 2016.
 
 ******************************************
 Gaussian 16:  AS64L-G16RevA.03 25-Dec-2016
                 8-Jan-2020 
 ******************************************
 %nprocshared=16
 Will use up to   16 processors via shared memory.
 %mem=32GB
 ----------------------------------------------------------------------
 #p opt=modredundant b3lyp/6-31+g(d) scrf=(smd, solvent=tetrahydrofuran
 )
 ----------------------------------------------------------------------
 1/18=120,19=15,26=3,38=1/1,3;
 2/9=110,12=2,17=6,18=5,40=1/2;
 3/5=1,6=6,7=11,11=2,25=1,30=1,70=32201,71=1,72=20,74=-5/1,2,3;
 4//1;
 5/5=2,38=5,53=20/2;
 6/7=2,8=2,9=2,10=2,28=1/1;
 7//1,2,3,16;
 1/18=20,19=15,26=3/3(2);
 2/9=110/2;
 99//99;
 2/9=110/2;
 3/5=1,6=6,7=11,11=2,25=1,30=1,70=32205,71=1,72=20,74=-5/1,2,3;
 4/5=5,16=3,69=1/1;
 5/5=2,38=5,53=20/2;
 7//1,2,3,16;
 1/18=20,19=15,26=3/3(-5);
 2/9=110/2;
 6/7=2,8=2,9=2,10=2,19=2,28=1/1;
 99/9=1/99;
 Leave Link    1 at Wed Jan  8 01:31:05 2020, MaxMem=  4294967296 cpu:               2.0 elap:               0.2
 (Enter /home/cwagen/sw/g16/g16/l101.exe)
 -----
 title
 -----
 Symbolic Z-matrix:
 Charge = -1 Multiplicity = 1
 6                    -0.19426  -0.292    -0.21291 
 8                    -0.25532  -0.66526  -1.45426 
 6                    -0.33095  -1.45422   0.81632 
 1                    -0.18039  -1.13044   1.85373 
 1                    -1.34067  -1.87301   0.71427 
 1                     0.39707  -2.23395   0.57058 
 17                   -1.75098   1.68284   0.44789 
 6                     2.21625   0.5521    0.27382 
 7                     3.35082   0.8324    0.30413 
 
 Add virtual bond connecting atoms Cl7        and C1         Dist= 4.91D+00.
 Add virtual bond connecting atoms C8         and C1         Dist= 4.91D+00.
 The following ModRedundant input section has been read:
 B       1       7 F                                                           
 B       1       8 F                                                           
 
 ITRead=  0  0  0  0  0  0  0  0  0
 MicOpt= -1 -1 -1 -1 -1 -1 -1 -1 -1
 NAtoms=      9 NQM=        9 NQMF=       0 NMMI=      0 NMMIF=      0
                NMic=       0 NMicF=      0.
                    Isotopes and Nuclear Properties:
 (Nuclear quadrupole moments (NQMom) in fm**2, nuclear magnetic moments (NMagM)
  in nuclear magnetons)

  Atom         1           2           3           4           5           6           7           8           9
 IAtWgt=          12          16          12           1           1           1          35          12          14
 AtmWgt=  12.0000000  15.9949146  12.0000000   1.0078250   1.0078250   1.0078250  34.9688527  12.0000000  14.0030740
 NucSpn=           0           0           0           1           1           1           3           0           2
 AtZEff=   0.0000000   0.0000000   0.0000000   0.0000000   0.0000000   0.0000000   0.0000000   0.0000000   0.0000000
 NQMom=    0.0000000   0.0000000   0.0000000   0.0000000   0.0000000   0.0000000  -8.1650000   0.0000000   2.0440000
 NMagM=    0.0000000   0.0000000   0.0000000   2.7928460   2.7928460   2.7928460   0.8218740   0.0000000   0.4037610
 AtZNuc=   6.0000000   8.0000000   6.0000000   1.0000000   1.0000000   1.0000000  17.0000000   6.0000000   7.0000000
 Leave Link  101 at Wed Jan  8 01:31:06 2020, MaxMem=  4294967296 cpu:               6.2 elap:               0.6
 (Enter /home/cwagen/sw/g16/g16/l103.exe)

 GradGradGradGradGradGradGradGradGradGradGradGradGradGradGradGradGradGrad
 Berny optimization.
 Initialization pass.
                           ----------------------------
                           !    Initial Parameters    !
                           ! (Angstroms and Degrees)  !
 --------------------------                            --------------------------
 ! Name  Definition              Value          Derivative Info.                !
 --------------------------------------------------------------------------------
 ! R1    R(1,2)                  1.2977         estimate D2E/DX2                !
 ! R2    R(1,3)                  1.5584         estimate D2E/DX2                !
 ! R3    R(1,7)                  2.6            Frozen                          !
 ! R4    R(1,8)                  2.6            Frozen                          !
 ! R5    R(3,4)                  1.0971         estimate D2E/DX2                !
 ! R6    R(3,5)                  1.0979         estimate D2E/DX2                !
 ! R7    R(3,6)                  1.0947         estimate D2E/DX2                !
 ! R8    R(8,9)                  1.1691         estimate D2E/DX2                !
 ! A1    A(2,1,3)              114.4006         estimate D2E/DX2                !
 ! A2    A(2,1,7)              115.6846         estimate D2E/DX2                !
 ! A3    A(2,1,8)              108.426          estimate D2E/DX2                !
 ! A4    A(3,1,7)              110.248          estimate D2E/DX2                !
 ! A5    A(3,1,8)              101.5248         estimate D2E/DX2                !
 ! A6    A(7,1,8)              105.1256         estimate D2E/DX2                !
 ! A7    A(1,3,4)              113.1005         estimate D2E/DX2                !
 ! A8    A(1,3,5)              107.683          estimate D2E/DX2                !
 ! A9    A(1,3,6)              108.9421         estimate D2E/DX2                !
 ! A10   A(4,3,5)              109.0662         estimate D2E/DX2                !
 ! A11   A(4,3,6)              109.3417         estimate D2E/DX2                !
 ! A12   A(5,3,6)              108.6067         estimate D2E/DX2                !
 ! A13   L(1,8,9,6,-1)         177.1877         estimate D2E/DX2                !
 ! A14   L(1,8,9,6,-2)         164.4688         estimate D2E/DX2                !
 ! D1    D(2,1,3,4)            174.4714         estimate D2E/DX2                !
 ! D2    D(2,1,3,5)            -64.9488         estimate D2E/DX2                !
 ! D3    D(2,1,3,6)             52.6633         estimate D2E/DX2                !
 ! D4    D(7,1,3,4)            -53.1046         estimate D2E/DX2                !
 ! D5    D(7,1,3,5)             67.4752         estimate D2E/DX2                !
 ! D6    D(7,1,3,6)           -174.9127         estimate D2E/DX2                !
 ! D7    D(8,1,3,4)             57.938          estimate D2E/DX2                !
 ! D8    D(8,1,3,5)            178.5177         estimate D2E/DX2                !
 ! D9    D(8,1,3,6)            -63.8702         estimate D2E/DX2                !
 --------------------------------------------------------------------------------
 Trust Radius=3.00D-01 FncErr=1.00D-07 GrdErr=1.00D-06 EigMax=2.50D+02 EigMin=1.00D-04
 Number of steps in this run=     41 maximum allowed number of steps=    100.
 GradGradGradGradGradGradGradGradGradGradGradGradGradGradGradGradGradGrad

 Leave Link  103 at Wed Jan  8 01:31:06 2020, MaxMem=  4294967296 cpu:               0.9 elap:               0.1
 (Enter /home/cwagen/sw/g16/g16/l202.exe)
                          Input orientation:                          
 ---------------------------------------------------------------------
 Center     Atomic      Atomic             Coordinates (Angstroms)
 Number     Number       Type             X           Y           Z
 ---------------------------------------------------------------------
      1          6           0       -0.194263   -0.291999   -0.212908
      2          8           0       -0.255321   -0.665256   -1.454255
      3          6           0       -0.330945   -1.454221    0.816316
      4          1           0       -0.180394   -1.130438    1.853734
      5          1           0       -1.340665   -1.873010    0.714272
      6          1           0        0.397068   -2.233949    0.570583
      7         17           0       -1.750985    1.682835    0.447885
      8          6           0        2.216254    0.552100    0.273822
      9          7           0        3.350825    0.832398    0.304125
 ---------------------------------------------------------------------
                    Distance matrix (angstroms):
                    1          2          3          4          5
     1  C    0.000000
     2  O    1.297687   0.000000
     3  C    1.558443   2.404928   0.000000
     4  H    2.230287   3.341377   1.097150   0.000000
     5  H    2.161827   2.709087   1.097876   1.787740   0.000000
     6  H    2.175937   2.643176   1.094698   1.788205   1.780629
     7  Cl   2.600000   3.371747   3.463145   3.515348   3.589340
     8  C    2.600000   3.252213   3.287528   3.327307   4.327450
     9  N    3.754895   4.282424   4.364217   4.327068   5.431163
                    6          7          8          9
     6  H    0.000000
     7  Cl   4.468824   0.000000
     8  C    3.340594   4.128903   0.000000
     9  N    4.265930   5.174202   1.169075   0.000000
 Stoichiometry    C3H3ClNO(1-)
 Framework group  C1[X(C3H3ClNO)]
 Deg. of freedom    21
 Full point group                 C1      NOp   1
 Largest Abelian subgroup         C1      NOp   1
 Largest concise Abelian subgroup C1      NOp   1
                         Standard orientation:                         
 ---------------------------------------------------------------------
 Center     Atomic      Atomic             Coordinates (Angstroms)
 Number     Number       Type             X           Y           Z
 ---------------------------------------------------------------------
      1          6           0       -0.080040    0.689388    0.206587
      2          8           0       -0.035111    1.304103    1.348558
      3          6           0       -0.025865    1.631028   -1.034027
      4          1           0        0.032096    1.087096   -1.985087
      5          1           0       -0.936110    2.244815   -1.026818
      6          1           0        0.841820    2.291945   -0.940883
      7         17           0       -1.996784   -1.046343   -0.064213
      8          6           0        2.115261   -0.673933   -0.079785
      9          7           0        3.176038   -1.163965   -0.042958
 ---------------------------------------------------------------------
 Rotational constants (GHZ):           2.7008317           1.3160856           1.0634203
 Leave Link  202 at Wed Jan  8 01:31:07 2020, MaxMem=  4294967296 cpu:               2.8 elap:               0.3
 (Enter /home/cwagen/sw/g16/g16/l301.exe)
 Standard basis: 6-31+G(d) (6D, 7F)
 Ernie: Thresh=  0.10000D-02 Tol=  0.10000D-05 Strict=F.
 There are   124 symmetry adapted cartesian basis functions of A   symmetry.
 There are   124 symmetry adapted basis functions of A   symmetry.
   124 basis functions,   228 primitive gaussians,   124 cartesian basis functions
    27 alpha electrons       27 beta electrons
       nuclear repulsion energy       213.6492319107 Hartrees.
 IExCor=  402 DFT=T Ex+Corr=B3LYP ExCW=0 ScaHFX=  0.200000
 ScaDFX=  0.800000  0.720000  1.000000  0.810000 ScalE2=  1.000000  1.000000
 IRadAn=      5 IRanWt=     -1 IRanGd=            0 ICorTp=0 IEmpDi=  4
 NAtoms=    9 NActive=    9 NUniq=    9 SFac= 1.00D+00 NAtFMM=   60 NAOKFM=F Big=F
 Integral buffers will be    131072 words long.
 Raffenetti 2 integral format.
 Two-electron integral symmetry is turned on.
 ------------------------------------------------------------------------------
 Polarizable Continuum Model (PCM)
 =================================
 Model                : PCM.
 Atomic radii         : SMD-Coulomb.
 Polarization charges : Total charges.
 Charge compensation  : None.
 Solution method      : On-the-fly selection.
 Cavity type          : VdW (van der Waals Surface) (Alpha=1.000).
 Cavity algorithm     : GePol (No added spheres)
                        Default sphere list used, NSphG=    9.
                        Lebedev-Laikov grids with approx.  5.0 points / Ang**2.
                        Smoothing algorithm: York/Karplus (Gamma=1.0000).
                        Polarization charges: spherical gaussians, with
                                              point-specific exponents (IZeta= 3).
                        Self-potential: point-specific (ISelfS= 7).
                        Self-field    : sphere-specific E.n sum rule (ISelfD= 2).
 1st derivatives      : Analytical E(r).r(x)/FMM algorithm (CHGder, D1EAlg=3).
                        Cavity 1st derivative terms included.
 Solvent              : TetraHydroFuran, Eps=   7.425700 Eps(inf)=   1.974025
 ------------------------------------------------------------------------------
 Spheres list:
 ISph  on   Nord     Re0    Alpha      Xe            Ye            Ze
    1   C      1    1.8500  1.000     -0.080040      0.689388      0.206587
    2   O      2    2.2940  1.000     -0.035111      1.304103      1.348558
    3   C      3    1.8500  1.000     -0.025865      1.631028     -1.034027
    4   H      4    1.2000  1.000      0.032096      1.087096     -1.985087
    5   H      5    1.2000  1.000     -0.936110      2.244815     -1.026818
    6   H      6    1.2000  1.000      0.841820      2.291945     -0.940883
    7  Cl      7    2.3800  1.000     -1.996784     -1.046343     -0.064213
    8   C      8    1.8500  1.000      2.115261     -0.673933     -0.079785
    9   N      9    1.8900  1.000      3.176038     -1.163965     -0.042958
 ------------------------------------------------------------------------------
 GePol: Number of generator spheres                  =       9
 GePol: Total number of spheres                      =       9
 GePol: Number of exposed spheres                    =       9 (100.00%)
 GePol: Number of points                             =    1343
 GePol: Average weight of points                     =       0.13
 GePol: Minimum weight of points                     =   0.15D-10
 GePol: Maximum weight of points                     =    0.18138
 GePol: Number of points with low weight             =      42
 GePol: Fraction of low-weight points (<1% of avg)   =       3.13%
 GePol: Cavity surface area                          =    180.499 Ang**2
 GePol: Cavity volume                                =    159.204 Ang**3
 ------------------------------------------------------------------------------
 Atomic radii for non-electrostatic terms: SMD-CDS.
 ------------------------------------------------------------------------------
 PCM non-electrostatic energy =         0.0009893456 Hartrees.
 Nuclear repulsion after PCM non-electrostatic terms =      213.6502212563 Hartrees.
 Leave Link  301 at Wed Jan  8 01:31:07 2020, MaxMem=  4294967296 cpu:               2.2 elap:               0.2
 (Enter /home/cwagen/sw/g16/g16/l302.exe)
 NPDir=0 NMtPBC=     1 NCelOv=     1 NCel=       1 NClECP=     1 NCelD=      1
         NCelK=      1 NCelE2=     1 NClLst=     1 CellRange=     0.0.
 One-electron integrals computed using PRISM.
 One-electron integral symmetry used in STVInt
 NBasis=   124 RedAO= T EigKep=  1.93D-04  NBF=   124
 NBsUse=   124 1.00D-06 EigRej= -1.00D+00 NBFU=   124
 Precomputing XC quadrature grid using
 IXCGrd= 4 IRadAn=           5 IRanWt=          -1 IRanGd=           0 AccXCQ= 0.00D+00.
 Generated NRdTot=       0 NPtTot=           0 NUsed=           0 NTot=          32
 NSgBfM=   124   124   124   124   124 MxSgAt=     9 MxSgA2=     9.
 Leave Link  302 at Wed Jan  8 01:31:09 2020, MaxMem=  4294967296 cpu:              24.7 elap:               2.1
 (Enter /home/cwagen/sw/g16/g16/l303.exe)
 DipDrv:  MaxL=1.
 Leave Link  303 at Wed Jan  8 01:31:09 2020, MaxMem=  4294967296 cpu:               4.4 elap:               0.5
 (Enter /home/cwagen/sw/g16/g16/l401.exe)
 ExpMin= 4.38D-02 ExpMax= 2.52D+04 ExpMxC= 3.78D+03 IAcc=3 IRadAn=         5 AccDes= 0.00D+00
 Harris functional with IExCor=  402 and IRadAn=       5 diagonalized for initial guess.
 HarFok:  IExCor=  402 AccDes= 0.00D+00 IRadAn=         5 IDoV= 1 UseB2=F ITyADJ=14
 ICtDFT=  3500011 ScaDFX=  1.000000  1.000000  1.000000  1.000000
 FoFCou: FMM=F IPFlag=           0 FMFlag=      100000 FMFlg1=           0
         NFxFlg=           0 DoJE=T BraDBF=F KetDBF=T FulRan=T
         wScrn=  0.000000 ICntrl=       500 IOpCl=  0 I1Cent=   200000004 NGrid=           0
         NMat0=    1 NMatS0=      1 NMatT0=    0 NMatD0=    1 NMtDS0=    0 NMtDT0=    0
 Petite list used in FoFCou.
 Harris En= -706.338288270268    
 JPrj=0 DoOrth=F DoCkMO=F.
 Leave Link  401 at Wed Jan  8 01:31:12 2020, MaxMem=  4294967296 cpu:              28.4 elap:               2.5
 (Enter /home/cwagen/sw/g16/g16/l502.exe)
 Keep R1 ints in memory in canonical form, NReq=45236517.
 FoFCou: FMM=F IPFlag=           0 FMFlag=           0 FMFlg1=           0
         NFxFlg=           0 DoJE=F BraDBF=F KetDBF=F FulRan=T
         wScrn=  0.000000 ICntrl=       600 IOpCl=  0 I1Cent=           0 NGrid=           0
         NMat0=    1 NMatS0=   7750 NMatT0=    0 NMatD0=    1 NMtDS0=    0 NMtDT0=    0
 Symmetry not used in FoFCou.
 Two-electron integral symmetry not used.
 Closed shell SCF:
 Using DIIS extrapolation, IDIIS=  1040.
 NGot=  4294967296 LenX=  4264898079 LenY=  4264882262
 Requested convergence on RMS density matrix=1.00D-08 within 128 cycles.
 Requested convergence on MAX density matrix=1.00D-06.
 Requested convergence on             energy=1.00D-06.
 No special actions if energy rises.

 Cycle   1  Pass 1  IDiag  1:
 Inv3:  Mode=1 IEnd=     5410947.
 Iteration    1 A*A^-1 deviation from unit magnitude is 3.11D-15 for   1326.
 Iteration    1 A*A^-1 deviation from orthogonality  is 2.83D-15 for   1329    306.
 Iteration    1 A^-1*A deviation from unit magnitude is 3.33D-15 for   1337.
 Iteration    1 A^-1*A deviation from orthogonality  is 2.57D-15 for   1338   1179.
 E= -706.157466517072    
 DIIS: error= 2.55D-02 at cycle   1 NSaved=   1.
 NSaved= 1 IEnMin= 1 EnMin= -706.157466517072     IErMin= 1 ErrMin= 2.55D-02
 ErrMax= 2.55D-02  0.00D+00 EMaxC= 1.00D-01 BMatC= 1.95D-01 BMatP= 1.95D-01
 IDIUse=3 WtCom= 7.45D-01 WtEn= 2.55D-01
 Coeff-Com:  0.100D+01
 Coeff-En:   0.100D+01
 Coeff:      0.100D+01
 Gap=     0.106 Goal=   None    Shift=    0.000
 GapD=    0.106 DampG=1.000 DampE=0.500 DampFc=0.5000 IDamp=-1.
 Damping current iteration by 5.00D-01
 RMSDP=9.64D-03 MaxDP=1.97D-01              OVMax= 3.76D-01

 Cycle   2  Pass 1  IDiag  1:
 E= -706.107427411607     Delta-E=        0.050039105466 Rises=F Damp=T
 DIIS: error= 1.89D-02 at cycle   2 NSaved=   2.
 NSaved= 2 IEnMin= 1 EnMin= -706.157466517072     IErMin= 2 ErrMin= 1.89D-02
 ErrMax= 1.89D-02  0.00D+00 EMaxC= 1.00D-01 BMatC= 1.02D-01 BMatP= 1.95D-01
 IDIUse=3 WtCom= 8.11D-01 WtEn= 1.89D-01
 Coeff-Com:  0.401D+00 0.599D+00
 Coeff-En:   0.580D+00 0.420D+00
 Coeff:      0.435D+00 0.565D+00
 Gap=     0.100 Goal=   None    Shift=    0.000
 RMSDP=3.48D-03 MaxDP=8.30D-02 DE= 5.00D-02 OVMax= 2.69D-01

 Cycle   3  Pass 1  IDiag  1:
 E= -706.296717621719     Delta-E=       -0.189290210112 Rises=F Damp=F
 DIIS: error= 1.27D-02 at cycle   3 NSaved=   3.
 NSaved= 3 IEnMin= 3 EnMin= -706.296717621719     IErMin= 3 ErrMin= 1.27D-02
 ErrMax= 1.27D-02  0.00D+00 EMaxC= 1.00D-01 BMatC= 5.13D-02 BMatP= 1.02D-01
 IDIUse=3 WtCom= 8.73D-01 WtEn= 1.27D-01
 Coeff-Com:  0.175D+00 0.397D+00 0.428D+00
 Coeff-En:   0.000D+00 0.000D+00 0.100D+01
 Coeff:      0.153D+00 0.347D+00 0.500D+00
 Gap=     0.139 Goal=   None    Shift=    0.000
 RMSDP=2.37D-03 MaxDP=6.57D-02 DE=-1.89D-01 OVMax= 1.19D-01

 Cycle   4  Pass 1  IDiag  1:
 E= -706.332112197880     Delta-E=       -0.035394576161 Rises=F Damp=F
 DIIS: error= 8.62D-03 at cycle   4 NSaved=   4.
 NSaved= 4 IEnMin= 4 EnMin= -706.332112197880     IErMin= 4 ErrMin= 8.62D-03
 ErrMax= 8.62D-03  0.00D+00 EMaxC= 1.00D-01 BMatC= 1.45D-02 BMatP= 5.13D-02
 IDIUse=3 WtCom= 9.14D-01 WtEn= 8.62D-02
 Coeff-Com:  0.554D-01 0.112D+00 0.342D+00 0.490D+00
 Coeff-En:   0.000D+00 0.000D+00 0.260D+00 0.740D+00
 Coeff:      0.506D-01 0.103D+00 0.335D+00 0.512D+00
 Gap=     0.123 Goal=   None    Shift=    0.000
 RMSDP=1.21D-03 MaxDP=3.41D-02 DE=-3.54D-02 OVMax= 7.74D-02

 Cycle   5  Pass 1  IDiag  1:
 E= -706.343168780577     Delta-E=       -0.011056582697 Rises=F Damp=F
 DIIS: error= 2.70D-03 at cycle   5 NSaved=   5.
 NSaved= 5 IEnMin= 5 EnMin= -706.343168780577     IErMin= 5 ErrMin= 2.70D-03
 ErrMax= 2.70D-03  0.00D+00 EMaxC= 1.00D-01 BMatC= 2.03D-03 BMatP= 1.45D-02
 IDIUse=3 WtCom= 9.73D-01 WtEn= 2.70D-02
 Coeff-Com:  0.519D-02 0.105D-01 0.156D+00 0.364D+00 0.465D+00
 Coeff-En:   0.000D+00 0.000D+00 0.000D+00 0.166D+00 0.834D+00
 Coeff:      0.505D-02 0.102D-01 0.151D+00 0.358D+00 0.475D+00
 Gap=     0.129 Goal=   None    Shift=    0.000
 RMSDP=5.19D-04 MaxDP=1.25D-02 DE=-1.11D-02 OVMax= 3.59D-02

 Cycle   6  Pass 1  IDiag  1:
 E= -706.345232911932     Delta-E=       -0.002064131355 Rises=F Damp=F
 DIIS: error= 7.98D-04 at cycle   6 NSaved=   6.
 NSaved= 6 IEnMin= 6 EnMin= -706.345232911932     IErMin= 6 ErrMin= 7.98D-04
 ErrMax= 7.98D-04  0.00D+00 EMaxC= 1.00D-01 BMatC= 1.56D-04 BMatP= 2.03D-03
 IDIUse=3 WtCom= 9.92D-01 WtEn= 7.98D-03
 Coeff-Com:  0.891D-03 0.124D-02 0.711D-01 0.175D+00 0.298D+00 0.454D+00
 Coeff-En:   0.000D+00 0.000D+00 0.000D+00 0.000D+00 0.530D-01 0.947D+00
 Coeff:      0.884D-03 0.123D-02 0.705D-01 0.173D+00 0.296D+00 0.458D+00
 Gap=     0.129 Goal=   None    Shift=    0.000
 RMSDP=1.52D-04 MaxDP=5.68D-03 DE=-2.06D-03 OVMax= 6.31D-03

 Cycle   7  Pass 1  IDiag  1:
 E= -706.345411050325     Delta-E=       -0.000178138394 Rises=F Damp=F
 DIIS: error= 2.30D-04 at cycle   7 NSaved=   7.
 NSaved= 7 IEnMin= 7 EnMin= -706.345411050325     IErMin= 7 ErrMin= 2.30D-04
 ErrMax= 2.30D-04  0.00D+00 EMaxC= 1.00D-01 BMatC= 8.80D-06 BMatP= 1.56D-04
 IDIUse=3 WtCom= 9.98D-01 WtEn= 2.30D-03
 Coeff-Com:  0.255D-04-0.194D-02 0.144D-01 0.348D-01 0.865D-01 0.227D+00
 Coeff-Com:  0.640D+00
 Coeff-En:   0.000D+00 0.000D+00 0.000D+00 0.000D+00 0.000D+00 0.000D+00
 Coeff-En:   0.100D+01
 Coeff:      0.255D-04-0.193D-02 0.143D-01 0.347D-01 0.863D-01 0.226D+00
 Coeff:      0.640D+00
 Gap=     0.128 Goal=   None    Shift=    0.000
 RMSDP=3.79D-05 MaxDP=7.99D-04 DE=-1.78D-04 OVMax= 1.37D-03

 Cycle   8  Pass 1  IDiag  1:
 E= -706.345418416038     Delta-E=       -0.000007365713 Rises=F Damp=F
 DIIS: error= 1.37D-04 at cycle   8 NSaved=   8.
 NSaved= 8 IEnMin= 8 EnMin= -706.345418416038     IErMin= 8 ErrMin= 1.37D-04
 ErrMax= 1.37D-04  0.00D+00 EMaxC= 1.00D-01 BMatC= 2.17D-06 BMatP= 8.80D-06
 IDIUse=3 WtCom= 9.99D-01 WtEn= 1.37D-03
 Coeff-Com: -0.769D-04-0.120D-02 0.226D-02 0.464D-02 0.259D-01 0.931D-01
 Coeff-Com:  0.404D+00 0.472D+00
 Coeff-En:   0.000D+00 0.000D+00 0.000D+00 0.000D+00 0.000D+00 0.000D+00
 Coeff-En:   0.181D+00 0.819D+00
 Coeff:     -0.768D-04-0.120D-02 0.225D-02 0.463D-02 0.258D-01 0.930D-01
 Coeff:      0.403D+00 0.472D+00
 Gap=     0.128 Goal=   None    Shift=    0.000
 RMSDP=1.60D-05 MaxDP=4.56D-04 DE=-7.37D-06 OVMax= 9.38D-04

 Cycle   9  Pass 1  IDiag  1:
 E= -706.345420439478     Delta-E=       -0.000002023440 Rises=F Damp=F
 DIIS: error= 3.20D-05 at cycle   9 NSaved=   9.
 NSaved= 9 IEnMin= 9 EnMin= -706.345420439478     IErMin= 9 ErrMin= 3.20D-05
 ErrMax= 3.20D-05  0.00D+00 EMaxC= 1.00D-01 BMatC= 2.87D-07 BMatP= 2.17D-06
 IDIUse=1 WtCom= 1.00D+00 WtEn= 0.00D+00
 Coeff-Com: -0.557D-05-0.417D-03-0.630D-03-0.254D-02 0.499D-02 0.288D-01
 Coeff-Com:  0.179D+00 0.316D+00 0.475D+00
 Coeff:     -0.557D-05-0.417D-03-0.630D-03-0.254D-02 0.499D-02 0.288D-01
 Coeff:      0.179D+00 0.316D+00 0.475D+00
 Gap=     0.128 Goal=   None    Shift=    0.000
 RMSDP=6.12D-06 MaxDP=1.87D-04 DE=-2.02D-06 OVMax= 2.65D-04

 Cycle  10  Pass 1  IDiag  1:
 E= -706.345420785906     Delta-E=       -0.000000346428 Rises=F Damp=F
 DIIS: error= 6.26D-06 at cycle  10 NSaved=  10.
 NSaved=10 IEnMin=10 EnMin= -706.345420785906     IErMin=10 ErrMin= 6.26D-06
 ErrMax= 6.26D-06  0.00D+00 EMaxC= 1.00D-01 BMatC= 1.14D-08 BMatP= 2.87D-07
 IDIUse=1 WtCom= 1.00D+00 WtEn= 0.00D+00
 Coeff-Com: -0.139D-04-0.149D-04-0.474D-03-0.142D-02-0.279D-03 0.228D-04
 Coeff-Com:  0.143D-01 0.787D-01 0.192D+00 0.717D+00
 Coeff:     -0.139D-04-0.149D-04-0.474D-03-0.142D-02-0.279D-03 0.228D-04
 Coeff:      0.143D-01 0.787D-01 0.192D+00 0.717D+00
 Gap=     0.128 Goal=   None    Shift=    0.000
 RMSDP=1.20D-06 MaxDP=1.98D-05 DE=-3.46D-07 OVMax= 3.63D-05

 Cycle  11  Pass 1  IDiag  1:
 E= -706.345420800394     Delta-E=       -0.000000014488 Rises=F Damp=F
 DIIS: error= 1.12D-06 at cycle  11 NSaved=  11.
 NSaved=11 IEnMin=11 EnMin= -706.345420800394     IErMin=11 ErrMin= 1.12D-06
 ErrMax= 1.12D-06  0.00D+00 EMaxC= 1.00D-01 BMatC= 3.86D-10 BMatP= 1.14D-08
 IDIUse=1 WtCom= 1.00D+00 WtEn= 0.00D+00
 Coeff-Com: -0.142D-04 0.423D-04-0.633D-04-0.108D-03-0.265D-03-0.184D-02
 Coeff-Com: -0.121D-01-0.822D-02-0.471D-02 0.719D-01 0.955D+00
 Coeff:     -0.142D-04 0.423D-04-0.633D-04-0.108D-03-0.265D-03-0.184D-02
 Coeff:     -0.121D-01-0.822D-02-0.471D-02 0.719D-01 0.955D+00
 Gap=     0.128 Goal=   None    Shift=    0.000
 RMSDP=3.81D-07 MaxDP=6.70D-06 DE=-1.45D-08 OVMax= 1.46D-05

 Cycle  12  Pass 1  IDiag  1:
 E= -706.345420801033     Delta-E=       -0.000000000639 Rises=F Damp=F
 DIIS: error= 2.51D-07 at cycle  12 NSaved=  12.
 NSaved=12 IEnMin=12 EnMin= -706.345420801033     IErMin=12 ErrMin= 2.51D-07
 ErrMax= 2.51D-07  0.00D+00 EMaxC= 1.00D-01 BMatC= 1.44D-11 BMatP= 3.86D-10
 IDIUse=1 WtCom= 1.00D+00 WtEn= 0.00D+00
 Coeff-Com: -0.410D-05 0.895D-05 0.278D-05 0.222D-04-0.755D-05-0.165D-03
 Coeff-Com: -0.198D-02-0.272D-02-0.656D-02-0.204D-01 0.113D+00 0.919D+00
 Coeff:     -0.410D-05 0.895D-05 0.278D-05 0.222D-04-0.755D-05-0.165D-03
 Coeff:     -0.198D-02-0.272D-02-0.656D-02-0.204D-01 0.113D+00 0.919D+00
 Gap=     0.128 Goal=   None    Shift=    0.000
 RMSDP=6.69D-08 MaxDP=1.31D-06 DE=-6.39D-10 OVMax= 2.86D-06

 Cycle  13  Pass 1  IDiag  1:
 E= -706.345420801058     Delta-E=       -0.000000000025 Rises=F Damp=F
 DIIS: error= 6.61D-08 at cycle  13 NSaved=  13.
 NSaved=13 IEnMin=13 EnMin= -706.345420801058     IErMin=13 ErrMin= 6.61D-08
 ErrMax= 6.61D-08  0.00D+00 EMaxC= 1.00D-01 BMatC= 5.50D-13 BMatP= 1.44D-11
 IDIUse=1 WtCom= 1.00D+00 WtEn= 0.00D+00
 Coeff-Com:  0.809D-07-0.782D-06 0.347D-05 0.615D-05 0.143D-04 0.605D-04
 Coeff-Com:  0.285D-03 0.161D-03-0.767D-03-0.706D-02-0.306D-01 0.142D+00
 Coeff-Com:  0.896D+00
 Coeff:      0.809D-07-0.782D-06 0.347D-05 0.615D-05 0.143D-04 0.605D-04
 Coeff:      0.285D-03 0.161D-03-0.767D-03-0.706D-02-0.306D-01 0.142D+00
 Coeff:      0.896D+00
 Gap=     0.128 Goal=   None    Shift=    0.000
 RMSDP=1.41D-08 MaxDP=2.53D-07 DE=-2.55D-11 OVMax= 6.70D-07

 Cycle  14  Pass 1  IDiag  1:
 E= -706.345420801058     Delta-E=        0.000000000000 Rises=F Damp=F
 DIIS: error= 1.85D-08 at cycle  14 NSaved=  14.
 NSaved=14 IEnMin=13 EnMin= -706.345420801058     IErMin=14 ErrMin= 1.85D-08
 ErrMax= 1.85D-08  0.00D+00 EMaxC= 1.00D-01 BMatC= 6.33D-14 BMatP= 5.50D-13
 IDIUse=1 WtCom= 1.00D+00 WtEn= 0.00D+00
 Coeff-Com:  0.293D-06-0.633D-06 0.110D-05 0.119D-05 0.334D-05 0.140D-04
 Coeff-Com:  0.100D-03 0.741D-04 0.223D-04-0.957D-03-0.979D-02 0.620D-02
 Coeff-Com:  0.208D+00 0.796D+00
 Coeff:      0.293D-06-0.633D-06 0.110D-05 0.119D-05 0.334D-05 0.140D-04
 Coeff:      0.100D-03 0.741D-04 0.223D-04-0.957D-03-0.979D-02 0.620D-02
 Coeff:      0.208D+00 0.796D+00
 Gap=     0.128 Goal=   None    Shift=    0.000
 RMSDP=3.15D-09 MaxDP=1.05D-07 DE= 1.14D-13 OVMax= 9.71D-08

 Error on total polarization charges =  0.02430
 SCF Done:  E(RB3LYP) =  -706.345420801     A.U. after   14 cycles
            NFock= 14  Conv=0.32D-08     -V/T= 2.0064
 KE= 7.018294191853D+02 PE=-2.104083478788D+03 EE= 4.822584175453D+02
 SMD-CDS (non-electrostatic) energy       (kcal/mol) =       0.62
 (included in total energy above)
 Leave Link  502 at Wed Jan  8 01:32:00 2020, MaxMem=  4294967296 cpu:             556.2 elap:              48.3
 (Enter /home/cwagen/sw/g16/g16/l601.exe)
 Copying SCF densities to generalized density rwf, IOpCl= 0 IROHF=0.

 **********************************************************************

            Population analysis using the SCF density.

 **********************************************************************

 Orbital symmetries:
       Occupied  (A) (A) (A) (A) (A) (A) (A) (A) (A) (A) (A) (A)
                 (A) (A) (A) (A) (A) (A) (A) (A) (A) (A) (A) (A)
                 (A) (A) (A)
       Virtual   (A) (A) (A) (A) (A) (A) (A) (A) (A) (A) (A) (A)
                 (A) (A) (A) (A) (A) (A) (A) (A) (A) (A) (A) (A)
                 (A) (A) (A) (A) (A) (A) (A) (A) (A) (A) (A) (A)
                 (A) (A) (A) (A) (A) (A) (A) (A) (A) (A) (A) (A)
                 (A) (A) (A) (A) (A) (A) (A) (A) (A) (A) (A) (A)
                 (A) (A) (A) (A) (A) (A) (A) (A) (A) (A) (A) (A)
                 (A) (A) (A) (A) (A) (A) (A) (A) (A) (A) (A) (A)
                 (A) (A) (A) (A) (A) (A) (A) (A) (A) (A) (A) (A)
                 (A)
 The electronic state is 1-A.
 Alpha  occ. eigenvalues -- -101.48088 -19.21385 -14.28617 -10.36876 -10.21653
 Alpha  occ. eigenvalues --  -10.16289  -9.39309  -7.15475  -7.14904  -7.14893
 Alpha  occ. eigenvalues --   -1.04786  -0.84630  -0.74825  -0.72295  -0.55520
 Alpha  occ. eigenvalues --   -0.44792  -0.44710  -0.44337  -0.38129  -0.37207
 Alpha  occ. eigenvalues --   -0.36044  -0.29166  -0.29129  -0.27114  -0.26363
 Alpha  occ. eigenvalues --   -0.25885  -0.25679
 Alpha virt. eigenvalues --   -0.12875  -0.04803   0.03042   0.04538   0.05012
 Alpha virt. eigenvalues --    0.05353   0.07109   0.08062   0.08616   0.09219
 Alpha virt. eigenvalues --    0.10219   0.10558   0.11061   0.11861   0.13062
 Alpha virt. eigenvalues --    0.14085   0.14970   0.16170   0.16707   0.19845
 Alpha virt. eigenvalues --    0.21860   0.22848   0.24302   0.24668   0.25348
 Alpha virt. eigenvalues --    0.26013   0.26894   0.28094   0.30411   0.32330
 Alpha virt. eigenvalues --    0.33899   0.36876   0.40091   0.54630   0.61548
 Alpha virt. eigenvalues --    0.63930   0.65288   0.66565   0.67045   0.70131
 Alpha virt. eigenvalues --    0.72663   0.74368   0.74770   0.77664   0.78410
 Alpha virt. eigenvalues --    0.81142   0.84508   0.92320   0.93990   0.94589
 Alpha virt. eigenvalues --    0.95042   0.96160   0.97196   0.99271   1.01577
 Alpha virt. eigenvalues --    1.02953   1.07529   1.13622   1.15426   1.18834
 Alpha virt. eigenvalues --    1.25542   1.28193   1.30392   1.32338   1.43565
 Alpha virt. eigenvalues --    1.47815   1.48353   1.57584   1.58588   1.58862
 Alpha virt. eigenvalues --    1.60910   1.63188   1.70919   1.74691   1.79521
 Alpha virt. eigenvalues --    1.86325   1.95109   2.01508   2.01652   2.10378
 Alpha virt. eigenvalues --    2.17996   2.22622   2.26449   2.46433   2.47939
 Alpha virt. eigenvalues --    2.52168   2.65158   2.65399   2.70271   2.92277
 Alpha virt. eigenvalues --    3.08528   3.99833   4.13763   4.19642   4.28002
 Alpha virt. eigenvalues --    4.36848   4.40327
          Condensed to atoms (all electrons):
               1          2          3          4          5          6
     1  C    4.972435   0.516698   0.074877  -0.052519  -0.019465  -0.022299
     2  O    0.516698   7.923310  -0.120326   0.007282  -0.006458  -0.007587
     3  C    0.074877  -0.120326   5.738864   0.376609   0.353639   0.371451
     4  H   -0.052519   0.007282   0.376609   0.441564  -0.022705  -0.023197
     5  H   -0.019465  -0.006458   0.353639  -0.022705   0.436324  -0.022332
     6  H   -0.022299  -0.007587   0.371451  -0.023197  -0.022332   0.428312
     7  Cl   0.058158  -0.029388  -0.011000   0.003384  -0.003314   0.001647
     8  C    0.167904  -0.059650  -0.158904   0.002768   0.006936  -0.009270
     9  N   -0.003593   0.000030  -0.001137  -0.000219  -0.000041   0.000191
               7          8          9
     1  C    0.058158   0.167904  -0.003593
     2  O   -0.029388  -0.059650   0.000030
     3  C   -0.011000  -0.158904  -0.001137
     4  H    0.003384   0.002768  -0.000219
     5  H   -0.003314   0.006936  -0.000041
     6  H    0.001647  -0.009270   0.000191
     7  Cl  17.552736  -0.036289  -0.001245
     8  C   -0.036289   5.581832   0.648383
     9  N   -0.001245   0.648383   6.966589
 Mulliken charges:
               1
     1  C    0.307806
     2  O   -0.223912
     3  C   -0.624073
     4  H    0.267035
     5  H    0.277417
     6  H    0.283085
     7  Cl  -0.534690
     8  C   -0.143710
     9  N   -0.608957
 Sum of Mulliken charges =  -1.00000
 Mulliken charges with hydrogens summed into heavy atoms:
               1
     1  C    0.307806
     2  O   -0.223912
     3  C    0.203463
     7  Cl  -0.534690
     8  C   -0.143710
     9  N   -0.608957
 Electronic spatial extent (au):  <R**2>=           1096.4875
 Charge=             -1.0000 electrons
 Dipole moment (field-independent basis, Debye):
    X=             -4.4200    Y=              7.9455    Z=             -2.6358  Tot=              9.4665
 Quadrupole moment (field-independent basis, Debye-Ang):
   XX=            -86.5174   YY=            -49.8222   ZZ=            -47.3175
   XY=              5.7518   XZ=              0.3750   YZ=             -5.2835
 Traceless Quadrupole moment (field-independent basis, Debye-Ang):
   XX=            -25.2984   YY=             11.3969   ZZ=             13.9015
   XY=              5.7518   XZ=              0.3750   YZ=             -5.2835
 Octapole moment (field-independent basis, Debye-Ang**2):
  XXX=            -94.0018  YYY=             30.8183  ZZZ=             -4.1269  XYY=            -13.7308
  XXY=             52.6286  XXZ=              2.6469  XZZ=             -4.3359  YZZ=              4.3973
  YYZ=             -6.6370  XYZ=             -0.1807
 Hexadecapole moment (field-independent basis, Debye-Ang**3):
 XXXX=          -1378.2460 YYYY=           -417.2115 ZZZZ=           -177.7803 XXXY=            120.8979
 XXXZ=              5.4634 YYYX=             27.8885 YYYZ=            -12.0766 ZZZX=              1.0902
 ZZZY=             -5.8444 XXYY=           -286.0939 XXZZ=           -200.3216 YYZZ=           -101.6636
 XXYZ=             -2.7724 YYXZ=              1.3578 ZZXY=              4.3767
 N-N= 2.136502212563D+02 E-N=-2.104083478915D+03  KE= 7.018294191853D+02
 No NMR shielding tensors so no spin-rotation constants.
 Leave Link  601 at Wed Jan  8 01:32:02 2020, MaxMem=  4294967296 cpu:              19.7 elap:               1.8
 (Enter /home/cwagen/sw/g16/g16/l701.exe)
 ... and contract with generalized density number  0.
 Compute integral first derivatives.
 D1PCM: PCM CHGder 1st derivatives, ID1Alg=3 FixD1E=F DoIter=F DoCFld=F I1PDM=0.
 GePol: Maximum number of non-zero 1st derivatives   =     404
 Leave Link  701 at Wed Jan  8 01:32:08 2020, MaxMem=  4294967296 cpu:              70.6 elap:               6.0
 (Enter /home/cwagen/sw/g16/g16/l702.exe)
 L702 exits ... SP integral derivatives will be done elsewhere.
 Leave Link  702 at Wed Jan  8 01:32:08 2020, MaxMem=  4294967296 cpu:               1.6 elap:               0.2
 (Enter /home/cwagen/sw/g16/g16/l703.exe)
 Integral derivatives from FoFJK, PRISM(SPDF).
 Compute integral first derivatives, UseDBF=F ICtDFT=           0.
 Calling FoFJK, ICntrl=      2127 FMM=F ISym2X=0 I1Cent= 0 IOpClX= 0 NMat=1 NMatS=1 NMatT=0.
 FoFJK:  IHMeth= 1 ICntrl=    2127 DoSepK=F KAlg= 0 I1Cent=           0 FoldK=F
 IRaf=         0 NMat=       1 IRICut=       1 DoRegI=T DoRafI=F ISym2E= 0 IDoP0=0 IntGTp=1.
 FoFCou: FMM=F IPFlag=           0 FMFlag=      100000 FMFlg1=         800
         NFxFlg=           0 DoJE=F BraDBF=F KetDBF=F FulRan=T
         wScrn=  0.000000 ICntrl=      2127 IOpCl=  0 I1Cent=           0 NGrid=           0
         NMat0=    1 NMatS0=      1 NMatT0=    0 NMatD0=    1 NMtDS0=    0 NMtDT0=    0
 Symmetry not used in FoFCou.
 Leave Link  703 at Wed Jan  8 01:32:12 2020, MaxMem=  4294967296 cpu:              38.6 elap:               3.6
 (Enter /home/cwagen/sw/g16/g16/l716.exe)
 Dipole        =-1.73897552D+00 3.12598087D+00-1.03698512D+00
 ***** Axes restored to original set *****
 -------------------------------------------------------------------
 Center     Atomic                   Forces (Hartrees/Bohr)
 Number     Number              X              Y              Z
 -------------------------------------------------------------------
      1        6          -0.014083483   -0.086193998   -0.136159979
      2        8           0.009786121    0.073542765    0.139790059
      3        6           0.001096575    0.024570205    0.017113972
      4        1          -0.000351577    0.001729338   -0.004960857
      5        1           0.000265865    0.005032203   -0.002802820
      6        1           0.002418310    0.005272286   -0.004462450
      7       17           0.018286961   -0.020208232   -0.006117198
      8        6          -0.031174789   -0.007127332   -0.003294457
      9        7           0.013756017    0.003382764    0.000893731
 -------------------------------------------------------------------
 Cartesian Forces:  Max     0.139790059 RMS     0.044820783
 Leave Link  716 at Wed Jan  8 01:32:12 2020, MaxMem=  4294967296 cpu:               1.8 elap:               0.2
 (Enter /home/cwagen/sw/g16/g16/l103.exe)

 GradGradGradGradGradGradGradGradGradGradGradGradGradGradGradGradGradGrad
 Berny optimization.
 FormGI is forming the generalized inverse of G from B-inverse, IUseBI=4.
 Internal  Forces:  Max     0.155334625 RMS     0.031349778
 Search for a local minimum.
 Step number   1 out of a maximum of   41
 All quantities printed in internal units (Hartrees-Bohrs-Radians)
 RMS Force = .31827D-01 SwitMx=.10000D-02 MixMth= 1
 Mixed Optimization -- RFO/linear search
 Second derivative matrix not updated -- first step.
 ITU=  0
     Eigenvalues ---    0.00230   0.04746   0.04746   0.05330   0.05908
     Eigenvalues ---    0.07453   0.10176   0.16000   0.16000   0.16000
     Eigenvalues ---    0.25000   0.25000   0.25000   0.26946   0.33918
     Eigenvalues ---    0.33999   0.34275   0.67840   1.220341000.00000
     Eigenvalues --- 1000.000001000.000001000.000001000.000001000.00000
     Eigenvalues --- 1000.000001000.000001000.000001000.000001000.00000
     Eigenvalues --- 1000.00000
 RFO step:  Lambda=-5.15201640D-02 EMin= 2.30000000D-03
 Linear search not attempted -- first point.
 Maximum step size (   0.300) exceeded in Quadratic search.
    -- Step size scaled by   0.925
 Iteration  1 RMS(Cart)=  0.06495653 RMS(Int)=  0.00504932
 Iteration  2 RMS(Cart)=  0.00703980 RMS(Int)=  0.00085459
 Iteration  3 RMS(Cart)=  0.00004545 RMS(Int)=  0.00085368
 Iteration  4 RMS(Cart)=  0.00000009 RMS(Int)=  0.00085368
 Iteration  1 RMS(Cart)=  0.00000000 RMS(Int)=  0.00000000
 ITry= 1 IFail=0 DXMaxC= 1.60D-01 DCOld= 1.00D+10 DXMaxT= 3.00D-01 DXLimC= 3.00D+00 Rises=F
 Variable       Old X    -DE/DX   Delta X   Delta X   Delta X     New X
                                 (Linear)    (Quad)   (Total)
    R1        2.45227  -0.15533   0.00000  -0.19695  -0.19695   2.25533
    R2        2.94503  -0.02439   0.00000  -0.07031  -0.07031   2.87472
    R3        4.91329  -0.02785   0.00000   0.00000   0.00000   4.91329
    R4        4.91329  -0.01779   0.00000   0.00000   0.00000   4.91329
    R5        2.07331  -0.00423   0.00000  -0.00999  -0.00999   2.06332
    R6        2.07468  -0.00190   0.00000  -0.00450  -0.00450   2.07019
    R7        2.06868  -0.00120   0.00000  -0.00281  -0.00281   2.06587
    R8        2.20923   0.01419   0.00000   0.01032   0.01032   2.21956
    A1        1.99667   0.05559   0.00000   0.18305   0.18111   2.17778
    A2        2.01908  -0.02106   0.00000  -0.05152  -0.05326   1.96582
    A3        1.89239  -0.01341   0.00000  -0.03065  -0.03240   1.85999
    A4        1.92419  -0.01430   0.00000  -0.04564  -0.04754   1.87665
    A5        1.77194  -0.00564   0.00000  -0.02571  -0.02761   1.74434
    A6        1.83479  -0.00461   0.00000  -0.04691  -0.04902   1.78577
    A7        1.97398  -0.00170   0.00000  -0.00786  -0.00804   1.96594
    A8        1.87942  -0.00563   0.00000  -0.02395  -0.02423   1.85519
    A9        1.90140  -0.00859   0.00000  -0.03786  -0.03822   1.86318
   A10        1.90356   0.00404   0.00000   0.01814   0.01803   1.92160
   A11        1.90837   0.00532   0.00000   0.02201   0.02175   1.93013
   A12        1.89554   0.00681   0.00000   0.03073   0.03020   1.92575
   A13        3.09251  -0.00027   0.00000  -0.00256  -0.00256   3.08995
   A14        2.87052   0.00078   0.00000   0.00730   0.00730   2.87782
    D1        3.04510  -0.00055   0.00000  -0.00712  -0.00699   3.03811
    D2       -1.13357  -0.00040   0.00000  -0.00567  -0.00570  -1.13927
    D3        0.91915  -0.00007   0.00000  -0.00289  -0.00271   0.91643
    D4       -0.92685   0.00657   0.00000   0.04318   0.04292  -0.88393
    D5        1.17766   0.00672   0.00000   0.04463   0.04421   1.22187
    D6       -3.05280   0.00705   0.00000   0.04741   0.04720  -3.00561
    D7        1.01121  -0.00645   0.00000  -0.03823  -0.03798   0.97323
    D8        3.11572  -0.00629   0.00000  -0.03678  -0.03669   3.07903
    D9       -1.11475  -0.00596   0.00000  -0.03400  -0.03370  -1.14845
         Item               Value     Threshold  Converged?
 Maximum Force            0.155335     0.000450     NO 
 RMS     Force            0.031827     0.000300     NO 
 Maximum Displacement     0.159730     0.001800     NO 
 RMS     Displacement     0.063756     0.001200     NO 
 Predicted change in Energy=-2.817595D-02
 Lowest energy point so far.  Saving SCF results.
 GradGradGradGradGradGradGradGradGradGradGradGradGradGradGradGradGradGrad

 Leave Link  103 at Wed Jan  8 01:32:20 2020, MaxMem=  4294967296 cpu:              87.6 elap:               7.9
 (Enter /home/cwagen/sw/g16/g16/l202.exe)
                          Input orientation:                          
 ---------------------------------------------------------------------
 Center     Atomic      Atomic             Coordinates (Angstroms)
 Number     Number       Type             X           Y           Z
 ---------------------------------------------------------------------
      1          6           0       -0.206738   -0.375485   -0.255719
      2          8           0       -0.243473   -0.580731   -1.430832
      3          6           0       -0.326682   -1.447841    0.816581
      4          1           0       -0.164054   -1.056180    1.822721
      5          1           0       -1.339522   -1.856384    0.730784
      6          1           0        0.414154   -2.215708    0.578567
      7         17           0       -1.714087    1.618676    0.459277
      8          6           0        2.178674    0.517112    0.266849
      9          7           0        3.313302    0.815000    0.325347
 ---------------------------------------------------------------------
                    Distance matrix (angstroms):
                    1          2          3          4          5
     1  C    0.000000
     2  O    1.193468   0.000000
     3  C    1.521237   2.410326   0.000000
     4  H    2.187483   3.289068   1.091862   0.000000
     5  H    2.109372   2.738832   1.095496   1.792868   0.000000
     6  H    2.113755   2.672697   1.093210   1.796315   1.796569
     7  Cl   2.600000   3.251555   3.384684   3.378822   3.505718
     8  C    2.600000   3.155024   3.231108   3.222478   4.269241
     9  N    3.761061   4.205102   4.314075   4.223204   5.380469
                    6          7          8          9
     6  H    0.000000
     7  Cl   4.387043   0.000000
     8  C    3.267875   4.050193   0.000000
     9  N    4.201711   5.092983   1.174538   0.000000
 Stoichiometry    C3H3ClNO(1-)
 Framework group  C1[X(C3H3ClNO)]
 Deg. of freedom    21
 Full point group                 C1      NOp   1
 RotChk:  IX=0 Diff= 1.92D-02
 Largest Abelian subgroup         C1      NOp   1
 Largest concise Abelian subgroup C1      NOp   1
                         Standard orientation:                         
 ---------------------------------------------------------------------
 Center     Atomic      Atomic             Coordinates (Angstroms)
 Number     Number       Type             X           Y           Z
 ---------------------------------------------------------------------
      1          6           0       -0.093385    0.760847    0.240506
      2          8           0       -0.062724    1.196303    1.351273
      3          6           0       -0.053460    1.605529   -1.024041
      4          1           0        0.011882    1.001359   -1.931164
      5          1           0       -0.977222    2.194380   -1.029637
      6          1           0        0.815625    2.262907   -0.936558
      7         17           0       -1.942859   -1.038588   -0.078049
      8          6           0        2.085838   -0.621877   -0.074237
      9          7           0        3.149450   -1.120010   -0.062767
 ---------------------------------------------------------------------
 Rotational constants (GHZ):           2.8124846           1.3556061           1.1064695
 Leave Link  202 at Wed Jan  8 01:32:20 2020, MaxMem=  4294967296 cpu:               3.2 elap:               0.4
 (Enter /home/cwagen/sw/g16/g16/l301.exe)
 Standard basis: 6-31+G(d) (6D, 7F)
 Ernie: Thresh=  0.10000D-02 Tol=  0.10000D-05 Strict=F.
 There are   124 symmetry adapted cartesian basis functions of A   symmetry.
 There are   124 symmetry adapted basis functions of A   symmetry.
   124 basis functions,   228 primitive gaussians,   124 cartesian basis functions
    27 alpha electrons       27 beta electrons
       nuclear repulsion energy       218.0781803928 Hartrees.
 IExCor=  402 DFT=T Ex+Corr=B3LYP ExCW=0 ScaHFX=  0.200000
 ScaDFX=  0.800000  0.720000  1.000000  0.810000 ScalE2=  1.000000  1.000000
 IRadAn=      5 IRanWt=     -1 IRanGd=            0 ICorTp=0 IEmpDi=  4
 NAtoms=    9 NActive=    9 NUniq=    9 SFac= 1.00D+00 NAtFMM=   60 NAOKFM=F Big=F
 Integral buffers will be    131072 words long.
 Raffenetti 2 integral format.
 Two-electron integral symmetry is turned on.
 ------------------------------------------------------------------------------
 Polarizable Continuum Model (PCM)
 =================================
 Model                : PCM.
 Atomic radii         : SMD-Coulomb.
 Polarization charges : Total charges.
 Charge compensation  : None.
 Solution method      : On-the-fly selection.
 Cavity type          : VdW (van der Waals Surface) (Alpha=1.000).
 Cavity algorithm     : GePol (No added spheres)
                        Default sphere list used, NSphG=    9.
                        Lebedev-Laikov grids with approx.  5.0 points / Ang**2.
                        Smoothing algorithm: York/Karplus (Gamma=1.0000).
                        Polarization charges: spherical gaussians, with
                                              point-specific exponents (IZeta= 3).
                        Self-potential: point-specific (ISelfS= 7).
                        Self-field    : sphere-specific E.n sum rule (ISelfD= 2).
 1st derivatives      : Analytical E(r).r(x)/FMM algorithm (CHGder, D1EAlg=3).
                        Cavity 1st derivative terms included.
 Solvent              : TetraHydroFuran, Eps=   7.425700 Eps(inf)=   1.974025
 ------------------------------------------------------------------------------
 Spheres list:
 ISph  on   Nord     Re0    Alpha      Xe            Ye            Ze
    1   C      1    1.8500  1.000     -0.093385      0.760847      0.240506
    2   O      2    2.2940  1.000     -0.062724      1.196303      1.351273
    3   C      3    1.8500  1.000     -0.053460      1.605529     -1.024041
    4   H      4    1.2000  1.000      0.011882      1.001359     -1.931164
    5   H      5    1.2000  1.000     -0.977222      2.194380     -1.029637
    6   H      6    1.2000  1.000      0.815625      2.262907     -0.936558
    7  Cl      7    2.3800  1.000     -1.942859     -1.038588     -0.078049
    8   C      8    1.8500  1.000      2.085838     -0.621877     -0.074237
    9   N      9    1.8900  1.000      3.149450     -1.120010     -0.062767
 ------------------------------------------------------------------------------
 GePol: Number of generator spheres                  =       9
 GePol: Total number of spheres                      =       9
 GePol: Number of exposed spheres                    =       9 (100.00%)
 GePol: Number of points                             =    1323
 GePol: Average weight of points                     =       0.13
 GePol: Minimum weight of points                     =   0.28D-07
 GePol: Maximum weight of points                     =    0.18138
 GePol: Number of points with low weight             =      40
 GePol: Fraction of low-weight points (<1% of avg)   =       3.02%
 GePol: Cavity surface area                          =    177.665 Ang**2
 GePol: Cavity volume                                =    157.458 Ang**3
 ------------------------------------------------------------------------------
 Atomic radii for non-electrostatic terms: SMD-CDS.
 ------------------------------------------------------------------------------
 PCM non-electrostatic energy =         0.0008067861 Hartrees.
 Nuclear repulsion after PCM non-electrostatic terms =      218.0789871789 Hartrees.
 Leave Link  301 at Wed Jan  8 01:32:21 2020, MaxMem=  4294967296 cpu:               2.5 elap:               0.3
 (Enter /home/cwagen/sw/g16/g16/l302.exe)
 NPDir=0 NMtPBC=     1 NCelOv=     1 NCel=       1 NClECP=     1 NCelD=      1
         NCelK=      1 NCelE2=     1 NClLst=     1 CellRange=     0.0.
 One-electron integrals computed using PRISM.
 One-electron integral symmetry used in STVInt
 NBasis=   124 RedAO= T EigKep=  1.57D-04  NBF=   124
 NBsUse=   124 1.00D-06 EigRej= -1.00D+00 NBFU=   124
 Precomputing XC quadrature grid using
 IXCGrd= 4 IRadAn=           5 IRanWt=          -1 IRanGd=           0 AccXCQ= 0.00D+00.
 Generated NRdTot=       0 NPtTot=           0 NUsed=           0 NTot=          32
 NSgBfM=   124   124   124   124   124 MxSgAt=     9 MxSgA2=     9.
 Leave Link  302 at Wed Jan  8 01:32:25 2020, MaxMem=  4294967296 cpu:              48.2 elap:               4.4
 (Enter /home/cwagen/sw/g16/g16/l303.exe)
 DipDrv:  MaxL=1.
 Leave Link  303 at Wed Jan  8 01:32:26 2020, MaxMem=  4294967296 cpu:               4.1 elap:               0.6
 (Enter /home/cwagen/sw/g16/g16/l401.exe)
 Initial guess from the checkpoint file:  "/scratch/users/cwagen/cwagen_scan_260_260/Gau-37807.chk"
 B after Tr=     0.000000    0.000000    0.000000
         Rot=    0.999957   -0.007150    0.000424   -0.005925 Ang=  -1.07 deg.
 Guess basis will be translated and rotated to current coordinates.
 JPrj=2 DoOrth=T DoCkMO=T.
 Generating alternative initial guess.
 ExpMin= 4.38D-02 ExpMax= 2.52D+04 ExpMxC= 3.78D+03 IAcc=2 IRadAn=         4 AccDes= 0.00D+00
 Harris functional with IExCor=  402 and IRadAn=       4 diagonalized for initial guess.
 HarFok:  IExCor=  402 AccDes= 0.00D+00 IRadAn=         4 IDoV= 1 UseB2=F ITyADJ=14
 ICtDFT=  3500011 ScaDFX=  1.000000  1.000000  1.000000  1.000000
 FoFCou: FMM=F IPFlag=           0 FMFlag=      100000 FMFlg1=           0
         NFxFlg=           0 DoJE=T BraDBF=F KetDBF=T FulRan=T
         wScrn=  0.000000 ICntrl=       500 IOpCl=  0 I1Cent=   200000004 NGrid=           0
         NMat0=    1 NMatS0=      1 NMatT0=    0 NMatD0=    1 NMtDS0=    0 NMtDT0=    0
 Petite list used in FoFCou.
 Harris En= -706.368425999221    
 Leave Link  401 at Wed Jan  8 01:32:30 2020, MaxMem=  4294967296 cpu:              46.9 elap:               4.0
 (Enter /home/cwagen/sw/g16/g16/l502.exe)
 Keep R1 ints in memory in canonical form, NReq=45236517.
 FoFCou: FMM=F IPFlag=           0 FMFlag=           0 FMFlg1=           0
         NFxFlg=           0 DoJE=F BraDBF=F KetDBF=F FulRan=T
         wScrn=  0.000000 ICntrl=       600 IOpCl=  0 I1Cent=           0 NGrid=           0
         NMat0=    1 NMatS0=   7750 NMatT0=    0 NMatD0=    1 NMtDS0=    0 NMtDT0=    0
 Symmetry not used in FoFCou.
 Two-electron integral symmetry not used.
 Closed shell SCF:
 Using DIIS extrapolation, IDIIS=  1040.
 NGot=  4294967296 LenX=  4264898079 LenY=  4264882262
 Requested convergence on RMS density matrix=1.00D-08 within 128 cycles.
 Requested convergence on MAX density matrix=1.00D-06.
 Requested convergence on             energy=1.00D-06.
 No special actions if energy rises.

 Cycle   1  Pass 1  IDiag  1:
 Inv3:  Mode=1 IEnd=     5250987.
 Iteration    1 A*A^-1 deviation from unit magnitude is 3.55D-15 for   1307.
 Iteration    1 A*A^-1 deviation from orthogonality  is 1.82D-15 for   1299    830.
 Iteration    1 A^-1*A deviation from unit magnitude is 3.55D-15 for   1307.
 Iteration    1 A^-1*A deviation from orthogonality  is 1.99D-15 for   1313   1138.
 E= -706.364817845755    
 DIIS: error= 7.21D-03 at cycle   1 NSaved=   1.
 NSaved= 1 IEnMin= 1 EnMin= -706.364817845755     IErMin= 1 ErrMin= 7.21D-03
 ErrMax= 7.21D-03  0.00D+00 EMaxC= 1.00D-01 BMatC= 1.09D-02 BMatP= 1.09D-02
 IDIUse=3 WtCom= 9.28D-01 WtEn= 7.21D-02
 Coeff-Com:  0.100D+01
 Coeff-En:   0.100D+01
 Coeff:      0.100D+01
 Gap=     0.599 Goal=   None    Shift=    0.000
 GapD=    0.599 DampG=2.000 DampE=1.000 DampFc=2.0000 IDamp=-1.
 RMSDP=1.85D-03 MaxDP=3.46D-02              OVMax= 4.34D-02

 Cycle   2  Pass 1  IDiag  1:
 E= -706.381185490463     Delta-E=       -0.016367644708 Rises=F Damp=F
 DIIS: error= 2.60D-03 at cycle   2 NSaved=   2.
 NSaved= 2 IEnMin= 2 EnMin= -706.381185490463     IErMin= 2 ErrMin= 2.60D-03
 ErrMax= 2.60D-03  0.00D+00 EMaxC= 1.00D-01 BMatC= 9.62D-04 BMatP= 1.09D-02
 IDIUse=3 WtCom= 9.74D-01 WtEn= 2.60D-02
 Coeff-Com:  0.114D+00 0.886D+00
 Coeff-En:   0.000D+00 0.100D+01
 Coeff:      0.111D+00 0.889D+00
 Gap=     0.152 Goal=   None    Shift=    0.000
 RMSDP=5.51D-04 MaxDP=1.73D-02 DE=-1.64D-02 OVMax= 3.47D-02

 Cycle   3  Pass 1  IDiag  1:
 E= -706.380031190350     Delta-E=        0.001154300113 Rises=F Damp=F
 DIIS: error= 4.89D-03 at cycle   3 NSaved=   3.
 NSaved= 3 IEnMin= 2 EnMin= -706.381185490463     IErMin= 2 ErrMin= 2.60D-03
 ErrMax= 4.89D-03  0.00D+00 EMaxC= 1.00D-01 BMatC= 2.33D-03 BMatP= 9.62D-04
 IDIUse=3 WtCom= 1.25D-01 WtEn= 8.75D-01
 Coeff-Com: -0.833D-02 0.620D+00 0.388D+00
 Coeff-En:   0.000D+00 0.678D+00 0.322D+00
 Coeff:     -0.104D-02 0.671D+00 0.330D+00
 Gap=     0.146 Goal=   None    Shift=    0.000
 RMSDP=3.45D-04 MaxDP=1.17D-02 DE= 1.15D-03 OVMax= 1.87D-02

 Cycle   4  Pass 1  IDiag  1:
 E= -706.381975259335     Delta-E=       -0.001944068985 Rises=F Damp=F
 DIIS: error= 4.91D-04 at cycle   4 NSaved=   4.
 NSaved= 4 IEnMin= 4 EnMin= -706.381975259335     IErMin= 4 ErrMin= 4.91D-04
 ErrMax= 4.91D-04  0.00D+00 EMaxC= 1.00D-01 BMatC= 7.00D-05 BMatP= 9.62D-04
 IDIUse=3 WtCom= 9.95D-01 WtEn= 4.91D-03
 Coeff-Com: -0.213D-01 0.257D+00 0.178D+00 0.586D+00
 Coeff-En:   0.000D+00 0.000D+00 0.000D+00 0.100D+01
 Coeff:     -0.212D-01 0.256D+00 0.177D+00 0.588D+00
 Gap=     0.144 Goal=   None    Shift=    0.000
 RMSDP=1.12D-04 MaxDP=2.12D-03 DE=-1.94D-03 OVMax= 3.18D-03

 Cycle   5  Pass 1  IDiag  1:
 E= -706.382030436296     Delta-E=       -0.000055176960 Rises=F Damp=F
 DIIS: error= 1.66D-04 at cycle   5 NSaved=   5.
 NSaved= 5 IEnMin= 5 EnMin= -706.382030436296     IErMin= 5 ErrMin= 1.66D-04
 ErrMax= 1.66D-04  0.00D+00 EMaxC= 1.00D-01 BMatC= 1.21D-05 BMatP= 7.00D-05
 IDIUse=3 WtCom= 9.98D-01 WtEn= 1.66D-03
 Coeff-Com: -0.674D-02 0.793D-01 0.698D-01 0.317D+00 0.540D+00
 Coeff-En:   0.000D+00 0.000D+00 0.000D+00 0.134D+00 0.866D+00
 Coeff:     -0.672D-02 0.792D-01 0.697D-01 0.317D+00 0.541D+00
 Gap=     0.145 Goal=   None    Shift=    0.000
 RMSDP=5.54D-05 MaxDP=1.07D-03 DE=-5.52D-05 OVMax= 3.19D-03

 Cycle   6  Pass 1  IDiag  1:
 E= -706.382045013747     Delta-E=       -0.000014577451 Rises=F Damp=F
 DIIS: error= 1.02D-04 at cycle   6 NSaved=   6.
 NSaved= 6 IEnMin= 6 EnMin= -706.382045013747     IErMin= 6 ErrMin= 1.02D-04
 ErrMax= 1.02D-04  0.00D+00 EMaxC= 1.00D-01 BMatC= 1.85D-06 BMatP= 1.21D-05
 IDIUse=3 WtCom= 9.99D-01 WtEn= 1.02D-03
 Coeff-Com: -0.230D-02 0.168D-01 0.209D-01 0.122D+00 0.331D+00 0.511D+00
 Coeff-En:   0.000D+00 0.000D+00 0.000D+00 0.000D+00 0.870D-01 0.913D+00
 Coeff:     -0.230D-02 0.167D-01 0.209D-01 0.122D+00 0.331D+00 0.512D+00
 Gap=     0.145 Goal=   None    Shift=    0.000
 RMSDP=1.78D-05 MaxDP=6.63D-04 DE=-1.46D-05 OVMax= 7.20D-04

 Cycle   7  Pass 1  IDiag  1:
 E= -706.382047242262     Delta-E=       -0.000002228515 Rises=F Damp=F
 DIIS: error= 1.61D-05 at cycle   7 NSaved=   7.
 NSaved= 7 IEnMin= 7 EnMin= -706.382047242262     IErMin= 7 ErrMin= 1.61D-05
 ErrMax= 1.61D-05  0.00D+00 EMaxC= 1.00D-01 BMatC= 8.17D-08 BMatP= 1.85D-06
 IDIUse=1 WtCom= 1.00D+00 WtEn= 0.00D+00
 Coeff-Com: -0.283D-03-0.119D-02 0.184D-02 0.254D-01 0.115D+00 0.229D+00
 Coeff-Com:  0.629D+00
 Coeff:     -0.283D-03-0.119D-02 0.184D-02 0.254D-01 0.115D+00 0.229D+00
 Coeff:      0.629D+00
 Gap=     0.145 Goal=   None    Shift=    0.000
 RMSDP=5.05D-06 MaxDP=1.39D-04 DE=-2.23D-06 OVMax= 1.62D-04

 Cycle   8  Pass 1  IDiag  1:
 E= -706.382047321308     Delta-E=       -0.000000079046 Rises=F Damp=F
 DIIS: error= 1.05D-05 at cycle   8 NSaved=   8.
 NSaved= 8 IEnMin= 8 EnMin= -706.382047321308     IErMin= 8 ErrMin= 1.05D-05
 ErrMax= 1.05D-05  0.00D+00 EMaxC= 1.00D-01 BMatC= 2.22D-08 BMatP= 8.17D-08
 IDIUse=1 WtCom= 1.00D+00 WtEn= 0.00D+00
 Coeff-Com:  0.705D-04-0.234D-02-0.157D-02 0.108D-02 0.336D-01 0.658D-01
 Coeff-Com:  0.368D+00 0.536D+00
 Coeff:      0.705D-04-0.234D-02-0.157D-02 0.108D-02 0.336D-01 0.658D-01
 Coeff:      0.368D+00 0.536D+00
 Gap=     0.145 Goal=   None    Shift=    0.000
 RMSDP=2.00D-06 MaxDP=4.05D-05 DE=-7.90D-08 OVMax= 6.35D-05

 Cycle   9  Pass 1  IDiag  1:
 E= -706.382047341921     Delta-E=       -0.000000020613 Rises=F Damp=F
 DIIS: error= 7.19D-06 at cycle   9 NSaved=   9.
 NSaved= 9 IEnMin= 9 EnMin= -706.382047341921     IErMin= 9 ErrMin= 7.19D-06
 ErrMax= 7.19D-06  0.00D+00 EMaxC= 1.00D-01 BMatC= 5.53D-09 BMatP= 2.22D-08
 IDIUse=1 WtCom= 1.00D+00 WtEn= 0.00D+00
 Coeff-Com:  0.937D-04-0.162D-02-0.163D-02-0.289D-02 0.928D-02 0.134D-01
 Coeff-Com:  0.176D+00 0.372D+00 0.435D+00
 Coeff:      0.937D-04-0.162D-02-0.163D-02-0.289D-02 0.928D-02 0.134D-01
 Coeff:      0.176D+00 0.372D+00 0.435D+00
 Gap=     0.145 Goal=   None    Shift=    0.000
 RMSDP=5.51D-07 MaxDP=1.56D-05 DE=-2.06D-08 OVMax= 2.46D-05

 Cycle  10  Pass 1  IDiag  1:
 E= -706.382047347086     Delta-E=       -0.000000005166 Rises=F Damp=F
 DIIS: error= 1.22D-06 at cycle  10 NSaved=  10.
 NSaved=10 IEnMin=10 EnMin= -706.382047347086     IErMin=10 ErrMin= 1.22D-06
 ErrMax= 1.22D-06  0.00D+00 EMaxC= 1.00D-01 BMatC= 3.31D-10 BMatP= 5.53D-09
 IDIUse=1 WtCom= 1.00D+00 WtEn= 0.00D+00
 Coeff-Com:  0.337D-04-0.298D-03-0.589D-03-0.153D-02-0.110D-02-0.760D-02
 Coeff-Com:  0.116D-01 0.762D-01 0.201D+00 0.722D+00
 Coeff:      0.337D-04-0.298D-03-0.589D-03-0.153D-02-0.110D-02-0.760D-02
 Coeff:      0.116D-01 0.762D-01 0.201D+00 0.722D+00
 Gap=     0.145 Goal=   None    Shift=    0.000
 RMSDP=1.82D-07 MaxDP=3.23D-06 DE=-5.17D-09 OVMax= 6.42D-06

 Cycle  11  Pass 1  IDiag  1:
 E= -706.382047347453     Delta-E=       -0.000000000366 Rises=F Damp=F
 DIIS: error= 2.89D-07 at cycle  11 NSaved=  11.
 NSaved=11 IEnMin=11 EnMin= -706.382047347453     IErMin=11 ErrMin= 2.89D-07
 ErrMax= 2.89D-07  0.00D+00 EMaxC= 1.00D-01 BMatC= 6.09D-12 BMatP= 3.31D-10
 IDIUse=1 WtCom= 1.00D+00 WtEn= 0.00D+00
 Coeff-Com:  0.621D-05-0.129D-04-0.104D-03-0.364D-03-0.740D-03-0.304D-02
 Coeff-Com: -0.569D-02 0.819D-02 0.407D-01 0.228D+00 0.733D+00
 Coeff:      0.621D-05-0.129D-04-0.104D-03-0.364D-03-0.740D-03-0.304D-02
 Coeff:     -0.569D-02 0.819D-02 0.407D-01 0.228D+00 0.733D+00
 Gap=     0.145 Goal=   None    Shift=    0.000
 RMSDP=5.41D-08 MaxDP=1.60D-06 DE=-3.66D-10 OVMax= 1.85D-06

 Cycle  12  Pass 1  IDiag  1:
 E= -706.382047347458     Delta-E=       -0.000000000005 Rises=F Damp=F
 DIIS: error= 7.03D-08 at cycle  12 NSaved=  12.
 NSaved=12 IEnMin=12 EnMin= -706.382047347458     IErMin=12 ErrMin= 7.03D-08
 ErrMax= 7.03D-08  0.00D+00 EMaxC= 1.00D-01 BMatC= 1.02D-12 BMatP= 6.09D-12
 IDIUse=1 WtCom= 1.00D+00 WtEn= 0.00D+00
 Coeff-Com:  0.574D-06 0.131D-04-0.685D-06-0.589D-04-0.238D-03-0.690D-03
 Coeff-Com: -0.335D-02-0.643D-03 0.280D-02 0.458D-01 0.311D+00 0.646D+00
 Coeff:      0.574D-06 0.131D-04-0.685D-06-0.589D-04-0.238D-03-0.690D-03
 Coeff:     -0.335D-02-0.643D-03 0.280D-02 0.458D-01 0.311D+00 0.646D+00
 Gap=     0.145 Goal=   None    Shift=    0.000
 RMSDP=1.11D-08 MaxDP=2.59D-07 DE=-5.46D-12 OVMax= 3.45D-07

 Cycle  13  Pass 1  IDiag  1:
 E= -706.382047347461     Delta-E=       -0.000000000003 Rises=F Damp=F
 DIIS: error= 1.87D-08 at cycle  13 NSaved=  13.
 NSaved=13 IEnMin=13 EnMin= -706.382047347461     IErMin=13 ErrMin= 1.87D-08
 ErrMax= 1.87D-08  0.00D+00 EMaxC= 1.00D-01 BMatC= 7.26D-14 BMatP= 1.02D-12
 IDIUse=1 WtCom= 1.00D+00 WtEn= 0.00D+00
 Coeff-Com: -0.416D-06 0.554D-05 0.111D-04 0.108D-04-0.183D-04 0.662D-04
 Coeff-Com: -0.701D-03-0.622D-03-0.311D-02-0.701D-02 0.435D-01 0.242D+00
 Coeff-Com:  0.726D+00
 Coeff:     -0.416D-06 0.554D-05 0.111D-04 0.108D-04-0.183D-04 0.662D-04
 Coeff:     -0.701D-03-0.622D-03-0.311D-02-0.701D-02 0.435D-01 0.242D+00
 Coeff:      0.726D+00
 Gap=     0.145 Goal=   None    Shift=    0.000
 RMSDP=4.95D-09 MaxDP=1.63D-07 DE=-2.84D-12 OVMax= 1.68D-07

 Error on total polarization charges =  0.02531
 SCF Done:  E(RB3LYP) =  -706.382047347     A.U. after   13 cycles
            NFock= 13  Conv=0.49D-08     -V/T= 2.0060
 KE= 7.021621824960D+02 PE=-2.113152928262D+03 EE= 4.865297112397D+02
 SMD-CDS (non-electrostatic) energy       (kcal/mol) =       0.51
 (included in total energy above)
 Leave Link  502 at Wed Jan  8 01:33:28 2020, MaxMem=  4294967296 cpu:             687.0 elap:              58.7
 (Enter /home/cwagen/sw/g16/g16/l701.exe)
 ... and contract with generalized density number  0.
 Compute integral first derivatives.
 D1PCM: PCM CHGder 1st derivatives, ID1Alg=3 FixD1E=F DoIter=F DoCFld=F I1PDM=0.
 GePol: Maximum number of non-zero 1st derivatives   =     400
 Leave Link  701 at Wed Jan  8 01:33:35 2020, MaxMem=  4294967296 cpu:              74.7 elap:               6.7
 (Enter /home/cwagen/sw/g16/g16/l702.exe)
 L702 exits ... SP integral derivatives will be done elsewhere.
 Leave Link  702 at Wed Jan  8 01:33:35 2020, MaxMem=  4294967296 cpu:               1.5 elap:               0.2
 (Enter /home/cwagen/sw/g16/g16/l703.exe)
 Integral derivatives from FoFJK, PRISM(SPDF).
 Compute integral first derivatives, UseDBF=F ICtDFT=           0.
 Calling FoFJK, ICntrl=      2127 FMM=F ISym2X=0 I1Cent= 0 IOpClX= 0 NMat=1 NMatS=1 NMatT=0.
 FoFJK:  IHMeth= 1 ICntrl=    2127 DoSepK=F KAlg= 0 I1Cent=           0 FoldK=F
 IRaf=         0 NMat=       1 IRICut=       1 DoRegI=T DoRafI=F ISym2E= 0 IDoP0=0 IntGTp=1.
 FoFCou: FMM=F IPFlag=           0 FMFlag=      100000 FMFlg1=         800
         NFxFlg=           0 DoJE=F BraDBF=F KetDBF=F FulRan=T
         wScrn=  0.000000 ICntrl=      2127 IOpCl=  0 I1Cent=           0 NGrid=           0
         NMat0=    1 NMatS0=      1 NMatT0=    0 NMatD0=    1 NMtDS0=    0 NMtDT0=    0
 Symmetry not used in FoFCou.
 Leave Link  703 at Wed Jan  8 01:33:39 2020, MaxMem=  4294967296 cpu:              38.6 elap:               3.3
 (Enter /home/cwagen/sw/g16/g16/l716.exe)
 Dipole        =-1.74085309D+00 3.59010016D+00-8.33522111D-01
 ***** Axes restored to original set *****
 -------------------------------------------------------------------
 Center     Atomic                   Forces (Hartrees/Bohr)
 Number     Number              X              Y              Z
 -------------------------------------------------------------------
      1        6          -0.008009179   -0.036964596   -0.050221836
      2        8           0.003929983    0.033125007    0.049858591
      3        6           0.001617024    0.021414036    0.011532728
      4        1          -0.000214797    0.000019410   -0.002250061
      5        1          -0.000400095    0.001433690   -0.000997002
      6        1           0.001444054    0.001332670   -0.001740251
      7       17           0.013763663   -0.016723179   -0.004718590
      8        6          -0.015786536   -0.004756701   -0.001971237
      9        7           0.003655882    0.001119662    0.000507658
 -------------------------------------------------------------------
 Cartesian Forces:  Max     0.050221836 RMS     0.018199218
 Leave Link  716 at Wed Jan  8 01:33:39 2020, MaxMem=  4294967296 cpu:               1.5 elap:               0.2
 (Enter /home/cwagen/sw/g16/g16/l103.exe)

 GradGradGradGradGradGradGradGradGradGradGradGradGradGradGradGradGradGrad
 Berny optimization.
 Using GEDIIS/GDIIS optimizer.
 FormGI is forming the generalized inverse of G from B-inverse, IUseBI=4.
 Internal  Forces:  Max     0.054900787 RMS     0.014176417
 Search for a local minimum.
 Step number   2 out of a maximum of   41
 All quantities printed in internal units (Hartrees-Bohrs-Radians)
 RMS Force = .13872D-01 SwitMx=.10000D-02 MixMth= 1
 Mixed Optimization -- RFO/linear search
 Update second derivatives using D2CorX and points    1    2
 DE= -3.66D-02 DEPred=-2.82D-02 R= 1.30D+00
 TightC=F SS=  1.41D+00  RLast= 3.16D-01 DXNew= 5.0454D-01 9.4867D-01
 Trust test= 1.30D+00 RLast= 3.16D-01 DXMaxT set to 5.05D-01
 ITU=  1  0
 Use linear search instead of GDIIS.
     Eigenvalues ---    0.00230   0.04746   0.04747   0.05528   0.05767
     Eigenvalues ---    0.06193   0.09569   0.15905   0.16000   0.16008
     Eigenvalues ---    0.17793   0.25000   0.25139   0.26958   0.33924
     Eigenvalues ---    0.33994   0.34281   0.64845   1.220631000.00000
     Eigenvalues --- 1000.000001000.000001000.000001000.000001000.00000
     Eigenvalues --- 1000.000001000.000001000.000001000.000001000.00000
     Eigenvalues --- 1000.00000
 RFO step:  Lambda=-2.80533793D-03 EMin= 2.30002987D-03
 Quartic linear search produced a step of  0.55603.
 Iteration  1 RMS(Cart)=  0.06864439 RMS(Int)=  0.00396951
 Iteration  2 RMS(Cart)=  0.00485075 RMS(Int)=  0.00111701
 Iteration  3 RMS(Cart)=  0.00001695 RMS(Int)=  0.00111693
 Iteration  4 RMS(Cart)=  0.00000003 RMS(Int)=  0.00111693
 Iteration  1 RMS(Cart)=  0.00000000 RMS(Int)=  0.00000000
 ITry= 1 IFail=0 DXMaxC= 1.72D-01 DCOld= 1.00D+10 DXMaxT= 5.05D-01 DXLimC= 3.00D+00 Rises=F
 Variable       Old X    -DE/DX   Delta X   Delta X   Delta X     New X
                                 (Linear)    (Quad)   (Total)
    R1        2.25533  -0.05490  -0.10951   0.01101  -0.09850   2.15683
    R2        2.87472  -0.01264  -0.03909  -0.00551  -0.04461   2.83012
    R3        4.91329  -0.02212   0.00000   0.00000   0.00000   4.91329
    R4        4.91329  -0.01265   0.00000   0.00000   0.00000   4.91329
    R5        2.06332  -0.00209  -0.00556  -0.00088  -0.00644   2.05688
    R6        2.07019  -0.00009  -0.00250   0.00348   0.00098   2.07117
    R7        2.06587   0.00039  -0.00156   0.00417   0.00261   2.06847
    R8        2.21956   0.00384   0.00574  -0.00148   0.00426   2.22381
    A1        2.17778   0.04104   0.10070   0.08375   0.18317   2.36094
    A2        1.96582  -0.01388  -0.02962  -0.02599  -0.05627   1.90954
    A3        1.85999  -0.00901  -0.01802  -0.01191  -0.03173   1.82825
    A4        1.87665  -0.01471  -0.02643  -0.04593  -0.07370   1.80295
    A5        1.74434  -0.00829  -0.01535  -0.02591  -0.04377   1.70057
    A6        1.78577  -0.00150  -0.02726   0.01902  -0.01243   1.77334
    A7        1.96594  -0.00034  -0.00447   0.00729   0.00272   1.96866
    A8        1.85519  -0.00190  -0.01347   0.01205  -0.00159   1.85360
    A9        1.86318  -0.00324  -0.02125   0.01658  -0.00488   1.85830
   A10        1.92160   0.00126   0.01003  -0.00970   0.00026   1.92186
   A11        1.93013   0.00169   0.01210  -0.01007   0.00188   1.93201
   A12        1.92575   0.00235   0.01679  -0.01510   0.00138   1.92713
   A13        3.08995   0.00021  -0.00142   0.01360   0.01217   3.10213
   A14        2.87782   0.00055   0.00406  -0.00377   0.00029   2.87811
    D1        3.03811  -0.00031  -0.00389  -0.00568  -0.00928   3.02883
    D2       -1.13927  -0.00020  -0.00317  -0.00543  -0.00841  -1.14768
    D3        0.91643  -0.00002  -0.00151  -0.00878  -0.00997   0.90646
    D4       -0.88393   0.00445   0.02387  -0.01286   0.00980  -0.87413
    D5        1.22187   0.00456   0.02458  -0.01261   0.01067   1.23254
    D6       -3.00561   0.00474   0.02624  -0.01596   0.00911  -2.99650
    D7        0.97323  -0.00439  -0.02112  -0.01477  -0.03490   0.93833
    D8        3.07903  -0.00428  -0.02040  -0.01452  -0.03403   3.04500
    D9       -1.14845  -0.00410  -0.01874  -0.01787  -0.03560  -1.18404
         Item               Value     Threshold  Converged?
 Maximum Force            0.054901     0.000450     NO 
 RMS     Force            0.013872     0.000300     NO 
 Maximum Displacement     0.172157     0.001800     NO 
 RMS     Displacement     0.067440     0.001200     NO 
 Predicted change in Energy=-1.144031D-02
 Lowest energy point so far.  Saving SCF results.
 GradGradGradGradGradGradGradGradGradGradGradGradGradGradGradGradGradGrad

 Leave Link  103 at Wed Jan  8 01:33:47 2020, MaxMem=  4294967296 cpu:              94.4 elap:               8.1
 (Enter /home/cwagen/sw/g16/g16/l202.exe)
                          Input orientation:                          
 ---------------------------------------------------------------------
 Center     Atomic      Atomic             Coordinates (Angstroms)
 Number     Number       Type             X           Y           Z
 ---------------------------------------------------------------------
      1          6           0       -0.211017   -0.433162   -0.307200
      2          8           0       -0.231296   -0.492324   -1.446831
      3          6           0       -0.317072   -1.422995    0.811678
      4          1           0       -0.138389   -0.976473    1.788114
      5          1           0       -1.333279   -1.830792    0.763966
      6          1           0        0.418811   -2.206232    0.603974
      7         17           0       -1.724529    1.527574    0.483238
      8          6           0        2.158260    0.470796    0.266722
      9          7           0        3.290085    0.782067    0.349914
 ---------------------------------------------------------------------
                    Distance matrix (angstroms):
                    1          2          3          4          5
     1  C    0.000000
     2  O    1.141346   0.000000
     3  C    1.497633   2.444252   0.000000
     4  H    2.165827   3.272294   1.088456   0.000000
     5  H    2.088118   2.809535   1.096017   1.790671   0.000000
     6  H    2.090621   2.750622   1.094589   1.795819   1.798992
     7  Cl   2.600000   3.167792   3.285524   3.238642   3.392714
     8  C    2.600000   3.094163   3.163967   3.111884   4.211342
     9  N    3.763814   4.153612   4.252893   4.112824   5.326722
                    6          7          8          9
     6  H    0.000000
     7  Cl   4.306947   0.000000
     8  C    3.210281   4.029852   0.000000
     9  N    4.151951   5.071480   1.176792   0.000000
 Stoichiometry    C3H3ClNO(1-)
 Framework group  C1[X(C3H3ClNO)]
 Deg. of freedom    21
 Full point group                 C1      NOp   1
 RotChk:  IX=0 Diff= 3.82D-02
 Largest Abelian subgroup         C1      NOp   1
 Largest concise Abelian subgroup C1      NOp   1
                         Standard orientation:                         
 ---------------------------------------------------------------------
 Center     Atomic      Atomic             Coordinates (Angstroms)
 Number     Number       Type             X           Y           Z
 ---------------------------------------------------------------------
      1          6           0       -0.095371    0.805947    0.269345
      2          8           0       -0.074903    1.116143    1.367539
      3          6           0       -0.072304    1.530014   -1.041418
      4          1           0        0.006077    0.857291   -1.893495
      5          1           0       -1.008605    2.097318   -1.093961
      6          1           0        0.784663    2.210035   -1.005321
      7         17           0       -1.923715   -1.008933   -0.081891
      8          6           0        2.082489   -0.573167   -0.069728
      9          7           0        3.147337   -1.074098   -0.072083
 ---------------------------------------------------------------------
 Rotational constants (GHZ):           2.9540909           1.3609076           1.1386178
 Leave Link  202 at Wed Jan  8 01:33:48 2020, MaxMem=  4294967296 cpu:               1.8 elap:               0.8
 (Enter /home/cwagen/sw/g16/g16/l301.exe)
 Standard basis: 6-31+G(d) (6D, 7F)
 Ernie: Thresh=  0.10000D-02 Tol=  0.10000D-05 Strict=F.
 There are   124 symmetry adapted cartesian basis functions of A   symmetry.
 There are   124 symmetry adapted basis functions of A   symmetry.
   124 basis functions,   228 primitive gaussians,   124 cartesian basis functions
    27 alpha electrons       27 beta electrons
       nuclear repulsion energy       221.0078174468 Hartrees.
 IExCor=  402 DFT=T Ex+Corr=B3LYP ExCW=0 ScaHFX=  0.200000
 ScaDFX=  0.800000  0.720000  1.000000  0.810000 ScalE2=  1.000000  1.000000
 IRadAn=      5 IRanWt=     -1 IRanGd=            0 ICorTp=0 IEmpDi=  4
 NAtoms=    9 NActive=    9 NUniq=    9 SFac= 1.00D+00 NAtFMM=   60 NAOKFM=F Big=F
 Integral buffers will be    131072 words long.
 Raffenetti 2 integral format.
 Two-electron integral symmetry is turned on.
 ------------------------------------------------------------------------------
 Polarizable Continuum Model (PCM)
 =================================
 Model                : PCM.
 Atomic radii         : SMD-Coulomb.
 Polarization charges : Total charges.
 Charge compensation  : None.
 Solution method      : On-the-fly selection.
 Cavity type          : VdW (van der Waals Surface) (Alpha=1.000).
 Cavity algorithm     : GePol (No added spheres)
                        Default sphere list used, NSphG=    9.
                        Lebedev-Laikov grids with approx.  5.0 points / Ang**2.
                        Smoothing algorithm: York/Karplus (Gamma=1.0000).
                        Polarization charges: spherical gaussians, with
                                              point-specific exponents (IZeta= 3).
                        Self-potential: point-specific (ISelfS= 7).
                        Self-field    : sphere-specific E.n sum rule (ISelfD= 2).
 1st derivatives      : Analytical E(r).r(x)/FMM algorithm (CHGder, D1EAlg=3).
                        Cavity 1st derivative terms included.
 Solvent              : TetraHydroFuran, Eps=   7.425700 Eps(inf)=   1.974025
 ------------------------------------------------------------------------------
 Spheres list:
 ISph  on   Nord     Re0    Alpha      Xe            Ye            Ze
    1   C      1    1.8500  1.000     -0.095371      0.805947      0.269345
    2   O      2    2.2940  1.000     -0.074903      1.116143      1.367539
    3   C      3    1.8500  1.000     -0.072304      1.530014     -1.041418
    4   H      4    1.2000  1.000      0.006077      0.857291     -1.893495
    5   H      5    1.2000  1.000     -1.008605      2.097318     -1.093961
    6   H      6    1.2000  1.000      0.784663      2.210035     -1.005321
    7  Cl      7    2.3800  1.000     -1.923715     -1.008933     -0.081891
    8   C      8    1.8500  1.000      2.082489     -0.573167     -0.069728
    9   N      9    1.8900  1.000      3.147337     -1.074098     -0.072083
 ------------------------------------------------------------------------------
 GePol: Number of generator spheres                  =       9
 GePol: Total number of spheres                      =       9
 GePol: Number of exposed spheres                    =       9 (100.00%)
 GePol: Number of points                             =    1304
 GePol: Average weight of points                     =       0.13
 GePol: Minimum weight of points                     =   0.15D-07
 GePol: Maximum weight of points                     =    0.18138
 GePol: Number of points with low weight             =      31
 GePol: Fraction of low-weight points (<1% of avg)   =       2.38%
 GePol: Cavity surface area                          =    175.950 Ang**2
 GePol: Cavity volume                                =    156.401 Ang**3
 ------------------------------------------------------------------------------
 Atomic radii for non-electrostatic terms: SMD-CDS.
[...]
 DIIS inversion failure, remove point   6.
 InvSVX:  RCond= 1.71D-08 Info=           0 Equed=N FErr=  3.68D-14 BErr=  9.48D-17
 DIIS inversion failure, remove point   5.
 InvSVX:  RCond= 1.33D-07 Info=           0 Equed=N FErr=  6.42D-15 BErr=  9.78D-17
 RFO-DIIS uses    4 points instead of   10
 EnCoef did   100 forward-backward iterations
 IWarn =    2
 Energies =   -706.397153285      -706.397153593      -706.397154129      -706.397154334      -706.397154854    
 Energies =   -706.397154743      -706.397154780      -706.397154688      -706.397154369      -706.397154609    
 Point number   1 has energy  -0.7063971533D+03 and has been removed
 EnCoef did   100 forward-backward iterations
 IWarn =    2
 Energies =   -706.397153593      -706.397154129      -706.397154334      -706.397154854      -706.397154743    
 Energies =   -706.397154780      -706.397154688      -706.397154369      -706.397154609    
 Point number   1 has energy  -0.7063971536D+03 and has been removed
 EnCoef did   100 forward-backward iterations
 IWarn =    2
 Energies =   -706.397154129      -706.397154334      -706.397154854      -706.397154743      -706.397154780    
 Energies =   -706.397154688      -706.397154369      -706.397154609    
 Point number   1 has energy  -0.7063971541D+03 and has been removed
 EnCoef did   100 forward-backward iterations
 IWarn =    2
 Energies =   -706.397154334      -706.397154854      -706.397154743      -706.397154780      -706.397154688    
 Energies =   -706.397154369      -706.397154609    
 Point number   1 has energy  -0.7063971543D+03 and has been removed
 EnCoef did   100 forward-backward iterations
 IWarn =    2
 Energies =   -706.397154854      -706.397154743      -706.397154780      -706.397154688      -706.397154369    
 Energies =   -706.397154609    
 Point number   5 has energy  -0.7063971544D+03 and has been removed
 EnCoef did   100 forward-backward iterations
 IWarn =    2
 Energies =   -706.397154854      -706.397154743      -706.397154780      -706.397154688      -706.397154609    
 Point number   4 has energy  -0.7063971547D+03 and has been removed
 EnCoef did   100 forward-backward iterations
 IWarn =    2
 Energies =   -706.397154854      -706.397154743      -706.397154780      -706.397154609    
 Point number   2 has energy  -0.7063971547D+03 and has been removed
 IWarn =    0
 DidBck=T Rises=T RFO-DIIS coefs:    0.60964    0.40006    0.03615   -0.04586    0.00000
                  RFO-DIIS coefs:    0.00000    0.00000    0.00000    0.00000    0.00000
 Iteration  1 RMS(Cart)=  0.00030356 RMS(Int)=  0.00000004
 Iteration  2 RMS(Cart)=  0.00000006 RMS(Int)=  0.00000000
 Iteration  1 RMS(Cart)=  0.00000000 RMS(Int)=  0.00000000
 ITry= 1 IFail=0 DXMaxC= 9.47D-04 DCOld= 1.00D+10 DXMaxT= 5.00D-02 DXLimC= 3.00D+00 Rises=F
 Variable       Old X    -DE/DX   Delta X   Delta X   Delta X     New X
                                 (Linear)    (Quad)   (Total)
    R1        2.17212   0.00000   0.00000   0.00000   0.00000   2.17211
    R2        2.76782   0.00000   0.00000   0.00000   0.00000   2.76782
    R3        4.91329  -0.00983   0.00000   0.00000   0.00000   4.91329
    R4        4.91329  -0.00454   0.00000   0.00000   0.00000   4.91329
    R5        2.05310   0.00000   0.00000   0.00000   0.00000   2.05310
    R6        2.07327   0.00000   0.00000   0.00000   0.00000   2.07327
    R7        2.07307   0.00000   0.00000   0.00000   0.00000   2.07307
    R8        2.22503   0.00000   0.00000   0.00000   0.00000   2.22503
    A1        2.59933   0.00000   0.00002   0.00002   0.00003   2.59937
    A2        1.85209   0.00000   0.00009   0.00004   0.00012   1.85221
    A3        1.78678   0.00000   0.00005  -0.00001   0.00004   1.78682
    A4        1.69308  -0.00001  -0.00009  -0.00005  -0.00014   1.69294
    A5        1.61914   0.00000   0.00007   0.00001   0.00007   1.61921
    A6        1.77277   0.00000  -0.00031  -0.00001  -0.00032   1.77245
    A7        1.93846   0.00000  -0.00002   0.00001  -0.00002   1.93845
    A8        1.86303   0.00000   0.00001  -0.00001  -0.00001   1.86302
    A9        1.86247   0.00000   0.00003   0.00000   0.00002   1.86249
   A10        1.92883   0.00000  -0.00001   0.00000  -0.00001   1.92882
   A11        1.93490   0.00000   0.00001   0.00000   0.00002   1.93491
   A12        1.93394   0.00000  -0.00001   0.00001   0.00000   1.93393
   A13        3.13859   0.00000   0.00004   0.00002   0.00006   3.13865
   A14        3.00341   0.00000   0.00048  -0.00001   0.00047   3.00389
    D1        2.99575   0.00000  -0.00001   0.00002   0.00002   2.99576
    D2       -1.18374   0.00000  -0.00003   0.00002  -0.00001  -1.18375
    D3        0.88500   0.00000  -0.00002   0.00002  -0.00001   0.88500
    D4       -0.87472   0.00000   0.00005   0.00002   0.00007  -0.87465
    D5        1.22898   0.00000   0.00003   0.00002   0.00004   1.22902
    D6       -2.98546   0.00000   0.00003   0.00002   0.00005  -2.98542
    D7        0.90590   0.00000  -0.00026   0.00001  -0.00025   0.90565
    D8        3.00960   0.00000  -0.00028   0.00001  -0.00028   3.00933
    D9       -1.20484   0.00000  -0.00028   0.00001  -0.00028  -1.20511
         Item               Value     Threshold  Converged?
 Maximum Force            0.000008     0.000450     YES
 RMS     Force            0.000003     0.000300     YES
 Maximum Displacement     0.000947     0.001800     YES
 RMS     Displacement     0.000304     0.001200     YES
 Predicted change in Energy=-2.216179D-09
 Optimization completed.
    -- Stationary point found.
                           ----------------------------
                           !   Optimized Parameters   !
                           ! (Angstroms and Degrees)  !
 --------------------------                            --------------------------
 ! Name  Definition              Value          Derivative Info.                !
 --------------------------------------------------------------------------------
 ! R1    R(1,2)                  1.1494         -DE/DX =    0.0                 !
 ! R2    R(1,3)                  1.4647         -DE/DX =    0.0                 !
 ! R3    R(1,7)                  2.6            -DE/DX =   -0.0098              !
 ! R4    R(1,8)                  2.6            -DE/DX =   -0.0045              !
 ! R5    R(3,4)                  1.0865         -DE/DX =    0.0                 !
 ! R6    R(3,5)                  1.0971         -DE/DX =    0.0                 !
 ! R7    R(3,6)                  1.097          -DE/DX =    0.0                 !
 ! R8    R(8,9)                  1.1774         -DE/DX =    0.0                 !
 ! A1    A(2,1,3)              148.9308         -DE/DX =    0.0                 !
 ! A2    A(2,1,7)              106.1169         -DE/DX =    0.0                 !
 ! A3    A(2,1,8)              102.3751         -DE/DX =    0.0                 !
 ! A4    A(3,1,7)               97.0062         -DE/DX =    0.0                 !
 ! A5    A(3,1,8)               92.7698         -DE/DX =    0.0                 !
 ! A6    A(7,1,8)              101.5721         -DE/DX =    0.0                 !
 ! A7    A(1,3,4)              111.0657         -DE/DX =    0.0                 !
 ! A8    A(1,3,5)              106.7437         -DE/DX =    0.0                 !
 ! A9    A(1,3,6)              106.7119         -DE/DX =    0.0                 !
 ! A10   A(4,3,5)              110.5139         -DE/DX =    0.0                 !
 ! A11   A(4,3,6)              110.8614         -DE/DX =    0.0                 !
 ! A12   A(5,3,6)              110.8064         -DE/DX =    0.0                 !
 ! A13   L(1,8,9,6,-1)         179.828          -DE/DX =    0.0                 !
 ! A14   L(1,8,9,6,-2)         172.083          -DE/DX =    0.0                 !
 ! D1    D(2,1,3,4)            171.6436         -DE/DX =    0.0                 !
 ! D2    D(2,1,3,5)            -67.8232         -DE/DX =    0.0                 !
 ! D3    D(2,1,3,6)             50.707          -DE/DX =    0.0                 !
 ! D4    D(7,1,3,4)            -50.1179         -DE/DX =    0.0                 !
 ! D5    D(7,1,3,5)             70.4153         -DE/DX =    0.0                 !
 ! D6    D(7,1,3,6)           -171.0545         -DE/DX =    0.0                 !
 ! D7    D(8,1,3,4)             51.9043         -DE/DX =    0.0                 !
 ! D8    D(8,1,3,5)            172.4376         -DE/DX =    0.0                 !
 ! D9    D(8,1,3,6)            -69.0322         -DE/DX =    0.0                 !
 --------------------------------------------------------------------------------
 Largest change from initial coordinates is atom    4       0.126 Angstoms.
 GradGradGradGradGradGradGradGradGradGradGradGradGradGradGradGradGradGrad

 Leave Link  103 at Wed Jan  8 01:57:40 2020, MaxMem=  4294967296 cpu:              62.3 elap:               5.2
 (Enter /home/cwagen/sw/g16/g16/l202.exe)
                          Input orientation:                          
 ---------------------------------------------------------------------
 Center     Atomic      Atomic             Coordinates (Angstroms)
 Number     Number       Type             X           Y           Z
 ---------------------------------------------------------------------
      1          6           0       -0.229204   -0.507193   -0.377787
      2          8           0       -0.237838   -0.394849   -1.521686
      3          6           0       -0.295865   -1.378303    0.797789
      4          1           0       -0.076675   -0.825018    1.706754
      5          1           0       -1.313900   -1.785893    0.831834
      6          1           0        0.438823   -2.177590    0.640208
      7         17           0       -1.751319    1.387930    0.545075
      8          6           0        2.135982    0.370955    0.250507
      9          7           0        3.241570    0.728422    0.440882
 ---------------------------------------------------------------------
                    Distance matrix (angstroms):
                    1          2          3          4          5
     1  C    0.000000
     2  O    1.149434   0.000000
     3  C    1.464669   2.520022   0.000000
     4  H    2.114140   3.260957   1.086455   0.000000
     5  H    2.067564   2.938021   1.097126   1.794294   0.000000
     6  H    2.067075   2.882675   1.097021   1.797973   1.806152
     7  Cl   2.600000   3.120965   3.135962   3.008500   3.216632
     8  C    2.600000   3.059762   3.045209   2.906348   4.109941
     9  N    3.774021   4.149662   4.132689   3.876385   5.217944
                    6          7          8          9
     6  H    0.000000
     7  Cl   4.185535   0.000000
     8  C    3.086631   4.028910   0.000000
     9  N    4.042280   5.037336   1.177434   0.000000
 Stoichiometry    C3H3ClNO(1-)
 Framework group  C1[X(C3H3ClNO)]
 Deg. of freedom    21
 Full point group                 C1      NOp   1
 RotChk:  IX=0 Diff= 6.49D-16
 Largest Abelian subgroup         C1      NOp   1
 Largest concise Abelian subgroup C1      NOp   1
                         Standard orientation:                         
 ---------------------------------------------------------------------
 Center     Atomic      Atomic             Coordinates (Angstroms)
 Number     Number       Type             X           Y           Z
 ---------------------------------------------------------------------
      1          6           0       -0.102450    0.879971    0.247999
      2          8           0       -0.097946    1.146899    1.366001
      3          6           0       -0.071738    1.322993   -1.147725
      4          1           0        0.041103    0.479279   -1.822853
      5          1           0       -1.020099    1.841623   -1.335657
      6          1           0        0.775321    2.013846   -1.240841
      7         17           0       -1.907535   -0.968138   -0.045534
      8          6           0        2.092698   -0.489873   -0.006660
      9          7           0        3.129181   -1.047163   -0.045182
 ---------------------------------------------------------------------
 Rotational constants (GHZ):           3.1040759           1.3611953           1.1771240
 Leave Link  202 at Wed Jan  8 01:57:40 2020, MaxMem=  4294967296 cpu:               2.8 elap:               0.3
 (Enter /home/cwagen/sw/g16/g16/l601.exe)
 Copying SCF densities to generalized density rwf, IOpCl= 0 IROHF=0.

 **********************************************************************

            Population analysis using the SCF density.

 **********************************************************************

 Orbital symmetries:
       Occupied  (A) (A) (A) (A) (A) (A) (A) (A) (A) (A) (A) (A)
                 (A) (A) (A) (A) (A) (A) (A) (A) (A) (A) (A) (A)
                 (A) (A) (A)
       Virtual   (A) (A) (A) (A) (A) (A) (A) (A) (A) (A) (A) (A)
                 (A) (A) (A) (A) (A) (A) (A) (A) (A) (A) (A) (A)
                 (A) (A) (A) (A) (A) (A) (A) (A) (A) (A) (A) (A)
                 (A) (A) (A) (A) (A) (A) (A) (A) (A) (A) (A) (A)
                 (A) (A) (A) (A) (A) (A) (A) (A) (A) (A) (A) (A)
                 (A) (A) (A) (A) (A) (A) (A) (A) (A) (A) (A) (A)
                 (A) (A) (A) (A) (A) (A) (A) (A) (A) (A) (A) (A)
                 (A) (A) (A) (A) (A) (A) (A) (A) (A) (A) (A) (A)
                 (A)
 The electronic state is 1-A.
 Alpha  occ. eigenvalues -- -101.44728 -19.25022 -14.27377 -10.37608 -10.22460
 Alpha  occ. eigenvalues --  -10.14237  -9.36086  -7.12054  -7.11769  -7.11756
 Alpha  occ. eigenvalues --   -1.15602  -0.83029  -0.79161  -0.69972  -0.56789
 Alpha  occ. eigenvalues --   -0.49902  -0.49439  -0.48804  -0.41706  -0.41384
 Alpha  occ. eigenvalues --   -0.36290  -0.27886  -0.27851  -0.25446  -0.24623
 Alpha  occ. eigenvalues --   -0.23806  -0.23763
 Alpha virt. eigenvalues --   -0.06484  -0.03184   0.02488   0.04786   0.05133
 Alpha virt. eigenvalues --    0.05319   0.07528   0.07929   0.08735   0.09767
 Alpha virt. eigenvalues --    0.09944   0.10884   0.11191   0.12597   0.13346
 Alpha virt. eigenvalues --    0.13766   0.13976   0.16347   0.17114   0.19288
 Alpha virt. eigenvalues --    0.21837   0.22668   0.24274   0.24904   0.25578
 Alpha virt. eigenvalues --    0.26025   0.27746   0.28176   0.31874   0.33019
 Alpha virt. eigenvalues --    0.36187   0.40013   0.48543   0.54446   0.63251
 Alpha virt. eigenvalues --    0.63965   0.64978   0.67649   0.69437   0.70378
 Alpha virt. eigenvalues --    0.73242   0.75858   0.76233   0.79949   0.80829
 Alpha virt. eigenvalues --    0.83315   0.86956   0.93958   0.96088   0.96564
 Alpha virt. eigenvalues --    0.97375   0.98312   0.99545   1.00178   1.02946
 Alpha virt. eigenvalues --    1.03649   1.04815   1.14769   1.19189   1.23196
 Alpha virt. eigenvalues --    1.24278   1.27203   1.27295   1.37322   1.41081
 Alpha virt. eigenvalues --    1.45494   1.50612   1.55697   1.60049   1.60522
 Alpha virt. eigenvalues --    1.61329   1.62971   1.71688   1.80426   1.81292
 Alpha virt. eigenvalues --    1.83485   1.98755   2.02278   2.02546   2.08368
 Alpha virt. eigenvalues --    2.22779   2.23555   2.34863   2.51013   2.63851
 Alpha virt. eigenvalues --    2.65787   2.65956   2.70533   2.93450   3.09049
 Alpha virt. eigenvalues --    3.19937   4.01996   4.19506   4.28232   4.30801
 Alpha virt. eigenvalues --    4.40483   4.50439
          Condensed to atoms (all electrons):
               1          2          3          4          5          6
     1  C    5.160535   0.505955  -0.170943  -0.066698  -0.039140  -0.041762
     2  O    0.505955   7.777343  -0.021797   0.005565  -0.001884  -0.001548
     3  C   -0.170943  -0.021797   5.909366   0.405820   0.352148   0.367010
     4  H   -0.066698   0.005565   0.405820   0.386927  -0.018617  -0.018867
     5  H   -0.039140  -0.001884   0.352148  -0.018617   0.424026  -0.021002
     6  H   -0.041762  -0.001548   0.367010  -0.018867  -0.021002   0.426946
     7  Cl   0.067539  -0.045911  -0.019184  -0.004089  -0.006905   0.006114
     8  C    0.176743  -0.076551  -0.221958  -0.009457   0.014974  -0.012851
     9  N   -0.010610   0.001117   0.002772  -0.000098  -0.000088  -0.000338
               7          8          9
     1  C    0.067539   0.176743  -0.010610
     2  O   -0.045911  -0.076551   0.001117
     3  C   -0.019184  -0.221958   0.002772
     4  H   -0.004089  -0.009457  -0.000098
     5  H   -0.006905   0.014974  -0.000088
     6  H    0.006114  -0.012851  -0.000338
     7  Cl  17.769256  -0.060844  -0.001982
     8  C   -0.060844   5.767573   0.648572
     9  N   -0.001982   0.648572   7.015622
 Mulliken charges:
               1
     1  C    0.418382
     2  O   -0.142288
     3  C   -0.603234
     4  H    0.319514
     5  H    0.296488
     6  H    0.296298
     7  Cl  -0.703994
     8  C   -0.226199
     9  N   -0.654967
 Sum of Mulliken charges =  -1.00000
 Mulliken charges with hydrogens summed into heavy atoms:
               1
     1  C    0.418382
     2  O   -0.142288
     3  C    0.309066
     7  Cl  -0.703994
     8  C   -0.226199
     9  N   -0.654967
 Electronic spatial extent (au):  <R**2>=           1019.3749
 Charge=             -1.0000 electrons
 Dipole moment (field-independent basis, Debye):
    X=             -4.2686    Y=              9.7548    Z=             -2.5559  Tot=             10.9503
 Quadrupole moment (field-independent basis, Debye-Ang):
   XX=            -91.6613   YY=            -49.0845   ZZ=            -44.9918
   XY=              3.7265   XZ=              0.4205   YZ=             -4.1074
 Traceless Quadrupole moment (field-independent basis, Debye-Ang):
   XX=            -29.7487   YY=             12.8280   ZZ=             16.9207
   XY=              3.7265   XZ=              0.4205   YZ=             -4.1074
 Octapole moment (field-independent basis, Debye-Ang**2):
  XXX=            -92.8372  YYY=             33.2540  ZZZ=             -3.2822  XYY=            -10.9171
  XXY=             54.8279  XXZ=              2.4741  XZZ=             -4.4792  YZZ=              7.6126
  YYZ=             -4.5138  XYZ=              0.0767
 Hexadecapole moment (field-independent basis, Debye-Ang**3):
 XXXX=          -1390.2664 YYYY=           -344.9924 ZZZZ=           -181.1758 XXXY=            100.3143
 XXXZ=              5.2267 YYYX=             18.2306 YYYZ=             -7.5445 ZZZX=              0.3690
 ZZZY=             -3.3076 XXYY=           -269.6532 XXZZ=           -198.5428 YYZZ=            -86.5670
 XXYZ=             -3.9169 YYXZ=              0.8657 ZZXY=              2.2149
 N-N= 2.230696919736D+02 E-N=-2.123269002750D+03  KE= 7.024056401802D+02
 No NMR shielding tensors so no spin-rotation constants.
 Leave Link  601 at Wed Jan  8 01:57:42 2020, MaxMem=  4294967296 cpu:              20.4 elap:               2.0
 (Enter /home/cwagen/sw/g16/g16/l9999.exe)
 1\1\GINC-NODE081\FOpt\RB3LYP\6-31+G(d)\C3H3Cl1N1O1(1-)\CWAGEN\08-Jan-2
 020\0\\#p opt=modredundant b3lyp/6-31+g(d) scrf=(smd, solvent=tetrahyd
 rofuran)\\title\\-1,1\C,-0.229203924,-0.5071932055,-0.3777871876\O,-0.
 2378384063,-0.3948493941,-1.5216857187\C,-0.2958645259,-1.3783034155,0
 .7977892521\H,-0.076675234,-0.8250183374,1.7067538471\H,-1.3138999652,
 -1.7858933673,0.8318338066\H,0.4388228375,-2.177589543,0.6402075731\Cl
 ,-1.7513190134,1.3879299875,0.5450745241\C,2.1359815304,0.3709547885,0
 .2505072357\N,3.2415703709,0.7284220068,0.4408815276\\Version=AS64L-G1
 6RevA.03\State=1-A\HF=-706.3971546\RMSD=5.026e-09\RMSF=2.831e-03\Dipol
 e=-2.2447383,-3.6687116,-0.2495054\Quadrupole=-22.1890093,11.7615929,1
 0.4274165,2.3896919,-0.8308865,-3.19223\PG=C01 [X(C3H3Cl1N1O1)]\\@


 A MATHEMATICIAN IS A MACHINE FOR TURNING COFFEE INTO THEOREMS.
     -- QUOTED BY PAUL ERDOS
 Job cpu time:       0 days  4 hours 57 minutes 38.8 seconds.
 Elapsed time:       0 days  0 hours 26 minutes 31.5 seconds.
 File lengths (MBytes):  RWF=     71 Int=      0 D2E=      0 Chk=      3 Scr=      1
 Normal termination of Gaussian 16 at Wed Jan  8 01:57:44 2020.
