 Entering Gaussian System, Link 0=g16
 Input=scan_250_260.gjf
 Output=scan_250_260.out
 Initial command:
 /home/cwagen/sw/g16/g16/l1.exe "/scratch/users/cwagen/cwagen_scan_250_260/Gau-4461.inp" -scrdir="/scratch/users/cwagen/cwagen_scan_250_260/"
 Entering Link 1 = /home/cwagen/sw/g16/g16/l1.exe PID=      4462.
  
 Copyright (c) 1988,1990,1992,1993,1995,1998,2003,2009,2016,
            Gaussian, Inc.  All Rights Reserved.
  
 This is part of the Gaussian(R) 16 program.  It is based on
 the Gaussian(R) 09 system (copyright 2009, Gaussian, Inc.),
 the Gaussian(R) 03 system (copyright 2003, Gaussian, Inc.),
 the Gaussian(R) 98 system (copyright 1998, Gaussian, Inc.),
 the Gaussian(R) 94 system (copyright 1995, Gaussian, Inc.),
 the Gaussian 92(TM) system (copyright 1992, Gaussian, Inc.),
 the Gaussian 90(TM) system (copyright 1990, Gaussian, Inc.),
 the Gaussian 88(TM) system (copyright 1988, Gaussian, Inc.),
 the Gaussian 86(TM) system (copyright 1986, Carnegie Mellon
 University), and the Gaussian 82(TM) system (copyright 1983,
 Carnegie Mellon University). Gaussian is a federally registered
 trademark of Gaussian, Inc.
  
 This software contains proprietary and confidential information,
 including trade secrets, belonging to Gaussian, Inc.
  
 This software is provided under written license and may be
 used, copied, transmitted, or stored only in accord with that
 written license.
  
 The following legend is applicable only to US Government
 contracts under FAR:
  
                    RESTRICTED RIGHTS LEGEND
  
 Use, reproduction and disclosure by the US Government is
 subject to restrictions as set forth in subparagraphs (a)
 and (c) of the Commercial Computer Software - Restricted
 Rights clause in FAR 52.227-19.
  
 Gaussian, Inc.
 340 Quinnipiac St., Bldg. 40, Wallingford CT 06492
  
  
 ---------------------------------------------------------------
 Warning -- This program may not be used in any manner that
 competes with the business of Gaussian, Inc. or will provide
 assistance to any competitor of Gaussian, Inc.  The licensee
 of this program is prohibited from giving any competitor of
 Gaussian, Inc. access to this program.  By using this program,
 the user acknowledges that Gaussian, Inc. is engaged in the
 business of creating and licensing software in the field of
 computational chemistry and represents and warrants to the
 licensee that it is not a competitor of Gaussian, Inc. and that
 it will not use this program in any manner prohibited above.
 ---------------------------------------------------------------
  

 Cite this work as:
 Gaussian 16, Revision A.03,
 M. J. Frisch, G. W. Trucks, H. B. Schlegel, G. E. Scuseria, 
 M. A. Robb, J. R. Cheeseman, G. Scalmani, V. Barone, 
 G. A. Petersson, H. Nakatsuji, X. Li, M. Caricato, A. V. Marenich, 
 J. Bloino, B. G. Janesko, R. Gomperts, B. Mennucci, H. P. Hratchian, 
 J. V. Ortiz, A. F. Izmaylov, J. L. Sonnenberg, D. Williams-Young, 
 F. Ding, F. Lipparini, F. Egidi, J. Goings, B. Peng, A. Petrone, 
 T. Henderson, D. Ranasinghe, V. G. Zakrzewski, J. Gao, N. Rega, 
 G. Zheng, W. Liang, M. Hada, M. Ehara, K. Toyota, R. Fukuda, 
 J. Hasegawa, M. Ishida, T. Nakajima, Y. Honda, O. Kitao, H. Nakai, 
 T. Vreven, K. Throssell, J. A. Montgomery, Jr., J. E. Peralta, 
 F. Ogliaro, M. J. Bearpark, J. J. Heyd, E. N. Brothers, K. N. Kudin, 
 V. N. Staroverov, T. A. Keith, R. Kobayashi, J. Normand, 
 K. Raghavachari, A. P. Rendell, J. C. Burant, S. S. Iyengar, 
 J. Tomasi, M. Cossi, J. M. Millam, M. Klene, C. Adamo, R. Cammi, 
 J. W. Ochterski, R. L. Martin, K. Morokuma, O. Farkas, 
 J. B. Foresman, and D. J. Fox, Gaussian, Inc., Wallingford CT, 2016.
 
 ******************************************
 Gaussian 16:  AS64L-G16RevA.03 25-Dec-2016
                 8-Jan-2020 
 ******************************************
 %nprocshared=16
 Will use up to   16 processors via shared memory.
 %mem=32GB
 ----------------------------------------------------------------------
 #p opt=modredundant b3lyp/6-31+g(d) scrf=(smd, solvent=tetrahydrofuran
 )
 ----------------------------------------------------------------------
 1/18=120,19=15,26=3,38=1/1,3;
 2/9=110,12=2,17=6,18=5,40=1/2;
 3/5=1,6=6,7=11,11=2,25=1,30=1,70=32201,71=1,72=20,74=-5/1,2,3;
 4//1;
 5/5=2,38=5,53=20/2;
 6/7=2,8=2,9=2,10=2,28=1/1;
 7//1,2,3,16;
 1/18=20,19=15,26=3/3(2);
 2/9=110/2;
 99//99;
 2/9=110/2;
 3/5=1,6=6,7=11,11=2,25=1,30=1,70=32205,71=1,72=20,74=-5/1,2,3;
 4/5=5,16=3,69=1/1;
 5/5=2,38=5,53=20/2;
 7//1,2,3,16;
 1/18=20,19=15,26=3/3(-5);
 2/9=110/2;
 6/7=2,8=2,9=2,10=2,19=2,28=1/1;
 99/9=1/99;
 Leave Link    1 at Wed Jan  8 01:19:39 2020, MaxMem=  4294967296 cpu:               1.7 elap:               0.1
 (Enter /home/cwagen/sw/g16/g16/l101.exe)
 -----
 title
 -----
 Symbolic Z-matrix:
 Charge = -1 Multiplicity = 1
 6                    -0.19426  -0.292    -0.21291 
 8                    -0.25532  -0.66526  -1.45426 
 6                    -0.33095  -1.45422   0.81632 
 1                    -0.18039  -1.13044   1.85373 
 1                    -1.34067  -1.87301   0.71427 
 1                     0.39707  -2.23395   0.57058 
 17                   -1.69111   1.60688   0.42247 
 6                     2.21625   0.5521    0.27382 
 7                     3.35082   0.8324    0.30413 
 
 Add virtual bond connecting atoms Cl7        and C1         Dist= 4.72D+00.
 Add virtual bond connecting atoms C8         and C1         Dist= 4.91D+00.
 The following ModRedundant input section has been read:
 B       1       7 F                                                           
 B       1       8 F                                                           
 
 ITRead=  0  0  0  0  0  0  0  0  0
 MicOpt= -1 -1 -1 -1 -1 -1 -1 -1 -1
 NAtoms=      9 NQM=        9 NQMF=       0 NMMI=      0 NMMIF=      0
                NMic=       0 NMicF=      0.
                    Isotopes and Nuclear Properties:
 (Nuclear quadrupole moments (NQMom) in fm**2, nuclear magnetic moments (NMagM)
  in nuclear magnetons)

  Atom         1           2           3           4           5           6           7           8           9
 IAtWgt=          12          16          12           1           1           1          35          12          14
 AtmWgt=  12.0000000  15.9949146  12.0000000   1.0078250   1.0078250   1.0078250  34.9688527  12.0000000  14.0030740
 NucSpn=           0           0           0           1           1           1           3           0           2
 AtZEff=   0.0000000   0.0000000   0.0000000   0.0000000   0.0000000   0.0000000   0.0000000   0.0000000   0.0000000
 NQMom=    0.0000000   0.0000000   0.0000000   0.0000000   0.0000000   0.0000000  -8.1650000   0.0000000   2.0440000
 NMagM=    0.0000000   0.0000000   0.0000000   2.7928460   2.7928460   2.7928460   0.8218740   0.0000000   0.4037610
 AtZNuc=   6.0000000   8.0000000   6.0000000   1.0000000   1.0000000   1.0000000  17.0000000   6.0000000   7.0000000
 Leave Link  101 at Wed Jan  8 01:19:39 2020, MaxMem=  4294967296 cpu:               6.8 elap:               0.7
 (Enter /home/cwagen/sw/g16/g16/l103.exe)

 GradGradGradGradGradGradGradGradGradGradGradGradGradGradGradGradGradGrad
 Berny optimization.
 Initialization pass.
                           ----------------------------
                           !    Initial Parameters    !
                           ! (Angstroms and Degrees)  !
 --------------------------                            --------------------------
 ! Name  Definition              Value          Derivative Info.                !
 --------------------------------------------------------------------------------
 ! R1    R(1,2)                  1.2977         estimate D2E/DX2                !
 ! R2    R(1,3)                  1.5584         estimate D2E/DX2                !
 ! R3    R(1,7)                  2.5            Frozen                          !
 ! R4    R(1,8)                  2.6            Frozen                          !
 ! R5    R(3,4)                  1.0971         estimate D2E/DX2                !
 ! R6    R(3,5)                  1.0979         estimate D2E/DX2                !
 ! R7    R(3,6)                  1.0947         estimate D2E/DX2                !
 ! R8    R(8,9)                  1.1691         estimate D2E/DX2                !
 ! A1    A(2,1,3)              114.4006         estimate D2E/DX2                !
 ! A2    A(2,1,7)              115.6846         estimate D2E/DX2                !
 ! A3    A(2,1,8)              108.426          estimate D2E/DX2                !
 ! A4    A(3,1,7)              110.248          estimate D2E/DX2                !
 ! A5    A(3,1,8)              101.5248         estimate D2E/DX2                !
 ! A6    A(7,1,8)              105.1256         estimate D2E/DX2                !
 ! A7    A(1,3,4)              113.1005         estimate D2E/DX2                !
 ! A8    A(1,3,5)              107.683          estimate D2E/DX2                !
 ! A9    A(1,3,6)              108.9421         estimate D2E/DX2                !
 ! A10   A(4,3,5)              109.0662         estimate D2E/DX2                !
 ! A11   A(4,3,6)              109.3417         estimate D2E/DX2                !
 ! A12   A(5,3,6)              108.6067         estimate D2E/DX2                !
 ! A13   L(1,8,9,6,-1)         177.1877         estimate D2E/DX2                !
 ! A14   L(1,8,9,6,-2)         164.4688         estimate D2E/DX2                !
 ! D1    D(2,1,3,4)            174.4714         estimate D2E/DX2                !
 ! D2    D(2,1,3,5)            -64.9488         estimate D2E/DX2                !
 ! D3    D(2,1,3,6)             52.6633         estimate D2E/DX2                !
 ! D4    D(7,1,3,4)            -53.1046         estimate D2E/DX2                !
 ! D5    D(7,1,3,5)             67.4752         estimate D2E/DX2                !
 ! D6    D(7,1,3,6)           -174.9127         estimate D2E/DX2                !
 ! D7    D(8,1,3,4)             57.938          estimate D2E/DX2                !
 ! D8    D(8,1,3,5)            178.5177         estimate D2E/DX2                !
 ! D9    D(8,1,3,6)            -63.8702         estimate D2E/DX2                !
 --------------------------------------------------------------------------------
 Trust Radius=3.00D-01 FncErr=1.00D-07 GrdErr=1.00D-06 EigMax=2.50D+02 EigMin=1.00D-04
 Number of steps in this run=     41 maximum allowed number of steps=    100.
 GradGradGradGradGradGradGradGradGradGradGradGradGradGradGradGradGradGrad

 Leave Link  103 at Wed Jan  8 01:19:40 2020, MaxMem=  4294967296 cpu:               0.6 elap:               0.2
 (Enter /home/cwagen/sw/g16/g16/l202.exe)
                          Input orientation:                          
 ---------------------------------------------------------------------
 Center     Atomic      Atomic             Coordinates (Angstroms)
 Number     Number       Type             X           Y           Z
 ---------------------------------------------------------------------
      1          6           0       -0.194263   -0.291999   -0.212908
      2          8           0       -0.255321   -0.665256   -1.454255
      3          6           0       -0.330945   -1.454221    0.816316
      4          1           0       -0.180394   -1.130438    1.853734
      5          1           0       -1.340665   -1.873010    0.714272
      6          1           0        0.397068   -2.233949    0.570583
      7         17           0       -1.691111    1.606880    0.422470
      8          6           0        2.216254    0.552100    0.273822
      9          7           0        3.350825    0.832398    0.304125
 ---------------------------------------------------------------------
                    Distance matrix (angstroms):
                    1          2          3          4          5
     1  C    0.000000
     2  O    1.297687   0.000000
     3  C    1.558443   2.404928   0.000000
     4  H    2.230287   3.341377   1.097150   0.000000
     5  H    2.161827   2.709087   1.097876   1.787740   0.000000
     6  H    2.175937   2.643176   1.094698   1.788205   1.780629
     7  Cl   2.500000   3.278138   3.372759   3.438560   3.509643
     8  C    2.600000   3.252213   3.287528   3.327307   4.327450
     9  N    3.754895   4.282424   4.364217   4.327068   5.431163
                    6          7          8          9
     6  H    0.000000
     7  Cl   4.374288   0.000000
     8  C    3.340594   4.049957   0.000000
     9  N    4.265930   5.102445   1.169075   0.000000
 Stoichiometry    C3H3ClNO(1-)
 Framework group  C1[X(C3H3ClNO)]
 Deg. of freedom    21
 Full point group                 C1      NOp   1
 Largest Abelian subgroup         C1      NOp   1
 Largest concise Abelian subgroup C1      NOp   1
                         Standard orientation:                         
 ---------------------------------------------------------------------
 Center     Atomic      Atomic             Coordinates (Angstroms)
 Number     Number       Type             X           Y           Z
 ---------------------------------------------------------------------
      1          6           0       -0.130428    0.662183    0.206767
      2          8           0       -0.113155    1.271419    1.352422
      3          6           0       -0.109406    1.612547   -1.028186
      4          1           0       -0.027231    1.076942   -1.982184
      5          1           0       -1.043039    2.190128   -1.020432
      6          1           0        0.731401    2.306405   -0.928347
      7         17           0       -1.905770   -1.076181   -0.069372
      8          6           0        2.117521   -0.612319   -0.080235
      9          7           0        3.196582   -1.060603   -0.042739
 ---------------------------------------------------------------------
 Rotational constants (GHZ):           2.7699664           1.3511808           1.0971788
 Leave Link  202 at Wed Jan  8 01:19:40 2020, MaxMem=  4294967296 cpu:               1.1 elap:               0.1
 (Enter /home/cwagen/sw/g16/g16/l301.exe)
 Standard basis: 6-31+G(d) (6D, 7F)
 Ernie: Thresh=  0.10000D-02 Tol=  0.10000D-05 Strict=F.
 There are   124 symmetry adapted cartesian basis functions of A   symmetry.
 There are   124 symmetry adapted basis functions of A   symmetry.
   124 basis functions,   228 primitive gaussians,   124 cartesian basis functions
    27 alpha electrons       27 beta electrons
       nuclear repulsion energy       216.0903673235 Hartrees.
 IExCor=  402 DFT=T Ex+Corr=B3LYP ExCW=0 ScaHFX=  0.200000
 ScaDFX=  0.800000  0.720000  1.000000  0.810000 ScalE2=  1.000000  1.000000
 IRadAn=      5 IRanWt=     -1 IRanGd=            0 ICorTp=0 IEmpDi=  4
 NAtoms=    9 NActive=    9 NUniq=    9 SFac= 1.00D+00 NAtFMM=   60 NAOKFM=F Big=F
 Integral buffers will be    131072 words long.
 Raffenetti 2 integral format.
 Two-electron integral symmetry is turned on.
 ------------------------------------------------------------------------------
 Polarizable Continuum Model (PCM)
 =================================
 Model                : PCM.
 Atomic radii         : SMD-Coulomb.
 Polarization charges : Total charges.
 Charge compensation  : None.
 Solution method      : On-the-fly selection.
 Cavity type          : VdW (van der Waals Surface) (Alpha=1.000).
 Cavity algorithm     : GePol (No added spheres)
                        Default sphere list used, NSphG=    9.
                        Lebedev-Laikov grids with approx.  5.0 points / Ang**2.
                        Smoothing algorithm: York/Karplus (Gamma=1.0000).
                        Polarization charges: spherical gaussians, with
                                              point-specific exponents (IZeta= 3).
                        Self-potential: point-specific (ISelfS= 7).
                        Self-field    : sphere-specific E.n sum rule (ISelfD= 2).
 1st derivatives      : Analytical E(r).r(x)/FMM algorithm (CHGder, D1EAlg=3).
                        Cavity 1st derivative terms included.
 Solvent              : TetraHydroFuran, Eps=   7.425700 Eps(inf)=   1.974025
 ------------------------------------------------------------------------------
 Spheres list:
 ISph  on   Nord     Re0    Alpha      Xe            Ye            Ze
    1   C      1    1.8500  1.000     -0.130428      0.662183      0.206767
    2   O      2    2.2940  1.000     -0.113155      1.271419      1.352422
    3   C      3    1.8500  1.000     -0.109406      1.612547     -1.028186
    4   H      4    1.2000  1.000     -0.027231      1.076942     -1.982184
    5   H      5    1.2000  1.000     -1.043039      2.190128     -1.020432
    6   H      6    1.2000  1.000      0.731401      2.306405     -0.928347
    7  Cl      7    2.3800  1.000     -1.905770     -1.076181     -0.069372
    8   C      8    1.8500  1.000      2.117521     -0.612319     -0.080235
    9   N      9    1.8900  1.000      3.196582     -1.060603     -0.042739
 ------------------------------------------------------------------------------
 GePol: Number of generator spheres                  =       9
 GePol: Total number of spheres                      =       9
 GePol: Number of exposed spheres                    =       9 (100.00%)
 GePol: Number of points                             =    1328
 GePol: Average weight of points                     =       0.13
 GePol: Minimum weight of points                     =   0.50D-07
 GePol: Maximum weight of points                     =    0.18138
 GePol: Number of points with low weight             =      36
 GePol: Fraction of low-weight points (<1% of avg)   =       2.71%
 GePol: Cavity surface area                          =    178.455 Ang**2
 GePol: Cavity volume                                =    158.032 Ang**3
 ------------------------------------------------------------------------------
 Atomic radii for non-electrostatic terms: SMD-CDS.
 ------------------------------------------------------------------------------
 PCM non-electrostatic energy =         0.0009715183 Hartrees.
 Nuclear repulsion after PCM non-electrostatic terms =      216.0913388418 Hartrees.
 Leave Link  301 at Wed Jan  8 01:19:40 2020, MaxMem=  4294967296 cpu:               2.0 elap:               0.2
 (Enter /home/cwagen/sw/g16/g16/l302.exe)
 NPDir=0 NMtPBC=     1 NCelOv=     1 NCel=       1 NClECP=     1 NCelD=      1
         NCelK=      1 NCelE2=     1 NClLst=     1 CellRange=     0.0.
 One-electron integrals computed using PRISM.
 One-electron integral symmetry used in STVInt
 NBasis=   124 RedAO= T EigKep=  1.83D-04  NBF=   124
 NBsUse=   124 1.00D-06 EigRej= -1.00D+00 NBFU=   124
 Precomputing XC quadrature grid using
 IXCGrd= 4 IRadAn=           5 IRanWt=          -1 IRanGd=           0 AccXCQ= 0.00D+00.
 Generated NRdTot=       0 NPtTot=           0 NUsed=           0 NTot=          32
 NSgBfM=   124   124   124   124   124 MxSgAt=     9 MxSgA2=     9.
 Leave Link  302 at Wed Jan  8 01:19:42 2020, MaxMem=  4294967296 cpu:              23.2 elap:               2.0
 (Enter /home/cwagen/sw/g16/g16/l303.exe)
 DipDrv:  MaxL=1.
 Leave Link  303 at Wed Jan  8 01:19:42 2020, MaxMem=  4294967296 cpu:               3.1 elap:               0.3
 (Enter /home/cwagen/sw/g16/g16/l401.exe)
 ExpMin= 4.38D-02 ExpMax= 2.52D+04 ExpMxC= 3.78D+03 IAcc=3 IRadAn=         5 AccDes= 0.00D+00
 Harris functional with IExCor=  402 and IRadAn=       5 diagonalized for initial guess.
 HarFok:  IExCor=  402 AccDes= 0.00D+00 IRadAn=         5 IDoV= 1 UseB2=F ITyADJ=14
 ICtDFT=  3500011 ScaDFX=  1.000000  1.000000  1.000000  1.000000
 FoFCou: FMM=F IPFlag=           0 FMFlag=      100000 FMFlg1=           0
         NFxFlg=           0 DoJE=T BraDBF=F KetDBF=T FulRan=T
         wScrn=  0.000000 ICntrl=       500 IOpCl=  0 I1Cent=   200000004 NGrid=           0
         NMat0=    1 NMatS0=      1 NMatT0=    0 NMatD0=    1 NMtDS0=    0 NMtDT0=    0
 Petite list used in FoFCou.
 Harris En= -706.345613067179    
 JPrj=0 DoOrth=F DoCkMO=F.
 Leave Link  401 at Wed Jan  8 01:19:44 2020, MaxMem=  4294967296 cpu:              26.5 elap:               2.1
 (Enter /home/cwagen/sw/g16/g16/l502.exe)
 Keep R1 ints in memory in canonical form, NReq=45236517.
 FoFCou: FMM=F IPFlag=           0 FMFlag=           0 FMFlg1=           0
         NFxFlg=           0 DoJE=F BraDBF=F KetDBF=F FulRan=T
         wScrn=  0.000000 ICntrl=       600 IOpCl=  0 I1Cent=           0 NGrid=           0
         NMat0=    1 NMatS0=   7750 NMatT0=    0 NMatD0=    1 NMtDS0=    0 NMtDT0=    0
 Symmetry not used in FoFCou.
 Two-electron integral symmetry not used.
 Closed shell SCF:
 Using DIIS extrapolation, IDIIS=  1040.
 NGot=  4294967296 LenX=  4264898079 LenY=  4264882262
 Requested convergence on RMS density matrix=1.00D-08 within 128 cycles.
 Requested convergence on MAX density matrix=1.00D-06.
 Requested convergence on             energy=1.00D-06.
 No special actions if energy rises.

 Cycle   1  Pass 1  IDiag  1:
 Inv3:  Mode=1 IEnd=     5290752.
 Iteration    1 A*A^-1 deviation from unit magnitude is 4.22D-15 for   1325.
 Iteration    1 A*A^-1 deviation from orthogonality  is 1.35D-15 for   1326   1325.
 Iteration    1 A^-1*A deviation from unit magnitude is 4.22D-15 for   1325.
 Iteration    1 A^-1*A deviation from orthogonality  is 1.40D-15 for   1260    152.
 E= -706.159111936170    
 DIIS: error= 2.59D-02 at cycle   1 NSaved=   1.
 NSaved= 1 IEnMin= 1 EnMin= -706.159111936170     IErMin= 1 ErrMin= 2.59D-02
 ErrMax= 2.59D-02  0.00D+00 EMaxC= 1.00D-01 BMatC= 2.00D-01 BMatP= 2.00D-01
 IDIUse=3 WtCom= 7.41D-01 WtEn= 2.59D-01
 Coeff-Com:  0.100D+01
 Coeff-En:   0.100D+01
 Coeff:      0.100D+01
 Gap=     0.131 Goal=   None    Shift=    0.000
 GapD=    0.131 DampG=1.000 DampE=0.500 DampFc=0.5000 IDamp=-1.
 Damping current iteration by 5.00D-01
 RMSDP=1.00D-02 MaxDP=1.95D-01              OVMax= 4.39D-01

 Cycle   2  Pass 1  IDiag  1:
 E= -706.100702831225     Delta-E=        0.058409104945 Rises=F Damp=T
 DIIS: error= 1.91D-02 at cycle   2 NSaved=   2.
 NSaved= 2 IEnMin= 1 EnMin= -706.159111936170     IErMin= 2 ErrMin= 1.91D-02
 ErrMax= 1.91D-02  0.00D+00 EMaxC= 1.00D-01 BMatC= 1.15D-01 BMatP= 2.00D-01
 IDIUse=3 WtCom= 8.09D-01 WtEn= 1.91D-01
 Coeff-Com:  0.415D+00 0.585D+00
 Coeff-En:   0.589D+00 0.411D+00
 Coeff:      0.448D+00 0.552D+00
 Gap=     0.095 Goal=   None    Shift=    0.000
 RMSDP=3.67D-03 MaxDP=8.96D-02 DE= 5.84D-02 OVMax= 2.76D-01

 Cycle   3  Pass 1  IDiag  1:
 E= -706.289728230275     Delta-E=       -0.189025399050 Rises=F Damp=F
 DIIS: error= 1.53D-02 at cycle   3 NSaved=   3.
 NSaved= 3 IEnMin= 3 EnMin= -706.289728230275     IErMin= 3 ErrMin= 1.53D-02
 ErrMax= 1.53D-02  0.00D+00 EMaxC= 1.00D-01 BMatC= 6.35D-02 BMatP= 1.15D-01
 IDIUse=3 WtCom= 8.47D-01 WtEn= 1.53D-01
 EnCoef did     1 forward-backward iterations
 Coeff-Com:  0.191D+00 0.400D+00 0.410D+00
 Coeff-En:   0.418D-01 0.262D-01 0.932D+00
 Coeff:      0.168D+00 0.343D+00 0.489D+00
 Gap=     0.150 Goal=   None    Shift=    0.000
 RMSDP=2.75D-03 MaxDP=7.33D-02 DE=-1.89D-01 OVMax= 1.38D-01

 Cycle   4  Pass 1  IDiag  1:
 E= -706.336144553437     Delta-E=       -0.046416323162 Rises=F Damp=F
 DIIS: error= 9.14D-03 at cycle   4 NSaved=   4.
 NSaved= 4 IEnMin= 4 EnMin= -706.336144553437     IErMin= 4 ErrMin= 9.14D-03
 ErrMax= 9.14D-03  0.00D+00 EMaxC= 1.00D-01 BMatC= 1.62D-02 BMatP= 6.35D-02
 IDIUse=3 WtCom= 9.09D-01 WtEn= 9.14D-02
 Coeff-Com:  0.595D-01 0.933D-01 0.327D+00 0.520D+00
 Coeff-En:   0.000D+00 0.000D+00 0.243D+00 0.757D+00
 Coeff:      0.541D-01 0.848D-01 0.319D+00 0.542D+00
 Gap=     0.140 Goal=   None    Shift=    0.000
 RMSDP=1.22D-03 MaxDP=3.42D-02 DE=-4.64D-02 OVMax= 7.03D-02

 Cycle   5  Pass 1  IDiag  1:
 E= -706.348860695235     Delta-E=       -0.012716141797 Rises=F Damp=F
 DIIS: error= 2.51D-03 at cycle   5 NSaved=   5.
 NSaved= 5 IEnMin= 5 EnMin= -706.348860695235     IErMin= 5 ErrMin= 2.51D-03
 ErrMax= 2.51D-03  0.00D+00 EMaxC= 1.00D-01 BMatC= 1.82D-03 BMatP= 1.62D-02
 IDIUse=3 WtCom= 9.75D-01 WtEn= 2.51D-02
 Coeff-Com:  0.863D-02 0.268D-02 0.149D+00 0.371D+00 0.468D+00
 Coeff-En:   0.000D+00 0.000D+00 0.000D+00 0.122D+00 0.878D+00
 Coeff:      0.841D-02 0.261D-02 0.146D+00 0.365D+00 0.479D+00
 Gap=     0.136 Goal=   None    Shift=    0.000
 RMSDP=4.91D-04 MaxDP=1.16D-02 DE=-1.27D-02 OVMax= 3.05D-02

 Cycle   6  Pass 1  IDiag  1:
 E= -706.350632108957     Delta-E=       -0.001771413722 Rises=F Damp=F
 DIIS: error= 9.14D-04 at cycle   6 NSaved=   6.
 NSaved= 6 IEnMin= 6 EnMin= -706.350632108957     IErMin= 6 ErrMin= 9.14D-04
 ErrMax= 9.14D-04  0.00D+00 EMaxC= 1.00D-01 BMatC= 1.74D-04 BMatP= 1.82D-03
 IDIUse=3 WtCom= 9.91D-01 WtEn= 9.14D-03
 Coeff-Com:  0.200D-02-0.396D-02 0.642D-01 0.168D+00 0.302D+00 0.468D+00
 Coeff-En:   0.000D+00 0.000D+00 0.000D+00 0.000D+00 0.794D-01 0.921D+00
 Coeff:      0.198D-02-0.392D-02 0.636D-01 0.166D+00 0.300D+00 0.472D+00
 Gap=     0.137 Goal=   None    Shift=    0.000
 RMSDP=1.47D-04 MaxDP=5.01D-03 DE=-1.77D-03 OVMax= 5.92D-03

 Cycle   7  Pass 1  IDiag  1:
 E= -706.350817762974     Delta-E=       -0.000185654018 Rises=F Damp=F
 DIIS: error= 2.36D-04 at cycle   7 NSaved=   7.
 NSaved= 7 IEnMin= 7 EnMin= -706.350817762974     IErMin= 7 ErrMin= 2.36D-04
 ErrMax= 2.36D-04  0.00D+00 EMaxC= 1.00D-01 BMatC= 1.08D-05 BMatP= 1.74D-04
 IDIUse=3 WtCom= 9.98D-01 WtEn= 2.36D-03
 Coeff-Com:  0.503D-03-0.307D-02 0.137D-01 0.333D-01 0.947D-01 0.239D+00
 Coeff-Com:  0.622D+00
 Coeff-En:   0.000D+00 0.000D+00 0.000D+00 0.000D+00 0.000D+00 0.000D+00
 Coeff-En:   0.100D+01
 Coeff:      0.502D-03-0.306D-02 0.137D-01 0.332D-01 0.945D-01 0.239D+00
 Coeff:      0.622D+00
 Gap=     0.136 Goal=   None    Shift=    0.000
 RMSDP=4.14D-05 MaxDP=8.04D-04 DE=-1.86D-04 OVMax= 1.70D-03

 Cycle   8  Pass 1  IDiag  1:
 E= -706.350826302256     Delta-E=       -0.000008539282 Rises=F Damp=F
 DIIS: error= 1.30D-04 at cycle   8 NSaved=   8.
 NSaved= 8 IEnMin= 8 EnMin= -706.350826302256     IErMin= 8 ErrMin= 1.30D-04
 ErrMax= 1.30D-04  0.00D+00 EMaxC= 1.00D-01 BMatC= 2.78D-06 BMatP= 1.08D-05
 IDIUse=3 WtCom= 9.99D-01 WtEn= 1.30D-03
 Coeff-Com:  0.107D-03-0.154D-02 0.218D-02 0.339D-02 0.299D-01 0.103D+00
 Coeff-Com:  0.408D+00 0.456D+00
 Coeff-En:   0.000D+00 0.000D+00 0.000D+00 0.000D+00 0.000D+00 0.000D+00
 Coeff-En:   0.202D+00 0.798D+00
 Coeff:      0.107D-03-0.154D-02 0.218D-02 0.339D-02 0.299D-01 0.103D+00
 Coeff:      0.407D+00 0.456D+00
 Gap=     0.136 Goal=   None    Shift=    0.000
 RMSDP=1.75D-05 MaxDP=6.32D-04 DE=-8.54D-06 OVMax= 1.04D-03

 Cycle   9  Pass 1  IDiag  1:
 E= -706.350829165102     Delta-E=       -0.000002862846 Rises=F Damp=F
 DIIS: error= 2.25D-05 at cycle   9 NSaved=   9.
 NSaved= 9 IEnMin= 9 EnMin= -706.350829165102     IErMin= 9 ErrMin= 2.25D-05
 ErrMax= 2.25D-05  0.00D+00 EMaxC= 1.00D-01 BMatC= 1.99D-07 BMatP= 2.78D-06
 IDIUse=1 WtCom= 1.00D+00 WtEn= 0.00D+00
 Coeff-Com:  0.477D-04-0.405D-03-0.456D-03-0.262D-02 0.598D-02 0.295D-01
 Coeff-Com:  0.156D+00 0.269D+00 0.543D+00
 Coeff:      0.477D-04-0.405D-03-0.456D-03-0.262D-02 0.598D-02 0.295D-01
 Coeff:      0.156D+00 0.269D+00 0.543D+00
 Gap=     0.136 Goal=   None    Shift=    0.000
 RMSDP=5.51D-06 MaxDP=1.63D-04 DE=-2.86D-06 OVMax= 2.55D-04

 Cycle  10  Pass 1  IDiag  1:
 E= -706.350829406306     Delta-E=       -0.000000241203 Rises=F Damp=F
 DIIS: error= 5.86D-06 at cycle  10 NSaved=  10.
 NSaved=10 IEnMin=10 EnMin= -706.350829406306     IErMin=10 ErrMin= 5.86D-06
 ErrMax= 5.86D-06  0.00D+00 EMaxC= 1.00D-01 BMatC= 1.04D-08 BMatP= 1.99D-07
 IDIUse=1 WtCom= 1.00D+00 WtEn= 0.00D+00
 Coeff-Com: -0.857D-05-0.608D-05-0.383D-03-0.130D-02 0.622D-04 0.220D-02
 Coeff-Com:  0.176D-01 0.738D-01 0.241D+00 0.667D+00
 Coeff:     -0.857D-05-0.608D-05-0.383D-03-0.130D-02 0.622D-04 0.220D-02
 Coeff:      0.176D-01 0.738D-01 0.241D+00 0.667D+00
 Gap=     0.136 Goal=   None    Shift=    0.000
 RMSDP=1.18D-06 MaxDP=2.28D-05 DE=-2.41D-07 OVMax= 3.54D-05

 Cycle  11  Pass 1  IDiag  1:
 E= -706.350829418925     Delta-E=       -0.000000012619 Rises=F Damp=F
 DIIS: error= 1.16D-06 at cycle  11 NSaved=  11.
 NSaved=11 IEnMin=11 EnMin= -706.350829418925     IErMin=11 ErrMin= 1.16D-06
 ErrMax= 1.16D-06  0.00D+00 EMaxC= 1.00D-01 BMatC= 3.42D-10 BMatP= 1.04D-08
 IDIUse=1 WtCom= 1.00D+00 WtEn= 0.00D+00
 Coeff-Com: -0.187D-04 0.467D-04-0.613D-04-0.794D-04-0.314D-03-0.140D-02
 Coeff-Com: -0.904D-02-0.454D-02 0.448D-02 0.762D-01 0.935D+00
 Coeff:     -0.187D-04 0.467D-04-0.613D-04-0.794D-04-0.314D-03-0.140D-02
 Coeff:     -0.904D-02-0.454D-02 0.448D-02 0.762D-01 0.935D+00
 Gap=     0.136 Goal=   None    Shift=    0.000
 RMSDP=3.09D-07 MaxDP=5.85D-06 DE=-1.26D-08 OVMax= 1.26D-05

 Cycle  12  Pass 1  IDiag  1:
 E= -706.350829419382     Delta-E=       -0.000000000456 Rises=F Damp=F
 DIIS: error= 3.22D-07 at cycle  12 NSaved=  12.
 NSaved=12 IEnMin=12 EnMin= -706.350829419382     IErMin=12 ErrMin= 3.22D-07
 ErrMax= 3.22D-07  0.00D+00 EMaxC= 1.00D-01 BMatC= 1.88D-11 BMatP= 3.42D-10
 IDIUse=1 WtCom= 1.00D+00 WtEn= 0.00D+00
 Coeff-Com: -0.571D-05 0.111D-04-0.295D-06 0.221D-04-0.275D-04-0.196D-03
 Coeff-Com: -0.193D-02-0.235D-02-0.718D-02-0.182D-01 0.124D+00 0.906D+00
 Coeff:     -0.571D-05 0.111D-04-0.295D-06 0.221D-04-0.275D-04-0.196D-03
 Coeff:     -0.193D-02-0.235D-02-0.718D-02-0.182D-01 0.124D+00 0.906D+00
 Gap=     0.136 Goal=   None    Shift=    0.000
 RMSDP=5.93D-08 MaxDP=1.17D-06 DE=-4.56D-10 OVMax= 2.74D-06

 Cycle  13  Pass 1  IDiag  1:
 E= -706.350829419406     Delta-E=       -0.000000000025 Rises=F Damp=F
 DIIS: error= 6.59D-08 at cycle  13 NSaved=  13.
 NSaved=13 IEnMin=13 EnMin= -706.350829419406     IErMin=13 ErrMin= 6.59D-08
 ErrMax= 6.59D-08  0.00D+00 EMaxC= 1.00D-01 BMatC= 5.72D-13 BMatP= 1.88D-11
 IDIUse=1 WtCom= 1.00D+00 WtEn= 0.00D+00
 Coeff-Com: -0.133D-06-0.480D-06 0.281D-05 0.471D-05 0.152D-04 0.459D-04
 Coeff-Com:  0.154D-03 0.777D-04-0.133D-02-0.758D-02-0.306D-01 0.144D+00
 Coeff-Com:  0.895D+00
 Coeff:     -0.133D-06-0.480D-06 0.281D-05 0.471D-05 0.152D-04 0.459D-04
 Coeff:      0.154D-03 0.777D-04-0.133D-02-0.758D-02-0.306D-01 0.144D+00
 Coeff:      0.895D+00
 Gap=     0.136 Goal=   None    Shift=    0.000
 RMSDP=1.46D-08 MaxDP=1.85D-07 DE=-2.46D-11 OVMax= 4.65D-07

 Cycle  14  Pass 1  IDiag  1:
 E= -706.350829419406     Delta-E=        0.000000000001 Rises=F Damp=F
 DIIS: error= 1.72D-08 at cycle  14 NSaved=  14.
 NSaved=14 IEnMin=13 EnMin= -706.350829419406     IErMin=14 ErrMin= 1.72D-08
 ErrMax= 1.72D-08  0.00D+00 EMaxC= 1.00D-01 BMatC= 6.24D-14 BMatP= 5.72D-13
 IDIUse=1 WtCom= 1.00D+00 WtEn= 0.00D+00
 Coeff-Com:  0.290D-06-0.657D-06 0.955D-06 0.621D-06 0.410D-05 0.129D-04
 Coeff-Com:  0.798D-04 0.731D-04-0.646D-04-0.111D-02-0.109D-01 0.382D-02
 Coeff-Com:  0.217D+00 0.791D+00
 Coeff:      0.290D-06-0.657D-06 0.955D-06 0.621D-06 0.410D-05 0.129D-04
 Coeff:      0.798D-04 0.731D-04-0.646D-04-0.111D-02-0.109D-01 0.382D-02
 Coeff:      0.217D+00 0.791D+00
 Gap=     0.136 Goal=   None    Shift=    0.000
 RMSDP=2.94D-09 MaxDP=8.32D-08 DE= 6.82D-13 OVMax= 7.67D-08

 Error on total polarization charges =  0.02427
 SCF Done:  E(RB3LYP) =  -706.350829419     A.U. after   14 cycles
            NFock= 14  Conv=0.29D-08     -V/T= 2.0064
 KE= 7.018528574925D+02 PE=-2.109039534103D+03 EE= 4.847445083496D+02
 SMD-CDS (non-electrostatic) energy       (kcal/mol) =       0.61
 (included in total energy above)
 Leave Link  502 at Wed Jan  8 01:20:23 2020, MaxMem=  4294967296 cpu:             521.9 elap:              39.1
 (Enter /home/cwagen/sw/g16/g16/l601.exe)
 Copying SCF densities to generalized density rwf, IOpCl= 0 IROHF=0.

 **********************************************************************

            Population analysis using the SCF density.

 **********************************************************************

 Orbital symmetries:
       Occupied  (A) (A) (A) (A) (A) (A) (A) (A) (A) (A) (A) (A)
                 (A) (A) (A) (A) (A) (A) (A) (A) (A) (A) (A) (A)
                 (A) (A) (A)
       Virtual   (A) (A) (A) (A) (A) (A) (A) (A) (A) (A) (A) (A)
                 (A) (A) (A) (A) (A) (A) (A) (A) (A) (A) (A) (A)
                 (A) (A) (A) (A) (A) (A) (A) (A) (A) (A) (A) (A)
                 (A) (A) (A) (A) (A) (A) (A) (A) (A) (A) (A) (A)
                 (A) (A) (A) (A) (A) (A) (A) (A) (A) (A) (A) (A)
                 (A) (A) (A) (A) (A) (A) (A) (A) (A) (A) (A) (A)
                 (A) (A) (A) (A) (A) (A) (A) (A) (A) (A) (A) (A)
                 (A) (A) (A) (A) (A) (A) (A) (A) (A) (A) (A) (A)
                 (A)
 The electronic state is 1-A.
 Alpha  occ. eigenvalues -- -101.48600 -19.20680 -14.28412 -10.36521 -10.21359
 Alpha  occ. eigenvalues --  -10.16008  -9.39839  -7.16026  -7.15420  -7.15407
 Alpha  occ. eigenvalues --   -1.04261  -0.84443  -0.74728  -0.72751  -0.55183
 Alpha  occ. eigenvalues --   -0.44477  -0.44454  -0.44066  -0.37897  -0.37022
 Alpha  occ. eigenvalues --   -0.35802  -0.29005  -0.28964  -0.27347  -0.26611
 Alpha  occ. eigenvalues --   -0.26290  -0.25738
 Alpha virt. eigenvalues --   -0.12110  -0.04253   0.03076   0.04591   0.05084
 Alpha virt. eigenvalues --    0.05427   0.07208   0.08135   0.08653   0.09293
 Alpha virt. eigenvalues --    0.10265   0.10616   0.11091   0.11931   0.13105
 Alpha virt. eigenvalues --    0.14105   0.15034   0.16187   0.16855   0.20044
 Alpha virt. eigenvalues --    0.22001   0.23015   0.24346   0.24823   0.25459
 Alpha virt. eigenvalues --    0.26096   0.27067   0.28143   0.30625   0.32518
 Alpha virt. eigenvalues --    0.33978   0.37171   0.40444   0.54976   0.61116
 Alpha virt. eigenvalues --    0.63638   0.65410   0.66621   0.67197   0.69985
 Alpha virt. eigenvalues --    0.72707   0.74510   0.76045   0.77453   0.78638
 Alpha virt. eigenvalues --    0.80742   0.84572   0.91841   0.93603   0.94208
 Alpha virt. eigenvalues --    0.95082   0.96494   0.97510   0.99492   1.01786
 Alpha virt. eigenvalues --    1.03349   1.07693   1.13917   1.16319   1.19286
 Alpha virt. eigenvalues --    1.26215   1.28679   1.31090   1.33040   1.44749
 Alpha virt. eigenvalues --    1.48747   1.49725   1.58125   1.58787   1.59057
 Alpha virt. eigenvalues --    1.61174   1.63763   1.71329   1.75150   1.80047
 Alpha virt. eigenvalues --    1.86827   1.95486   2.01691   2.01838   2.10670
 Alpha virt. eigenvalues --    2.18367   2.22948   2.26733   2.46819   2.48293
 Alpha virt. eigenvalues --    2.52460   2.65361   2.65599   2.70681   2.92942
 Alpha virt. eigenvalues --    3.08829   4.00036   4.14286   4.20437   4.28427
 Alpha virt. eigenvalues --    4.36811   4.41021
          Condensed to atoms (all electrons):
               1          2          3          4          5          6
     1  C    4.987523   0.514363   0.069932  -0.052860  -0.016560  -0.028544
     2  O    0.514363   7.944285  -0.119712   0.007404  -0.007071  -0.006822
     3  C    0.069932  -0.119712   5.744400   0.376373   0.352886   0.375603
     4  H   -0.052860   0.007404   0.376373   0.444962  -0.023258  -0.023202
     5  H   -0.016560  -0.007071   0.352886  -0.023258   0.439147  -0.022538
     6  H   -0.028544  -0.006822   0.375603  -0.023202  -0.022538   0.431862
     7  Cl   0.031402  -0.033087   0.000132   0.004068  -0.004059   0.002139
     8  C    0.190029  -0.061302  -0.170064   0.002459   0.006572  -0.008258
     9  N   -0.004927   0.000065  -0.000504  -0.000210  -0.000040   0.000154
               7          8          9
     1  C    0.031402   0.190029  -0.004927
     2  O   -0.033087  -0.061302   0.000065
     3  C    0.000132  -0.170064  -0.000504
     4  H    0.004068   0.002459  -0.000210
     5  H   -0.004059   0.006572  -0.000040
     6  H    0.002139  -0.008258   0.000154
     7  Cl  17.531908  -0.035996  -0.001601
     8  C   -0.035996   5.581461   0.647251
     9  N   -0.001601   0.647251   6.974015
 Mulliken charges:
               1
     1  C    0.309642
     2  O   -0.238122
     3  C   -0.629047
     4  H    0.264265
     5  H    0.274920
     6  H    0.279607
     7  Cl  -0.494907
     8  C   -0.152154
     9  N   -0.614204
 Sum of Mulliken charges =  -1.00000
 Mulliken charges with hydrogens summed into heavy atoms:
               1
     1  C    0.309642
     2  O   -0.238122
     3  C    0.189745
     7  Cl  -0.494907
     8  C   -0.152154
     9  N   -0.614204
 Electronic spatial extent (au):  <R**2>=           1069.6985
 Charge=             -1.0000 electrons
 Dipole moment (field-independent basis, Debye):
    X=             -5.2499    Y=              7.3891    Z=             -2.6614  Tot=              9.4468
 Quadrupole moment (field-independent basis, Debye-Ang):
   XX=            -85.6996   YY=            -49.4072   ZZ=            -47.5203
   XY=              5.2743   XZ=              0.6787   YZ=             -5.2014
 Traceless Quadrupole moment (field-independent basis, Debye-Ang):
   XX=            -24.8239   YY=             11.4685   ZZ=             13.3553
   XY=              5.2743   XZ=              0.6787   YZ=             -5.2014
 Octapole moment (field-independent basis, Debye-Ang**2):
  XXX=           -103.1679  YYY=             27.6096  ZZZ=             -4.2142  XYY=            -12.9918
  XXY=             48.4602  XXZ=              2.5782  XZZ=             -4.9055  YZZ=              3.6720
  YYZ=             -6.3690  XYZ=              0.2385
 Hexadecapole moment (field-independent basis, Debye-Ang**3):
 XXXX=          -1356.2568 YYYY=           -402.6647 ZZZZ=           -178.6457 XXXY=            115.4232
 XXXZ=              5.8466 YYYX=             23.7147 YYYZ=            -11.1629 ZZZX=              1.5143
 ZZZY=             -5.7371 XXYY=           -271.6408 XXZZ=           -195.9545 YYZZ=            -99.8471
 XXYZ=             -2.5377 YYXZ=              1.8404 ZZXY=              4.1867
 N-N= 2.160913388418D+02 E-N=-2.109039534239D+03  KE= 7.018528574925D+02
 No NMR shielding tensors so no spin-rotation constants.
 Leave Link  601 at Wed Jan  8 01:20:25 2020, MaxMem=  4294967296 cpu:              15.1 elap:               1.2
 (Enter /home/cwagen/sw/g16/g16/l701.exe)
 ... and contract with generalized density number  0.
 Compute integral first derivatives.
 D1PCM: PCM CHGder 1st derivatives, ID1Alg=3 FixD1E=F DoIter=F DoCFld=F I1PDM=0.
 GePol: Maximum number of non-zero 1st derivatives   =     396
 Leave Link  701 at Wed Jan  8 01:20:29 2020, MaxMem=  4294967296 cpu:              56.4 elap:               4.7
 (Enter /home/cwagen/sw/g16/g16/l702.exe)
 L702 exits ... SP integral derivatives will be done elsewhere.
 Leave Link  702 at Wed Jan  8 01:20:30 2020, MaxMem=  4294967296 cpu:               1.1 elap:               0.1
 (Enter /home/cwagen/sw/g16/g16/l703.exe)
 Integral derivatives from FoFJK, PRISM(SPDF).
 Compute integral first derivatives, UseDBF=F ICtDFT=           0.
 Calling FoFJK, ICntrl=      2127 FMM=F ISym2X=0 I1Cent= 0 IOpClX= 0 NMat=1 NMatS=1 NMatT=0.
 FoFJK:  IHMeth= 1 ICntrl=    2127 DoSepK=F KAlg= 0 I1Cent=           0 FoldK=F
 IRaf=         0 NMat=       1 IRICut=       1 DoRegI=T DoRafI=F ISym2E= 0 IDoP0=0 IntGTp=1.
 FoFCou: FMM=F IPFlag=           0 FMFlag=      100000 FMFlg1=         800
         NFxFlg=           0 DoJE=F BraDBF=F KetDBF=F FulRan=T
         wScrn=  0.000000 ICntrl=      2127 IOpCl=  0 I1Cent=           0 NGrid=           0
         NMat0=    1 NMatS0=      1 NMatT0=    0 NMatD0=    1 NMtDS0=    0 NMtDT0=    0
 Symmetry not used in FoFCou.
 Leave Link  703 at Wed Jan  8 01:20:32 2020, MaxMem=  4294967296 cpu:              35.8 elap:               2.8
 (Enter /home/cwagen/sw/g16/g16/l716.exe)
 Dipole        =-2.06547783D+00 2.90707613D+00-1.04706033D+00
 ***** Axes restored to original set *****
 -------------------------------------------------------------------
 Center     Atomic                   Forces (Hartrees/Bohr)
 Number     Number              X              Y              Z
 -------------------------------------------------------------------
      1        6          -0.019145240   -0.083352525   -0.132574104
      2        8           0.010922332    0.071818462    0.136752905
      3        6           0.002721640    0.024629765    0.015959907
      4        1          -0.000322945    0.001580186   -0.004784612
      5        1           0.000326206    0.005060086   -0.002802514
      6        1           0.002171048    0.005030318   -0.004114951
      7       17           0.019490733   -0.021070849   -0.006293708
      8        6          -0.030446471   -0.007193064   -0.002989141
      9        7           0.014282696    0.003497620    0.000846220
 -------------------------------------------------------------------
 Cartesian Forces:  Max     0.136752905 RMS     0.043847999
 Leave Link  716 at Wed Jan  8 01:20:33 2020, MaxMem=  4294967296 cpu:               0.8 elap:               0.1
 (Enter /home/cwagen/sw/g16/g16/l103.exe)

 GradGradGradGradGradGradGradGradGradGradGradGradGradGradGradGradGradGrad
 Berny optimization.
 FormGI is forming the generalized inverse of G from B-inverse, IUseBI=4.
 Internal  Forces:  Max     0.151979314 RMS     0.030757386
 Search for a local minimum.
 Step number   1 out of a maximum of   41
 All quantities printed in internal units (Hartrees-Bohrs-Radians)
 RMS Force = .31181D-01 SwitMx=.10000D-02 MixMth= 1
 Mixed Optimization -- RFO/linear search
 Second derivative matrix not updated -- first step.
 ITU=  0
     Eigenvalues ---    0.00230   0.04746   0.04746   0.05330   0.05908
     Eigenvalues ---    0.07453   0.10176   0.16000   0.16000   0.16000
     Eigenvalues ---    0.25000   0.25000   0.25000   0.26946   0.33918
     Eigenvalues ---    0.33999   0.34275   0.67840   1.220341000.00000
     Eigenvalues --- 1000.000001000.000001000.000001000.000001000.00000
     Eigenvalues --- 1000.000001000.000001000.000001000.000001000.00000
     Eigenvalues --- 1000.00000
 RFO step:  Lambda=-4.97964969D-02 EMin= 2.30000000D-03
 Linear search not attempted -- first point.
 Maximum step size (   0.300) exceeded in Quadratic search.
    -- Step size scaled by   0.939
 Iteration  1 RMS(Cart)=  0.06615925 RMS(Int)=  0.00519912
 Iteration  2 RMS(Cart)=  0.00716316 RMS(Int)=  0.00092251
 Iteration  3 RMS(Cart)=  0.00004675 RMS(Int)=  0.00092161
 Iteration  4 RMS(Cart)=  0.00000007 RMS(Int)=  0.00092161
 Iteration  1 RMS(Cart)=  0.00000000 RMS(Int)=  0.00000000
 ITry= 1 IFail=0 DXMaxC= 1.61D-01 DCOld= 1.00D+10 DXMaxT= 3.00D-01 DXLimC= 3.00D+00 Rises=F
 Variable       Old X    -DE/DX   Delta X   Delta X   Delta X     New X
                                 (Linear)    (Quad)   (Total)
    R1        2.45227  -0.15198   0.00000  -0.19589  -0.19589   2.25638
    R2        2.94503  -0.02470   0.00000  -0.07260  -0.07260   2.87243
    R3        4.72432  -0.02928   0.00000   0.00000   0.00000   4.72432
    R4        4.91329  -0.01656   0.00000   0.00000   0.00000   4.91329
    R5        2.07331  -0.00409   0.00000  -0.00985  -0.00985   2.06347
    R6        2.07468  -0.00196   0.00000  -0.00474  -0.00474   2.06995
    R7        2.06868  -0.00128   0.00000  -0.00305  -0.00305   2.06563
    R8        2.20923   0.01473   0.00000   0.01088   0.01088   2.22012
    A1        1.99667   0.05454   0.00000   0.18392   0.18182   2.17849
    A2        2.01908  -0.02025   0.00000  -0.04729  -0.04980   1.96928
    A3        1.89239  -0.01342   0.00000  -0.03452  -0.03538   1.85701
    A4        1.92419  -0.01321   0.00000  -0.04155  -0.04407   1.88012
    A5        1.77194  -0.00689   0.00000  -0.03208  -0.03343   1.73851
    A6        1.83479  -0.00441   0.00000  -0.04791  -0.05015   1.78464
    A7        1.97398  -0.00157   0.00000  -0.00746  -0.00762   1.96635
    A8        1.87942  -0.00580   0.00000  -0.02541  -0.02569   1.85373
    A9        1.90140  -0.00787   0.00000  -0.03533  -0.03566   1.86574
   A10        1.90356   0.00397   0.00000   0.01790   0.01778   1.92134
   A11        1.90837   0.00495   0.00000   0.02116   0.02095   1.92932
   A12        1.89554   0.00656   0.00000   0.03031   0.02980   1.92534
   A13        3.09251  -0.00030   0.00000  -0.00292  -0.00292   3.08959
   A14        2.87052   0.00068   0.00000   0.00657   0.00657   2.87709
    D1        3.04510  -0.00132   0.00000  -0.01302  -0.01327   3.03183
    D2       -1.13357  -0.00128   0.00000  -0.01262  -0.01302  -1.14659
    D3        0.91915  -0.00096   0.00000  -0.00978  -0.00997   0.90918
    D4       -0.92685   0.00703   0.00000   0.04803   0.04786  -0.87899
    D5        1.17766   0.00706   0.00000   0.04843   0.04812   1.22578
    D6       -3.05280   0.00739   0.00000   0.05127   0.05116  -3.00164
    D7        1.01121  -0.00596   0.00000  -0.03604  -0.03554   0.97567
    D8        3.11572  -0.00593   0.00000  -0.03565  -0.03529   3.08044
    D9       -1.11475  -0.00560   0.00000  -0.03281  -0.03224  -1.14699
         Item               Value     Threshold  Converged?
 Maximum Force            0.151979     0.000450     NO 
 RMS     Force            0.031181     0.000300     NO 
 Maximum Displacement     0.160959     0.001800     NO 
 RMS     Displacement     0.064858     0.001200     NO 
 Predicted change in Energy=-2.730650D-02
 Lowest energy point so far.  Saving SCF results.
 GradGradGradGradGradGradGradGradGradGradGradGradGradGradGradGradGradGrad

 Leave Link  103 at Wed Jan  8 01:20:38 2020, MaxMem=  4294967296 cpu:              60.1 elap:               5.1
 (Enter /home/cwagen/sw/g16/g16/l202.exe)
                          Input orientation:                          
 ---------------------------------------------------------------------
 Center     Atomic      Atomic             Coordinates (Angstroms)
 Number     Number       Type             X           Y           Z
 ---------------------------------------------------------------------
      1          6           0       -0.211321   -0.374677   -0.255986
      2          8           0       -0.243612   -0.580080   -1.431766
      3          6           0       -0.324144   -1.446656    0.815741
      4          1           0       -0.161002   -1.054657    1.821750
      5          1           0       -1.335953   -1.857771    0.731724
      6          1           0        0.417892   -2.213202    0.577783
      7         17           0       -1.656058    1.545632    0.433324
      8          6           0        2.175072    0.514078    0.268648
      9          7           0        3.310574    0.809837    0.326942
 ---------------------------------------------------------------------
                    Distance matrix (angstroms):
                    1          2          3          4          5
     1  C    0.000000
     2  O    1.194024   0.000000
     3  C    1.520022   2.410131   0.000000
     4  H    2.186753   3.288984   1.091939   0.000000
     5  H    2.107115   2.739779   1.095368   1.792667   0.000000
     6  H    2.114534   2.672632   1.093084   1.795772   1.796107
     7  Cl   2.500000   3.161047   3.297579   3.305212   3.431423
     8  C    2.600000   3.152559   3.223332   3.214078   4.262324
     9  N    3.761200   4.202043   4.306026   4.214574   5.373099
                    6          7          8          9
     6  H    0.000000
     7  Cl   4.295459   0.000000
     8  C    3.259034   3.970993   0.000000
     9  N    4.191574   5.021966   1.174834   0.000000
 Stoichiometry    C3H3ClNO(1-)
 Framework group  C1[X(C3H3ClNO)]
 Deg. of freedom    21
 Full point group                 C1      NOp   1
 RotChk:  IX=0 Diff= 1.42D-02
 Largest Abelian subgroup         C1      NOp   1
 Largest concise Abelian subgroup C1      NOp   1
                         Standard orientation:                         
 ---------------------------------------------------------------------
 Center     Atomic      Atomic             Coordinates (Angstroms)
 Number     Number       Type             X           Y           Z
 ---------------------------------------------------------------------
      1          6           0       -0.147277    0.733061    0.241132
      2          8           0       -0.132645    1.162469    1.355174
      3          6           0       -0.124900    1.584774   -1.017657
      4          1           0       -0.033580    0.988271   -1.927699
      5          1           0       -1.067684    2.142368   -1.026399
      6          1           0        0.720798    2.270715   -0.922190
      7         17           0       -1.857251   -1.061373   -0.084439
      8          6           0        2.082717   -0.566064   -0.074153
      9          7           0        3.164521   -1.024055   -0.060797
 ---------------------------------------------------------------------
 Rotational constants (GHZ):           2.8895475           1.3915266           1.1424750
 Leave Link  202 at Wed Jan  8 01:20:38 2020, MaxMem=  4294967296 cpu:               1.1 elap:               0.1
 (Enter /home/cwagen/sw/g16/g16/l301.exe)
 Standard basis: 6-31+G(d) (6D, 7F)
 Ernie: Thresh=  0.10000D-02 Tol=  0.10000D-05 Strict=F.
 There are   124 symmetry adapted cartesian basis functions of A   symmetry.
 There are   124 symmetry adapted basis functions of A   symmetry.
   124 basis functions,   228 primitive gaussians,   124 cartesian basis functions
    27 alpha electrons       27 beta electrons
       nuclear repulsion energy       220.6070577056 Hartrees.
 IExCor=  402 DFT=T Ex+Corr=B3LYP ExCW=0 ScaHFX=  0.200000
 ScaDFX=  0.800000  0.720000  1.000000  0.810000 ScalE2=  1.000000  1.000000
 IRadAn=      5 IRanWt=     -1 IRanGd=            0 ICorTp=0 IEmpDi=  4
 NAtoms=    9 NActive=    9 NUniq=    9 SFac= 1.00D+00 NAtFMM=   60 NAOKFM=F Big=F
 Integral buffers will be    131072 words long.
 Raffenetti 2 integral format.
 Two-electron integral symmetry is turned on.
 ------------------------------------------------------------------------------
 Polarizable Continuum Model (PCM)
 =================================
 Model                : PCM.
 Atomic radii         : SMD-Coulomb.
 Polarization charges : Total charges.
 Charge compensation  : None.
 Solution method      : On-the-fly selection.
 Cavity type          : VdW (van der Waals Surface) (Alpha=1.000).
 Cavity algorithm     : GePol (No added spheres)
                        Default sphere list used, NSphG=    9.
                        Lebedev-Laikov grids with approx.  5.0 points / Ang**2.
                        Smoothing algorithm: York/Karplus (Gamma=1.0000).
                        Polarization charges: spherical gaussians, with
                                              point-specific exponents (IZeta= 3).
                        Self-potential: point-specific (ISelfS= 7).
                        Self-field    : sphere-specific E.n sum rule (ISelfD= 2).
 1st derivatives      : Analytical E(r).r(x)/FMM algorithm (CHGder, D1EAlg=3).
                        Cavity 1st derivative terms included.
 Solvent              : TetraHydroFuran, Eps=   7.425700 Eps(inf)=   1.974025
 ------------------------------------------------------------------------------
 Spheres list:
 ISph  on   Nord     Re0    Alpha      Xe            Ye            Ze
    1   C      1    1.8500  1.000     -0.147277      0.733061      0.241132
    2   O      2    2.2940  1.000     -0.132645      1.162469      1.355174
    3   C      3    1.8500  1.000     -0.124900      1.584774     -1.017657
    4   H      4    1.2000  1.000     -0.033580      0.988271     -1.927699
    5   H      5    1.2000  1.000     -1.067684      2.142368     -1.026399
    6   H      6    1.2000  1.000      0.720798      2.270715     -0.922190
    7  Cl      7    2.3800  1.000     -1.857251     -1.061373     -0.084439
    8   C      8    1.8500  1.000      2.082717     -0.566064     -0.074153
    9   N      9    1.8900  1.000      3.164521     -1.024055     -0.060797
 ------------------------------------------------------------------------------
 GePol: Number of generator spheres                  =       9
 GePol: Total number of spheres                      =       9
 GePol: Number of exposed spheres                    =       9 (100.00%)
 GePol: Number of points                             =    1304
 GePol: Average weight of points                     =       0.13
 GePol: Minimum weight of points                     =   0.52D-08
 GePol: Maximum weight of points                     =    0.18138
 GePol: Number of points with low weight             =      39
 GePol: Fraction of low-weight points (<1% of avg)   =       2.99%
 GePol: Cavity surface area                          =    175.609 Ang**2
 GePol: Cavity volume                                =    156.219 Ang**3
 ------------------------------------------------------------------------------
 Atomic radii for non-electrostatic terms: SMD-CDS.
 ------------------------------------------------------------------------------
 PCM non-electrostatic energy =         0.0007989859 Hartrees.
 Nuclear repulsion after PCM non-electrostatic terms =      220.6078566915 Hartrees.
 Leave Link  301 at Wed Jan  8 01:20:38 2020, MaxMem=  4294967296 cpu:               2.2 elap:               0.2
 (Enter /home/cwagen/sw/g16/g16/l302.exe)
 NPDir=0 NMtPBC=     1 NCelOv=     1 NCel=       1 NClECP=     1 NCelD=      1
         NCelK=      1 NCelE2=     1 NClLst=     1 CellRange=     0.0.
 One-electron integrals computed using PRISM.
 One-electron integral symmetry used in STVInt
 NBasis=   124 RedAO= T EigKep=  1.47D-04  NBF=   124
 NBsUse=   124 1.00D-06 EigRej= -1.00D+00 NBFU=   124
 Precomputing XC quadrature grid using
 IXCGrd= 4 IRadAn=           5 IRanWt=          -1 IRanGd=           0 AccXCQ= 0.00D+00.
 Generated NRdTot=       0 NPtTot=           0 NUsed=           0 NTot=          32
 NSgBfM=   124   124   124   124   124 MxSgAt=     9 MxSgA2=     9.
 Leave Link  302 at Wed Jan  8 01:20:40 2020, MaxMem=  4294967296 cpu:              27.0 elap:               2.3
 (Enter /home/cwagen/sw/g16/g16/l303.exe)
 DipDrv:  MaxL=1.
 Leave Link  303 at Wed Jan  8 01:20:40 2020, MaxMem=  4294967296 cpu:               2.3 elap:               0.2
 (Enter /home/cwagen/sw/g16/g16/l401.exe)
 Initial guess from the checkpoint file:  "/scratch/users/cwagen/cwagen_scan_250_260/Gau-4462.chk"
 B after Tr=     0.000000    0.000000    0.000000
         Rot=    0.999963   -0.007329    0.000680   -0.004433 Ang=  -0.98 deg.
 Guess basis will be translated and rotated to current coordinates.
 JPrj=2 DoOrth=T DoCkMO=T.
 Generating alternative initial guess.
 ExpMin= 4.38D-02 ExpMax= 2.52D+04 ExpMxC= 3.78D+03 IAcc=2 IRadAn=         4 AccDes= 0.00D+00
 Harris functional with IExCor=  402 and IRadAn=       4 diagonalized for initial guess.
 HarFok:  IExCor=  402 AccDes= 0.00D+00 IRadAn=         4 IDoV= 1 UseB2=F ITyADJ=14
 ICtDFT=  3500011 ScaDFX=  1.000000  1.000000  1.000000  1.000000
 FoFCou: FMM=F IPFlag=           0 FMFlag=      100000 FMFlg1=           0
         NFxFlg=           0 DoJE=T BraDBF=F KetDBF=T FulRan=T
         wScrn=  0.000000 ICntrl=       500 IOpCl=  0 I1Cent=   200000004 NGrid=           0
         NMat0=    1 NMatS0=      1 NMatT0=    0 NMatD0=    1 NMtDS0=    0 NMtDT0=    0
 Petite list used in FoFCou.
 Harris En= -706.374050146893    
 Leave Link  401 at Wed Jan  8 01:20:44 2020, MaxMem=  4294967296 cpu:              45.6 elap:               3.7
 (Enter /home/cwagen/sw/g16/g16/l502.exe)
 Keep R1 ints in memory in canonical form, NReq=45236517.
 FoFCou: FMM=F IPFlag=           0 FMFlag=           0 FMFlg1=           0
         NFxFlg=           0 DoJE=F BraDBF=F KetDBF=F FulRan=T
         wScrn=  0.000000 ICntrl=       600 IOpCl=  0 I1Cent=           0 NGrid=           0
         NMat0=    1 NMatS0=   7750 NMatT0=    0 NMatD0=    1 NMtDS0=    0 NMtDT0=    0
 Symmetry not used in FoFCou.
 Two-electron integral symmetry not used.
 Closed shell SCF:
 Using DIIS extrapolation, IDIIS=  1040.
 NGot=  4294967296 LenX=  4264898079 LenY=  4264882262
 Requested convergence on RMS density matrix=1.00D-08 within 128 cycles.
 Requested convergence on MAX density matrix=1.00D-06.
 Requested convergence on             energy=1.00D-06.
 No special actions if energy rises.

 Cycle   1  Pass 1  IDiag  1:
 Inv3:  Mode=1 IEnd=     5101248.
 Iteration    1 A*A^-1 deviation from unit magnitude is 2.78D-15 for   1299.
 Iteration    1 A*A^-1 deviation from orthogonality  is 1.34D-15 for    952    863.
 Iteration    1 A^-1*A deviation from unit magnitude is 3.22D-15 for   1299.
 Iteration    1 A^-1*A deviation from orthogonality  is 1.74D-15 for    508    444.
 E= -706.369170265604    
 DIIS: error= 7.56D-03 at cycle   1 NSaved=   1.
 NSaved= 1 IEnMin= 1 EnMin= -706.369170265604     IErMin= 1 ErrMin= 7.56D-03
 ErrMax= 7.56D-03  0.00D+00 EMaxC= 1.00D-01 BMatC= 1.09D-02 BMatP= 1.09D-02
 IDIUse=3 WtCom= 9.24D-01 WtEn= 7.56D-02
 Coeff-Com:  0.100D+01
 Coeff-En:   0.100D+01
 Coeff:      0.100D+01
 Gap=     0.602 Goal=   None    Shift=    0.000
 GapD=    0.602 DampG=2.000 DampE=1.000 DampFc=2.0000 IDamp=-1.
 RMSDP=1.95D-03 MaxDP=3.75D-02              OVMax= 4.37D-02

 Cycle   2  Pass 1  IDiag  1:
 E= -706.385460644960     Delta-E=       -0.016290379356 Rises=F Damp=F
 DIIS: error= 2.50D-03 at cycle   2 NSaved=   2.
 NSaved= 2 IEnMin= 2 EnMin= -706.385460644960     IErMin= 2 ErrMin= 2.50D-03
 ErrMax= 2.50D-03  0.00D+00 EMaxC= 1.00D-01 BMatC= 9.60D-04 BMatP= 1.09D-02
 IDIUse=3 WtCom= 9.75D-01 WtEn= 2.50D-02
 Coeff-Com:  0.115D+00 0.885D+00
 Coeff-En:   0.000D+00 0.100D+01
 Coeff:      0.112D+00 0.888D+00
 Gap=     0.162 Goal=   None    Shift=    0.000
 RMSDP=5.58D-04 MaxDP=1.66D-02 DE=-1.63D-02 OVMax= 3.37D-02

 Cycle   3  Pass 1  IDiag  1:
 E= -706.384411138865     Delta-E=        0.001049506094 Rises=F Damp=F
 DIIS: error= 4.71D-03 at cycle   3 NSaved=   3.
 NSaved= 3 IEnMin= 2 EnMin= -706.385460644960     IErMin= 2 ErrMin= 2.50D-03
 ErrMax= 4.71D-03  0.00D+00 EMaxC= 1.00D-01 BMatC= 2.16D-03 BMatP= 9.60D-04
 IDIUse=3 WtCom= 1.27D-01 WtEn= 8.73D-01
 Coeff-Com: -0.951D-02 0.611D+00 0.399D+00
 Coeff-En:   0.000D+00 0.666D+00 0.334D+00
 Coeff:     -0.121D-02 0.659D+00 0.342D+00
 Gap=     0.156 Goal=   None    Shift=    0.000
 RMSDP=3.53D-04 MaxDP=1.15D-02 DE= 1.05D-03 OVMax= 1.99D-02

 Cycle   4  Pass 1  IDiag  1:
 E= -706.386263751053     Delta-E=       -0.001852612187 Rises=F Damp=F
 DIIS: error= 5.11D-04 at cycle   4 NSaved=   4.
 NSaved= 4 IEnMin= 4 EnMin= -706.386263751053     IErMin= 4 ErrMin= 5.11D-04
 ErrMax= 5.11D-04  0.00D+00 EMaxC= 1.00D-01 BMatC= 8.01D-05 BMatP= 9.60D-04
 IDIUse=3 WtCom= 9.95D-01 WtEn= 5.11D-03
 Coeff-Com: -0.215D-01 0.263D+00 0.197D+00 0.562D+00
 Coeff-En:   0.000D+00 0.000D+00 0.000D+00 0.100D+01
 Coeff:     -0.214D-01 0.262D+00 0.196D+00 0.564D+00
 Gap=     0.153 Goal=   None    Shift=    0.000
 RMSDP=1.14D-04 MaxDP=2.28D-03 DE=-1.85D-03 OVMax= 3.39D-03

 Cycle   5  Pass 1  IDiag  1:
 E= -706.386323979340     Delta-E=       -0.000060228287 Rises=F Damp=F
 DIIS: error= 1.90D-04 at cycle   5 NSaved=   5.
 NSaved= 5 IEnMin= 5 EnMin= -706.386323979340     IErMin= 5 ErrMin= 1.90D-04
 ErrMax= 1.90D-04  0.00D+00 EMaxC= 1.00D-01 BMatC= 1.43D-05 BMatP= 8.01D-05
 IDIUse=3 WtCom= 9.98D-01 WtEn= 1.90D-03
 Coeff-Com: -0.742D-02 0.850D-01 0.814D-01 0.319D+00 0.522D+00
 Coeff-En:   0.000D+00 0.000D+00 0.000D+00 0.149D+00 0.851D+00
 Coeff:     -0.740D-02 0.848D-01 0.812D-01 0.319D+00 0.523D+00
 Gap=     0.155 Goal=   None    Shift=    0.000
 RMSDP=5.56D-05 MaxDP=1.23D-03 DE=-6.02D-05 OVMax= 3.02D-03

 Cycle   6  Pass 1  IDiag  1:
 E= -706.386341369395     Delta-E=       -0.000017390055 Rises=F Damp=F
 DIIS: error= 9.73D-05 at cycle   6 NSaved=   6.
 NSaved= 6 IEnMin= 6 EnMin= -706.386341369395     IErMin= 6 ErrMin= 9.73D-05
 ErrMax= 9.73D-05  0.00D+00 EMaxC= 1.00D-01 BMatC= 1.60D-06 BMatP= 1.43D-05
 IDIUse=1 WtCom= 1.00D+00 WtEn= 0.00D+00
 Coeff-Com: -0.224D-02 0.164D-01 0.230D-01 0.116D+00 0.304D+00 0.543D+00
 Coeff:     -0.224D-02 0.164D-01 0.230D-01 0.116D+00 0.304D+00 0.543D+00
 Gap=     0.155 Goal=   None    Shift=    0.000
 RMSDP=1.63D-05 MaxDP=6.30D-04 DE=-1.74D-05 OVMax= 7.07D-04

 Cycle   7  Pass 1  IDiag  1:
 E= -706.386343241201     Delta-E=       -0.000001871807 Rises=F Damp=F
 DIIS: error= 1.41D-05 at cycle   7 NSaved=   7.
 NSaved= 7 IEnMin= 7 EnMin= -706.386343241201     IErMin= 7 ErrMin= 1.41D-05
 ErrMax= 1.41D-05  0.00D+00 EMaxC= 1.00D-01 BMatC= 7.69D-08 BMatP= 1.60D-06
 IDIUse=1 WtCom= 1.00D+00 WtEn= 0.00D+00
 Coeff-Com: -0.262D-03-0.134D-02 0.198D-02 0.235D-01 0.102D+00 0.240D+00
 Coeff-Com:  0.634D+00
 Coeff:     -0.262D-03-0.134D-02 0.198D-02 0.235D-01 0.102D+00 0.240D+00
 Coeff:      0.634D+00
 Gap=     0.155 Goal=   None    Shift=    0.000
 RMSDP=5.08D-06 MaxDP=1.19D-04 DE=-1.87D-06 OVMax= 1.52D-04

 Cycle   8  Pass 1  IDiag  1:
 E= -706.386343314124     Delta-E=       -0.000000072923 Rises=F Damp=F
 DIIS: error= 1.12D-05 at cycle   8 NSaved=   8.
 NSaved= 8 IEnMin= 8 EnMin= -706.386343314124     IErMin= 8 ErrMin= 1.12D-05
 ErrMax= 1.12D-05  0.00D+00 EMaxC= 1.00D-01 BMatC= 2.08D-08 BMatP= 7.69D-08
 IDIUse=1 WtCom= 1.00D+00 WtEn= 0.00D+00
 Coeff-Com:  0.541D-04-0.223D-02-0.149D-02 0.202D-02 0.317D-01 0.793D-01
 Coeff-Com:  0.374D+00 0.517D+00
 Coeff:      0.541D-04-0.223D-02-0.149D-02 0.202D-02 0.317D-01 0.793D-01
 Coeff:      0.374D+00 0.517D+00
 Gap=     0.155 Goal=   None    Shift=    0.000
 RMSDP=1.93D-06 MaxDP=4.16D-05 DE=-7.29D-08 OVMax= 5.88D-05

 Cycle   9  Pass 1  IDiag  1:
 E= -706.386343332337     Delta-E=       -0.000000018213 Rises=F Damp=F
 DIIS: error= 7.14D-06 at cycle   9 NSaved=   9.
 NSaved= 9 IEnMin= 9 EnMin= -706.386343332337     IErMin= 9 ErrMin= 7.14D-06
 ErrMax= 7.14D-06  0.00D+00 EMaxC= 1.00D-01 BMatC= 5.34D-09 BMatP= 2.08D-08
 IDIUse=1 WtCom= 1.00D+00 WtEn= 0.00D+00
 Coeff-Com:  0.890D-04-0.152D-02-0.167D-02-0.244D-02 0.779D-02 0.175D-01
 Coeff-Com:  0.166D+00 0.361D+00 0.453D+00
 Coeff:      0.890D-04-0.152D-02-0.167D-02-0.244D-02 0.779D-02 0.175D-01
 Coeff:      0.166D+00 0.361D+00 0.453D+00
 Gap=     0.155 Goal=   None    Shift=    0.000
 RMSDP=5.30D-07 MaxDP=1.57D-05 DE=-1.82D-08 OVMax= 2.42D-05

 Cycle  10  Pass 1  IDiag  1:
 E= -706.386343337224     Delta-E=       -0.000000004887 Rises=F Damp=F
 DIIS: error= 1.18D-06 at cycle  10 NSaved=  10.
 NSaved=10 IEnMin=10 EnMin= -706.386343337224     IErMin=10 ErrMin= 1.18D-06
 ErrMax= 1.18D-06  0.00D+00 EMaxC= 1.00D-01 BMatC= 2.81D-10 BMatP= 5.34D-09
 IDIUse=1 WtCom= 1.00D+00 WtEn= 0.00D+00
 Coeff-Com:  0.323D-04-0.284D-03-0.619D-03-0.139D-02-0.116D-02-0.634D-02
 Coeff-Com:  0.891D-02 0.766D-01 0.199D+00 0.725D+00
 Coeff:      0.323D-04-0.284D-03-0.619D-03-0.139D-02-0.116D-02-0.634D-02
 Coeff:      0.891D-02 0.766D-01 0.199D+00 0.725D+00
 Gap=     0.155 Goal=   None    Shift=    0.000
 RMSDP=1.80D-07 MaxDP=2.90D-06 DE=-4.89D-09 OVMax= 5.39D-06

 Cycle  11  Pass 1  IDiag  1:
 E= -706.386343337539     Delta-E=       -0.000000000316 Rises=F Damp=F
 DIIS: error= 2.83D-07 at cycle  11 NSaved=  11.
 NSaved=11 IEnMin=11 EnMin= -706.386343337539     IErMin=11 ErrMin= 2.83D-07
 ErrMax= 2.83D-07  0.00D+00 EMaxC= 1.00D-01 BMatC= 5.03D-12 BMatP= 2.81D-10
 IDIUse=1 WtCom= 1.00D+00 WtEn= 0.00D+00
 Coeff-Com:  0.548D-05-0.601D-05-0.100D-03-0.312D-03-0.686D-03-0.271D-02
 Coeff-Com: -0.642D-02 0.726D-02 0.362D-01 0.218D+00 0.748D+00
 Coeff:      0.548D-05-0.601D-05-0.100D-03-0.312D-03-0.686D-03-0.271D-02
 Coeff:     -0.642D-02 0.726D-02 0.362D-01 0.218D+00 0.748D+00
 Gap=     0.155 Goal=   None    Shift=    0.000
 RMSDP=5.09D-08 MaxDP=1.42D-06 DE=-3.16D-10 OVMax= 1.53D-06

 Cycle  12  Pass 1  IDiag  1:
 E= -706.386343337545     Delta-E=       -0.000000000006 Rises=F Damp=F
 DIIS: error= 6.08D-08 at cycle  12 NSaved=  12.
 NSaved=12 IEnMin=12 EnMin= -706.386343337545     IErMin=12 ErrMin= 6.08D-08
 ErrMax= 6.08D-08  0.00D+00 EMaxC= 1.00D-01 BMatC= 7.13D-13 BMatP= 5.03D-12
 IDIUse=1 WtCom= 1.00D+00 WtEn= 0.00D+00
 Coeff-Com:  0.403D-06 0.126D-04 0.111D-05-0.478D-04-0.201D-03-0.597D-03
 Coeff-Com: -0.312D-02-0.659D-03 0.151D-02 0.393D-01 0.286D+00 0.678D+00
 Coeff:      0.403D-06 0.126D-04 0.111D-05-0.478D-04-0.201D-03-0.597D-03
 Coeff:     -0.312D-02-0.659D-03 0.151D-02 0.393D-01 0.286D+00 0.678D+00
 Gap=     0.155 Goal=   None    Shift=    0.000
 RMSDP=1.06D-08 MaxDP=2.27D-07 DE=-5.68D-12 OVMax= 2.82D-07

 Cycle  13  Pass 1  IDiag  1:
 E= -706.386343337546     Delta-E=       -0.000000000001 Rises=F Damp=F
 DIIS: error= 1.72D-08 at cycle  13 NSaved=  13.
 NSaved=13 IEnMin=13 EnMin= -706.386343337546     IErMin=13 ErrMin= 1.72D-08
 ErrMax= 1.72D-08  0.00D+00 EMaxC= 1.00D-01 BMatC= 6.83D-14 BMatP= 7.13D-13
 IDIUse=1 WtCom= 1.00D+00 WtEn= 0.00D+00
 Coeff-Com: -0.376D-06 0.523D-05 0.108D-04 0.769D-05-0.193D-04 0.356D-04
 Coeff-Com: -0.669D-03-0.610D-03-0.293D-02-0.622D-02 0.457D-01 0.289D+00
 Coeff-Com:  0.676D+00
 Coeff:     -0.376D-06 0.523D-05 0.108D-04 0.769D-05-0.193D-04 0.356D-04
 Coeff:     -0.669D-03-0.610D-03-0.293D-02-0.622D-02 0.457D-01 0.289D+00
 Coeff:      0.676D+00
 Gap=     0.155 Goal=   None    Shift=    0.000
 RMSDP=4.04D-09 MaxDP=1.05D-07 DE=-1.02D-12 OVMax= 1.27D-07

 Error on total polarization charges =  0.02531
 SCF Done:  E(RB3LYP) =  -706.386343338     A.U. after   13 cycles
            NFock= 13  Conv=0.40D-08     -V/T= 2.0060
 KE= 7.021915303085D+02 PE=-2.118302680518D+03 EE= 4.891169501802D+02
 SMD-CDS (non-electrostatic) energy       (kcal/mol) =       0.50
 (included in total energy above)
 Leave Link  502 at Wed Jan  8 01:21:26 2020, MaxMem=  4294967296 cpu:             548.3 elap:              41.7
 (Enter /home/cwagen/sw/g16/g16/l701.exe)
 ... and contract with generalized density number  0.
 Compute integral first derivatives.
 D1PCM: PCM CHGder 1st derivatives, ID1Alg=3 FixD1E=F DoIter=F DoCFld=F I1PDM=0.
 GePol: Maximum number of non-zero 1st derivatives   =     393
 Leave Link  701 at Wed Jan  8 01:21:30 2020, MaxMem=  4294967296 cpu:              56.4 elap:               4.4
 (Enter /home/cwagen/sw/g16/g16/l702.exe)
 L702 exits ... SP integral derivatives will be done elsewhere.
 Leave Link  702 at Wed Jan  8 01:21:30 2020, MaxMem=  4294967296 cpu:               0.7 elap:               0.1
 (Enter /home/cwagen/sw/g16/g16/l703.exe)
 Integral derivatives from FoFJK, PRISM(SPDF).
 Compute integral first derivatives, UseDBF=F ICtDFT=           0.
 Calling FoFJK, ICntrl=      2127 FMM=F ISym2X=0 I1Cent= 0 IOpClX= 0 NMat=1 NMatS=1 NMatT=0.
 FoFJK:  IHMeth= 1 ICntrl=    2127 DoSepK=F KAlg= 0 I1Cent=           0 FoldK=F
 IRaf=         0 NMat=       1 IRICut=       1 DoRegI=T DoRafI=F ISym2E= 0 IDoP0=0 IntGTp=1.
 FoFCou: FMM=F IPFlag=           0 FMFlag=      100000 FMFlg1=         800
         NFxFlg=           0 DoJE=F BraDBF=F KetDBF=F FulRan=T
         wScrn=  0.000000 ICntrl=      2127 IOpCl=  0 I1Cent=           0 NGrid=           0
         NMat0=    1 NMatS0=      1 NMatT0=    0 NMatD0=    1 NMtDS0=    0 NMtDT0=    0
 Symmetry not used in FoFCou.
 Leave Link  703 at Wed Jan  8 01:21:33 2020, MaxMem=  4294967296 cpu:              33.9 elap:               2.9
 (Enter /home/cwagen/sw/g16/g16/l716.exe)
 Dipole        =-2.08040184D+00 3.35587848D+00-8.41278586D-01
 ***** Axes restored to original set *****
 -------------------------------------------------------------------
 Center     Atomic                   Forces (Hartrees/Bohr)
 Number     Number              X              Y              Z
 -------------------------------------------------------------------
      1        6          -0.012071684   -0.033112333   -0.046843549
      2        8           0.004979858    0.030859246    0.046964427
      3        6           0.002880642    0.020590980    0.010580864
      4        1          -0.000251250   -0.000017616   -0.002236750
      5        1          -0.000474160    0.001280648   -0.000861728
      6        1           0.001230451    0.000999210   -0.001482201
      7       17           0.014999196   -0.017698597   -0.004897890
      8        6          -0.014934776   -0.004017891   -0.001688271
      9        7           0.003641724    0.001116352    0.000465098
 -------------------------------------------------------------------
 Cartesian Forces:  Max     0.046964427 RMS     0.017207681
 Leave Link  716 at Wed Jan  8 01:21:33 2020, MaxMem=  4294967296 cpu:               0.8 elap:               0.1
 (Enter /home/cwagen/sw/g16/g16/l103.exe)

 GradGradGradGradGradGradGradGradGradGradGradGradGradGradGradGradGradGrad
 Berny optimization.
 Using GEDIIS/GDIIS optimizer.
 FormGI is forming the generalized inverse of G from B-inverse, IUseBI=4.
 Internal  Forces:  Max     0.051695940 RMS     0.013510436
 Search for a local minimum.
 Step number   2 out of a maximum of   41
 All quantities printed in internal units (Hartrees-Bohrs-Radians)
 RMS Force = .13088D-01 SwitMx=.10000D-02 MixMth= 1
 Mixed Optimization -- RFO/linear search
 Update second derivatives using D2CorX and points    1    2
 DE= -3.55D-02 DEPred=-2.73D-02 R= 1.30D+00
 TightC=F SS=  1.41D+00  RLast= 3.18D-01 DXNew= 5.0454D-01 9.5416D-01
 Trust test= 1.30D+00 RLast= 3.18D-01 DXMaxT set to 5.05D-01
 ITU=  1  0
 Use linear search instead of GDIIS.
     Eigenvalues ---    0.00230   0.04746   0.04747   0.05522   0.05704
     Eigenvalues ---    0.06189   0.09570   0.15991   0.16000   0.16010
     Eigenvalues ---    0.18162   0.25000   0.25122   0.26954   0.33925
     Eigenvalues ---    0.33992   0.34281   0.64441   1.220581000.00000
     Eigenvalues --- 1000.000001000.000001000.000001000.000001000.00000
     Eigenvalues --- 1000.000001000.000001000.000001000.000001000.00000
     Eigenvalues --- 1000.00000
 RFO step:  Lambda=-2.42553441D-03 EMin= 2.30006929D-03
 Quartic linear search produced a step of  0.53694.
 Iteration  1 RMS(Cart)=  0.06532416 RMS(Int)=  0.00379923
 Iteration  2 RMS(Cart)=  0.00459151 RMS(Int)=  0.00113233
 Iteration  3 RMS(Cart)=  0.00001514 RMS(Int)=  0.00113227
 Iteration  4 RMS(Cart)=  0.00000002 RMS(Int)=  0.00113227
 Iteration  1 RMS(Cart)=  0.00000000 RMS(Int)=  0.00000000
 ITry= 1 IFail=0 DXMaxC= 1.55D-01 DCOld= 1.00D+10 DXMaxT= 5.05D-01 DXLimC= 3.00D+00 Rises=F
 Variable       Old X    -DE/DX   Delta X   Delta X   Delta X     New X
                                 (Linear)    (Quad)   (Total)
    R1        2.25638  -0.05170  -0.10518   0.01213  -0.09306   2.16332
    R2        2.87243  -0.01220  -0.03898  -0.00431  -0.04330   2.82913
    R3        4.72432  -0.02360   0.00000   0.00000   0.00000   4.72432
    R4        4.91329  -0.01158   0.00000   0.00000   0.00000   4.91329
    R5        2.06347  -0.00210  -0.00529  -0.00146  -0.00674   2.05672
    R6        2.06995   0.00005  -0.00254   0.00407   0.00153   2.07147
    R7        2.06563   0.00039  -0.00164   0.00421   0.00258   2.06821
    R8        2.22012   0.00385   0.00584  -0.00158   0.00427   2.22438
    A1        2.17849   0.03865   0.09763   0.07874   0.17470   2.35319
    A2        1.96928  -0.01255  -0.02674  -0.01915  -0.04772   1.92156
    A3        1.85701  -0.00867  -0.01900  -0.01174  -0.03151   1.82550
    A4        1.88012  -0.01373  -0.02366  -0.04316  -0.06915   1.81097
    A5        1.73851  -0.00792  -0.01795  -0.02287  -0.04253   1.69597
    A6        1.78464  -0.00212  -0.02693   0.00855  -0.02254   1.76210
    A7        1.96635  -0.00040  -0.00409   0.00551   0.00132   1.96767
    A8        1.85373  -0.00183  -0.01380   0.01213  -0.00182   1.85190
    A9        1.86574  -0.00256  -0.01915   0.01748  -0.00185   1.86388
   A10        1.92134   0.00113   0.00955  -0.00996  -0.00048   1.92087
   A11        1.92932   0.00147   0.01125  -0.00889   0.00224   1.93155
   A12        1.92534   0.00202   0.01600  -0.01529   0.00042   1.92576
   A13        3.08959  -0.00008  -0.00157   0.00532   0.00375   3.09333
   A14        2.87709   0.00040   0.00353  -0.00475  -0.00122   2.87587
    D1        3.03183  -0.00103  -0.00713  -0.01922  -0.02646   3.00537
    D2       -1.14659  -0.00107  -0.00699  -0.02029  -0.02748  -1.17407
    D3        0.90918  -0.00089  -0.00535  -0.02336  -0.02880   0.88037
    D4       -0.87899   0.00496   0.02570  -0.01631   0.00838  -0.87061
    D5        1.22578   0.00493   0.02584  -0.01738   0.00736   1.23314
    D6       -3.00164   0.00510   0.02747  -0.02046   0.00604  -2.99560
    D7        0.97567  -0.00406  -0.01908  -0.02742  -0.04533   0.93033
    D8        3.08044  -0.00410  -0.01895  -0.02850  -0.04635   3.03409
    D9       -1.14699  -0.00392  -0.01731  -0.03157  -0.04767  -1.19466
         Item               Value     Threshold  Converged?
 Maximum Force            0.051696     0.000450     NO 
 RMS     Force            0.013088     0.000300     NO 
 Maximum Displacement     0.154797     0.001800     NO 
 RMS     Displacement     0.064345     0.001200     NO 
 Predicted change in Energy=-1.027408D-02
 Lowest energy point so far.  Saving SCF results.
 GradGradGradGradGradGradGradGradGradGradGradGradGradGradGradGradGradGrad

 Leave Link  103 at Wed Jan  8 01:21:38 2020, MaxMem=  4294967296 cpu:              56.9 elap:               4.6
 (Enter /home/cwagen/sw/g16/g16/l202.exe)
                          Input orientation:                          
 ---------------------------------------------------------------------
 Center     Atomic      Atomic             Coordinates (Angstroms)
 Number     Number       Type             X           Y           Z
 ---------------------------------------------------------------------
      1          6           0       -0.217600   -0.432985   -0.307128
      2          8           0       -0.229729   -0.500463   -1.449855
      3          6           0       -0.313871   -1.425209    0.809815
      4          1           0       -0.126892   -0.980085    1.785240
      5          1           0       -1.331825   -1.829926    0.770156
      6          1           0        0.416793   -2.211949    0.597719
      7         17           0       -1.656022    1.463717    0.456720
      8          6           0        2.148435    0.477222    0.270280
      9          7           0        3.282159    0.782183    0.355213
 ---------------------------------------------------------------------
                    Distance matrix (angstroms):
                    1          2          3          4          5
     1  C    0.000000
     2  O    1.144781   0.000000
     3  C    1.497110   2.443019   0.000000
     4  H    2.164613   3.272071   1.088370   0.000000
     5  H    2.086500   2.812568   1.096175   1.790109   0.000000
     6  H    2.094258   2.745857   1.094447   1.795351   1.798150
     7  Cl   2.500000   3.086639   3.204987   3.174173   3.324370
     8  C    2.600000   3.093606   3.158052   3.097734   4.205356
     9  N    3.763462   4.151723   4.243898   4.095386   5.318284
                    6          7          8          9
     6  H    0.000000
     7  Cl   4.222199   0.000000
     8  C    3.215189   3.934694   0.000000
     9  N    4.151380   4.986022   1.177092   0.000000
 Stoichiometry    C3H3ClNO(1-)
 Framework group  C1[X(C3H3ClNO)]
 Deg. of freedom    21
 Full point group                 C1      NOp   1
 RotChk:  IX=0 Diff= 3.84D-02
 Largest Abelian subgroup         C1      NOp   1
 Largest concise Abelian subgroup C1      NOp   1
                         Standard orientation:                         
 ---------------------------------------------------------------------
 Center     Atomic      Atomic             Coordinates (Angstroms)
 Number     Number       Type             X           Y           Z
 ---------------------------------------------------------------------
      1          6           0       -0.152958    0.781840    0.268655
      2          8           0       -0.139342    1.095232    1.369620
      3          6           0       -0.137589    1.513687   -1.037294
      4          1           0       -0.023835    0.848360   -1.891079
      5          1           0       -1.094435    2.044890   -1.099485
      6          1           0        0.691132    2.227008   -0.990280
      7         17           0       -1.834240   -1.033884   -0.086926
      8          6           0        2.067750   -0.528012   -0.067120
      9          7           0        3.151533   -0.987310   -0.069118
 ---------------------------------------------------------------------
 Rotational constants (GHZ):           3.0122360           1.4045584           1.1778127
 Leave Link  202 at Wed Jan  8 01:21:38 2020, MaxMem=  4294967296 cpu:               1.1 elap:               0.1
 (Enter /home/cwagen/sw/g16/g16/l301.exe)
 Standard basis: 6-31+G(d) (6D, 7F)
 Ernie: Thresh=  0.10000D-02 Tol=  0.10000D-05 Strict=F.
 There are   124 symmetry adapted cartesian basis functions of A   symmetry.
 There are   124 symmetry adapted basis functions of A   symmetry.
   124 basis functions,   228 primitive gaussians,   124 cartesian basis functions
    27 alpha electrons       27 beta electrons
       nuclear repulsion energy       223.5139589241 Hartrees.
 IExCor=  402 DFT=T Ex+Corr=B3LYP ExCW=0 ScaHFX=  0.200000
 ScaDFX=  0.800000  0.720000  1.000000  0.810000 ScalE2=  1.000000  1.000000
 IRadAn=      5 IRanWt=     -1 IRanGd=            0 ICorTp=0 IEmpDi=  4
 NAtoms=    9 NActive=    9 NUniq=    9 SFac= 1.00D+00 NAtFMM=   60 NAOKFM=F Big=F
 Integral buffers will be    131072 words long.
 Raffenetti 2 integral format.
 Two-electron integral symmetry is turned on.
 ------------------------------------------------------------------------------
 Polarizable Continuum Model (PCM)
 =================================
 Model                : PCM.
 Atomic radii         : SMD-Coulomb.
 Polarization charges : Total charges.
 Charge compensation  : None.
 Solution method      : On-the-fly selection.
 Cavity type          : VdW (van der Waals Surface) (Alpha=1.000).
 Cavity algorithm     : GePol (No added spheres)
                        Default sphere list used, NSphG=    9.
                        Lebedev-Laikov grids with approx.  5.0 points / Ang**2.
                        Smoothing algorithm: York/Karplus (Gamma=1.0000).
                        Polarization charges: spherical gaussians, with
                                              point-specific exponents (IZeta= 3).
                        Self-potential: point-specific (ISelfS= 7).
                        Self-field    : sphere-specific E.n sum rule (ISelfD= 2).
 1st derivatives      : Analytical E(r).r(x)/FMM algorithm (CHGder, D1EAlg=3).
                        Cavity 1st derivative terms included.
 Solvent              : TetraHydroFuran, Eps=   7.425700 Eps(inf)=   1.974025
 ------------------------------------------------------------------------------
 Spheres list:
 ISph  on   Nord     Re0    Alpha      Xe            Ye            Ze
    1   C      1    1.8500  1.000     -0.152958      0.781840      0.268655
    2   O      2    2.2940  1.000     -0.139342      1.095232      1.369620
    3   C      3    1.8500  1.000     -0.137589      1.513687     -1.037294
    4   H      4    1.2000  1.000     -0.023835      0.848360     -1.891079
    5   H      5    1.2000  1.000     -1.094435      2.044890     -1.099485
    6   H      6    1.2000  1.000      0.691132      2.227008     -0.990280
    7  Cl      7    2.3800  1.000     -1.834240     -1.033884     -0.086926
    8   C      8    1.8500  1.000      2.067750     -0.528012     -0.067120
    9   N      9    1.8900  1.000      3.151533     -0.987310     -0.069118
 ------------------------------------------------------------------------------
 GePol: Number of generator spheres                  =       9
 GePol: Total number of spheres                      =       9
 GePol: Number of exposed spheres                    =       9 (100.00%)
 GePol: Number of points                             =    1291
 GePol: Average weight of points                     =       0.13
 GePol: Minimum weight of points                     =   0.39D-07
 GePol: Maximum weight of points                     =    0.18138
 GePol: Number of points with low weight             =      43
 GePol: Fraction of low-weight points (<1% of avg)   =       3.33%
 GePol: Cavity surface area                          =    173.760 Ang**2
 GePol: Cavity volume                                =    155.184 Ang**3
 ------------------------------------------------------------------------------
 Atomic radii for non-electrostatic terms: SMD-CDS.
[...]
 Trust test= 4.54D+00 RLast= 1.14D-02 DXMaxT set to 7.38D-01
 ITU=  1  0  1  1  1  1  0  1  1  1  1  1  1  1  1  0
     Eigenvalues ---    0.00211   0.00321   0.02491   0.03547   0.05623
     Eigenvalues ---    0.06140   0.07578   0.09747   0.12263   0.16003
     Eigenvalues ---    0.16411   0.18527   0.24316   0.27531   0.34039
     Eigenvalues ---    0.34053   0.34575   1.04362   1.224331000.00000
     Eigenvalues --- 1000.000001000.000001000.000001000.000001000.00000
     Eigenvalues --- 1000.000001000.000001000.000001000.000001000.00000
     Eigenvalues --- 1000.00000
 En-DIIS/RFO-DIIS/Sim-DIIS IScMMF=       -3 using points:    16   15   14   13   12   11   10    9    8    7
 RFO step:  Lambda=-1.71788430D-07.
 NNeg= 0 NGDIIS=10 SimSw=  2.50D-01 Rises=F DC= -1.16D-06 SmlDif=  1.00D-05
 NRisDI= 0 DoIntr=F SqrtH=F CThrHd= 10.0 CDAdj=  3.0
 RMS Error=  0.1283050854D-03 NUsed=10 OKEnD=F EnDIS=F
 InvSVX:  RCond= 1.68D-10 Info=           0 Equed=N FErr=  3.14D-09 BErr=  8.12D-17
 DIIS inversion failure, remove point  10.
 InvSVX:  RCond= 3.23D-10 Info=           0 Equed=N FErr=  1.48D-09 BErr=  4.60D-17
 DIIS inversion failure, remove point   9.
 InvSVX:  RCond= 6.03D-10 Info=           0 Equed=N FErr=  3.87D-10 BErr=  4.20D-17
 DIIS inversion failure, remove point   8.
 InvSVX:  RCond= 3.08D-09 Info=           0 Equed=N FErr=  1.13D-11 BErr=  7.23D-17
 DIIS inversion failure, remove point   7.
 InvSVX:  RCond= 3.60D-09 Info=           0 Equed=N FErr=  5.26D-12 BErr=  7.95D-17
 DIIS inversion failure, remove point   6.
 InvSVX:  RCond= 5.00D-09 Info=           0 Equed=N FErr=  3.66D-12 BErr=  7.56D-17
 DIIS inversion failure, remove point   5.
 InvSVX:  RCond= 8.31D-07 Info=           0 Equed=N FErr=  5.11D-15 BErr=  4.00D-17
 RFO-DIIS uses    4 points instead of   10
 DidBck=F Rises=F RFO-DIIS coefs:    1.15384   -0.14164   -0.07368    0.06147    0.00000
                  RFO-DIIS coefs:    0.00000    0.00000    0.00000    0.00000    0.00000
 Iteration  1 RMS(Cart)=  0.00024939 RMS(Int)=  0.00000008
 Iteration  2 RMS(Cart)=  0.00000009 RMS(Int)=  0.00000001
 Iteration  1 RMS(Cart)=  0.00000000 RMS(Int)=  0.00000000
 ITry= 1 IFail=0 DXMaxC= 8.22D-04 DCOld= 1.00D+10 DXMaxT= 7.38D-01 DXLimC= 3.00D+00 Rises=F
 Variable       Old X    -DE/DX   Delta X   Delta X   Delta X     New X
                                 (Linear)    (Quad)   (Total)
    R1        2.17958  -0.00001  -0.00001   0.00001  -0.00001   2.17958
    R2        2.77718   0.00000   0.00000   0.00000   0.00000   2.77718
    R3        4.72432  -0.01231   0.00000   0.00000   0.00000   4.72432
    R4        4.91329  -0.00377   0.00000   0.00000   0.00000   4.91329
    R5        2.05270   0.00000   0.00000   0.00000   0.00000   2.05270
    R6        2.07377   0.00000   0.00000   0.00000   0.00000   2.07377
    R7        2.07203   0.00000   0.00000   0.00000   0.00000   2.07203
    R8        2.22569   0.00000   0.00000   0.00000   0.00000   2.22569
    A1        2.54400   0.00001  -0.00004   0.00009   0.00006   2.54406
    A2        1.89287   0.00001   0.00000   0.00003   0.00002   1.89289
    A3        1.78966   0.00000   0.00009   0.00005   0.00013   1.78979
    A4        1.72943  -0.00002  -0.00002  -0.00011  -0.00013   1.72931
    A5        1.61797  -0.00001   0.00006  -0.00015  -0.00009   1.61788
    A6        1.72338   0.00001  -0.00012   0.00013   0.00001   1.72339
    A7        1.93999   0.00000   0.00002  -0.00003   0.00000   1.93999
    A8        1.86118   0.00000  -0.00003   0.00001  -0.00001   1.86117
    A9        1.86827   0.00000  -0.00001   0.00002   0.00001   1.86828
   A10        1.92571   0.00000  -0.00002  -0.00001  -0.00003   1.92568
   A11        1.93692   0.00000   0.00000   0.00000   0.00000   1.93692
   A12        1.92965   0.00001   0.00004   0.00001   0.00005   1.92970
   A13        3.14296  -0.00001   0.00003  -0.00029  -0.00026   3.14269
   A14        3.04986   0.00000   0.00062   0.00010   0.00072   3.05059
    D1        2.93686   0.00000   0.00008  -0.00005   0.00002   2.93688
    D2       -1.24669   0.00000   0.00004  -0.00007  -0.00002  -1.24671
    D3        0.81907   0.00000   0.00007  -0.00004   0.00003   0.81910
    D4       -0.84023   0.00000  -0.00006  -0.00005  -0.00011  -0.84034
    D5        1.25941  -0.00001  -0.00009  -0.00007  -0.00016   1.25925
    D6       -2.95802   0.00000  -0.00007  -0.00004  -0.00011  -2.95813
    D7        0.89293   0.00000  -0.00017   0.00004  -0.00013   0.89280
    D8        2.99256   0.00000  -0.00020   0.00002  -0.00018   2.99239
    D9       -1.22486   0.00000  -0.00018   0.00005  -0.00013  -1.22499
         Item               Value     Threshold  Converged?
 Maximum Force            0.000015     0.000450     YES
 RMS     Force            0.000006     0.000300     YES
 Maximum Displacement     0.000822     0.001800     YES
 RMS     Displacement     0.000249     0.001200     YES
 Predicted change in Energy=-5.589309D-09
 Optimization completed.
    -- Stationary point found.
                           ----------------------------
                           !   Optimized Parameters   !
                           ! (Angstroms and Degrees)  !
 --------------------------                            --------------------------
 ! Name  Definition              Value          Derivative Info.                !
 --------------------------------------------------------------------------------
 ! R1    R(1,2)                  1.1534         -DE/DX =    0.0                 !
 ! R2    R(1,3)                  1.4696         -DE/DX =    0.0                 !
 ! R3    R(1,7)                  2.5            -DE/DX =   -0.0123              !
 ! R4    R(1,8)                  2.6            -DE/DX =   -0.0038              !
 ! R5    R(3,4)                  1.0862         -DE/DX =    0.0                 !
 ! R6    R(3,5)                  1.0974         -DE/DX =    0.0                 !
 ! R7    R(3,6)                  1.0965         -DE/DX =    0.0                 !
 ! R8    R(8,9)                  1.1778         -DE/DX =    0.0                 !
 ! A1    A(2,1,3)              145.7604         -DE/DX =    0.0                 !
 ! A2    A(2,1,7)              108.4533         -DE/DX =    0.0                 !
 ! A3    A(2,1,8)              102.5399         -DE/DX =    0.0                 !
 ! A4    A(3,1,7)               99.0893         -DE/DX =    0.0                 !
 ! A5    A(3,1,8)               92.7029         -DE/DX =    0.0                 !
 ! A6    A(7,1,8)               98.7422         -DE/DX =    0.0                 !
 ! A7    A(1,3,4)              111.1532         -DE/DX =    0.0                 !
 ! A8    A(1,3,5)              106.638          -DE/DX =    0.0                 !
 ! A9    A(1,3,6)              107.0439         -DE/DX =    0.0                 !
 ! A10   A(4,3,5)              110.3353         -DE/DX =    0.0                 !
 ! A11   A(4,3,6)              110.9774         -DE/DX =    0.0                 !
 ! A12   A(5,3,6)              110.5608         -DE/DX =    0.0                 !
 ! A13   L(1,8,9,6,-1)         180.0781         -DE/DX =    0.0                 !
 ! A14   L(1,8,9,6,-2)         174.7443         -DE/DX =    0.0                 !
 ! D1    D(2,1,3,4)            168.2695         -DE/DX =    0.0                 !
 ! D2    D(2,1,3,5)            -71.4301         -DE/DX =    0.0                 !
 ! D3    D(2,1,3,6)             46.9292         -DE/DX =    0.0                 !
 ! D4    D(7,1,3,4)            -48.1415         -DE/DX =    0.0                 !
 ! D5    D(7,1,3,5)             72.1588         -DE/DX =    0.0                 !
 ! D6    D(7,1,3,6)           -169.4818         -DE/DX =    0.0                 !
 ! D7    D(8,1,3,4)             51.161          -DE/DX =    0.0                 !
 ! D8    D(8,1,3,5)            171.4613         -DE/DX =    0.0                 !
 ! D9    D(8,1,3,6)            -70.1794         -DE/DX =    0.0                 !
 --------------------------------------------------------------------------------
 Lowest energy point so far.  Saving SCF results.
 Largest change from initial coordinates is atom    4       0.128 Angstoms.
 GradGradGradGradGradGradGradGradGradGradGradGradGradGradGradGradGradGrad

 Leave Link  103 at Wed Jan  8 01:33:13 2020, MaxMem=  4294967296 cpu:              41.5 elap:               3.3
 (Enter /home/cwagen/sw/g16/g16/l202.exe)
                          Input orientation:                          
 ---------------------------------------------------------------------
 Center     Atomic      Atomic             Coordinates (Angstroms)
 Number     Number       Type             X           Y           Z
 ---------------------------------------------------------------------
      1          6           0       -0.247993   -0.506162   -0.373902
      2          8           0       -0.244486   -0.443994   -1.525606
      3          6           0       -0.294361   -1.396227    0.794610
      4          1           0       -0.060424   -0.856659    1.707879
      5          1           0       -1.313359   -1.800888    0.841120
      6          1           0        0.430965   -2.198920    0.616170
      7         17           0       -1.617519    1.386314    0.516566
      8          6           0        2.113048    0.388308    0.246908
      9          7           0        3.205575    0.770732    0.464415
 ---------------------------------------------------------------------
                    Distance matrix (angstroms):
                    1          2          3          4          5
     1  C    0.000000
     2  O    1.153387   0.000000
     3  C    1.469621   2.508513   0.000000
     4  H    2.119397   3.264905   1.086242   0.000000
     5  H    2.070651   2.930025   1.097393   1.792397   0.000000
     6  H    2.075248   2.850123   1.096474   1.798599   1.803247
     7  Cl   2.500000   3.066874   3.093638   2.979044   3.218090
     8  C    2.600000   3.064719   3.046336   2.899718   4.109250
     9  N    3.776291   4.163973   4.129685   3.855043   5.213051
                    6          7          8          9
     6  H    0.000000
     7  Cl   4.130389   0.000000
     8  C    3.107975   3.871158   0.000000
     9  N    4.066980   4.862500   1.177783   0.000000
 Stoichiometry    C3H3ClNO(1-)
 Framework group  C1[X(C3H3ClNO)]
 Deg. of freedom    21
 Full point group                 C1      NOp   1
 RotChk:  IX=0 Diff= 5.31D-16
 Largest Abelian subgroup         C1      NOp   1
 Largest concise Abelian subgroup C1      NOp   1
                         Standard orientation:                         
 ---------------------------------------------------------------------
 Center     Atomic      Atomic             Coordinates (Angstroms)
 Number     Number       Type             X           Y           Z
 ---------------------------------------------------------------------
      1          6           0       -0.183682    0.872008    0.244839
      2          8           0       -0.179938    1.176018    1.357432
      3          6           0       -0.130861    1.347497   -1.144732
      4          1           0        0.030600    0.524327   -1.834836
      5          1           0       -1.094302    1.832049   -1.347860
      6          1           0        0.686622    2.075799   -1.204339
      7         17           0       -1.776089   -1.032584   -0.049728
      8          6           0        2.048924   -0.439698    0.010533
      9          7           0        3.086259   -0.995032   -0.041556
 ---------------------------------------------------------------------
 Rotational constants (GHZ):           3.0310521           1.4488427           1.2275610
 Leave Link  202 at Wed Jan  8 01:33:13 2020, MaxMem=  4294967296 cpu:               1.1 elap:               0.1
 (Enter /home/cwagen/sw/g16/g16/l601.exe)
 Copying SCF densities to generalized density rwf, IOpCl= 0 IROHF=0.

 **********************************************************************

            Population analysis using the SCF density.

 **********************************************************************

 Orbital symmetries:
       Occupied  (A) (A) (A) (A) (A) (A) (A) (A) (A) (A) (A) (A)
                 (A) (A) (A) (A) (A) (A) (A) (A) (A) (A) (A) (A)
                 (A) (A) (A)
       Virtual   (A) (A) (A) (A) (A) (A) (A) (A) (A) (A) (A) (A)
                 (A) (A) (A) (A) (A) (A) (A) (A) (A) (A) (A) (A)
                 (A) (A) (A) (A) (A) (A) (A) (A) (A) (A) (A) (A)
                 (A) (A) (A) (A) (A) (A) (A) (A) (A) (A) (A) (A)
                 (A) (A) (A) (A) (A) (A) (A) (A) (A) (A) (A) (A)
                 (A) (A) (A) (A) (A) (A) (A) (A) (A) (A) (A) (A)
                 (A) (A) (A) (A) (A) (A) (A) (A) (A) (A) (A) (A)
                 (A) (A) (A) (A) (A) (A) (A) (A) (A) (A) (A) (A)
                 (A)
 The electronic state is 1-A.
 Alpha  occ. eigenvalues -- -101.45507 -19.23973 -14.27178 -10.36913 -10.21979
 Alpha  occ. eigenvalues --  -10.13993  -9.36877  -7.12889  -7.12536  -7.12522
 Alpha  occ. eigenvalues --   -1.14558  -0.82828  -0.78551  -0.70764  -0.56191
 Alpha  occ. eigenvalues --   -0.49231  -0.48750  -0.48192  -0.41131  -0.40811
 Alpha  occ. eigenvalues --   -0.36097  -0.27719  -0.27671  -0.25797  -0.25012
 Alpha  occ. eigenvalues --   -0.24394  -0.24086
 Alpha virt. eigenvalues --   -0.06074  -0.02654   0.02606   0.04831   0.05224
 Alpha virt. eigenvalues --    0.05410   0.07643   0.08104   0.08802   0.09754
 Alpha virt. eigenvalues --    0.10021   0.10963   0.11244   0.12661   0.13377
 Alpha virt. eigenvalues --    0.13801   0.14088   0.16537   0.17358   0.19704
 Alpha virt. eigenvalues --    0.21887   0.23126   0.24505   0.24948   0.25707
 Alpha virt. eigenvalues --    0.26303   0.27806   0.28229   0.32232   0.33393
 Alpha virt. eigenvalues --    0.36422   0.40512   0.48248   0.54772   0.62713
 Alpha virt. eigenvalues --    0.63751   0.64920   0.67127   0.69926   0.71081
 Alpha virt. eigenvalues --    0.72986   0.75324   0.77528   0.79869   0.80467
 Alpha virt. eigenvalues --    0.83066   0.86973   0.93830   0.95798   0.96012
 Alpha virt. eigenvalues --    0.97003   0.98650   0.99896   1.00506   1.03106
 Alpha virt. eigenvalues --    1.03557   1.05167   1.14771   1.19773   1.24487
 Alpha virt. eigenvalues --    1.24858   1.28138   1.29897   1.37090   1.41764
 Alpha virt. eigenvalues --    1.47416   1.51437   1.57638   1.60245   1.60778
 Alpha virt. eigenvalues --    1.61787   1.63307   1.72804   1.79919   1.81237
 Alpha virt. eigenvalues --    1.83643   1.99877   2.02457   2.02720   2.09907
 Alpha virt. eigenvalues --    2.23536   2.23726   2.36611   2.51243   2.62036
 Alpha virt. eigenvalues --    2.65927   2.66074   2.69811   2.93199   3.09193
 Alpha virt. eigenvalues --    3.18725   4.02526   4.19984   4.28705   4.31146
 Alpha virt. eigenvalues --    4.39856   4.49841
          Condensed to atoms (all electrons):
               1          2          3          4          5          6
     1  C    5.226624   0.510160  -0.210400  -0.067703  -0.024936  -0.052671
     2  O    0.510160   7.794270  -0.028752   0.005716  -0.003101  -0.000360
     3  C   -0.210400  -0.028752   5.947737   0.406399   0.342529   0.376074
     4  H   -0.067703   0.005716   0.406399   0.393815  -0.019509  -0.018880
     5  H   -0.024936  -0.003101   0.342529  -0.019509   0.429055  -0.021396
     6  H   -0.052671  -0.000360   0.376074  -0.018880  -0.021396   0.431926
     7  Cl   0.012810  -0.044734   0.012339  -0.002140  -0.007606   0.006746
     8  C    0.255854  -0.086233  -0.260795  -0.009416   0.013805  -0.011476
     9  N   -0.013038   0.001471   0.005017  -0.000083  -0.000094  -0.000346
               7          8          9
     1  C    0.012810   0.255854  -0.013038
     2  O   -0.044734  -0.086233   0.001471
     3  C    0.012339  -0.260795   0.005017
     4  H   -0.002140  -0.009416  -0.000083
     5  H   -0.007606   0.013805  -0.000094
     6  H    0.006746  -0.011476  -0.000346
     7  Cl  17.732440  -0.068938  -0.002616
     8  C   -0.068938   5.750684   0.641021
     9  N   -0.002616   0.641021   7.024011
 Mulliken charges:
               1
     1  C    0.363299
     2  O   -0.148437
     3  C   -0.590149
     4  H    0.311802
     5  H    0.291253
     6  H    0.290383
     7  Cl  -0.638301
     8  C   -0.224508
     9  N   -0.655343
 Sum of Mulliken charges =  -1.00000
 Mulliken charges with hydrogens summed into heavy atoms:
               1
     1  C    0.363299
     2  O   -0.148437
     3  C    0.303290
     7  Cl  -0.638301
     8  C   -0.224508
     9  N   -0.655343
 Electronic spatial extent (au):  <R**2>=            986.0466
 Charge=             -1.0000 electrons
 Dipole moment (field-independent basis, Debye):
    X=             -5.2701    Y=              9.2343    Z=             -2.6033  Tot=             10.9464
 Quadrupole moment (field-independent basis, Debye-Ang):
   XX=            -88.3812   YY=            -49.1747   ZZ=            -45.2912
   XY=              3.5083   XZ=              0.5754   YZ=             -4.1880
 Traceless Quadrupole moment (field-independent basis, Debye-Ang):
   XX=            -27.4322   YY=             11.7744   ZZ=             15.6578
   XY=              3.5083   XZ=              0.5754   YZ=             -4.1880
 Octapole moment (field-independent basis, Debye-Ang**2):
  XXX=            -98.6261  YYY=             31.0636  ZZZ=             -3.4378  XYY=            -11.1310
  XXY=             50.2576  XXZ=              2.1624  XZZ=             -5.2531  YZZ=              6.7562
  YYZ=             -4.7450  XYZ=              0.4175
 Hexadecapole moment (field-independent basis, Debye-Ang**3):
 XXXX=          -1295.8761 YYYY=           -353.9270 ZZZZ=           -181.5250 XXXY=             95.6178
 XXXZ=              4.8228 YYYX=             16.8759 YYYZ=             -7.5725 ZZZX=              0.3035
 ZZZY=             -3.2704 XXYY=           -254.6318 XXZZ=           -187.4707 YYZZ=            -88.9555
 XXYZ=             -3.4678 YYXZ=              1.1449 ZZXY=              2.0674
 N-N= 2.254809081479D+02 E-N=-2.128224880333D+03  KE= 7.024173438484D+02
 No NMR shielding tensors so no spin-rotation constants.
 Leave Link  601 at Wed Jan  8 01:33:14 2020, MaxMem=  4294967296 cpu:              13.7 elap:               1.2
 (Enter /home/cwagen/sw/g16/g16/l9999.exe)
 1\1\GINC-NODE041\FOpt\RB3LYP\6-31+G(d)\C3H3Cl1N1O1(1-)\CWAGEN\08-Jan-2
 020\0\\#p opt=modredundant b3lyp/6-31+g(d) scrf=(smd, solvent=tetrahyd
 rofuran)\\title\\-1,1\C,-0.2479934616,-0.5061620873,-0.3739017314\O,-0
 .2444856636,-0.4439941446,-1.5256064083\C,-0.2943608499,-1.3962271786,
 0.7946097391\H,-0.0604235123,-0.8566591175,1.707879498\H,-1.3133591929
 ,-1.8008877339,0.8411200325\H,0.4309653045,-2.1989197833,0.6161698207\
 Cl,-1.6175189761,1.3863144136,0.5165658865\C,2.1130484378,0.3883079936
 ,0.2469077716\N,3.2055754941,0.7707319981,0.4644151414\\Version=AS64L-
 G16RevA.03\State=1-A\HF=-706.3992792\RMSD=7.697e-09\RMSF=3.428e-03\Dip
 ole=-2.5115289,-3.4948545,-0.1591161\Quadrupole=-20.5227665,11.0159048
 ,9.5068618,1.4310118,-1.421082,-3.1956407\PG=C01 [X(C3H3Cl1N1O1)]\\@


 IF I AM NOT FOR MYSELF, WHO WILL BE?
 BUT IF I AM ONLY FOR MYSELF, WHAT AM I?
 THOUGH A SEEKER SINCE MY BIRTH,
 HERE IS ALL I'VE LEARNED ON EARTH,
 THIS IS THE GIST OF WHAT I KNOW:
 GIVE ADVICE AND BUY A FOE.

 PRESSED FOR RULES AND VERITIES,
 ALL I RECOLLECT ARE THESE:
 FEED A COLD TO STARVE A FEVER,
 ARGUE WITH NO TRUE-BELIEVER.
 THINK-TOO-LONG IS NEVER-ACT,
 SCRATCH A MYTH AND FIND A FACT.

 STITCH IN TIME SAVES TWENTY STITCHES,
 GIVE THE RICH TO PLEASE THEM, RICHES.
 GIVE TO LOVE YOU HEARTH AND HALL,
 BUT DO NOT GIVE ADVICE AT ALL.

                                  -- HILLEL
 Job cpu time:       0 days  2 hours 49 minutes 18.2 seconds.
 Elapsed time:       0 days  0 hours 13 minutes 33.9 seconds.
 File lengths (MBytes):  RWF=     41 Int=      0 D2E=      0 Chk=      3 Scr=      1
 Normal termination of Gaussian 16 at Wed Jan  8 01:33:14 2020.
