 Entering Gaussian System, Link 0=g16
 Input=scan_220_290.gjf
 Output=scan_220_290.out
 Initial command:
 /home/cwagen/sw/g16/g16/l1.exe "/scratch/users/cwagen/cwagen_scan_220_290/Gau-14926.inp" -scrdir="/scratch/users/cwagen/cwagen_scan_220_290/"
 Entering Link 1 = /home/cwagen/sw/g16/g16/l1.exe PID=     14943.
  
 Copyright (c) 1988,1990,1992,1993,1995,1998,2003,2009,2016,
            Gaussian, Inc.  All Rights Reserved.
  
 This is part of the Gaussian(R) 16 program.  It is based on
 the Gaussian(R) 09 system (copyright 2009, Gaussian, Inc.),
 the Gaussian(R) 03 system (copyright 2003, Gaussian, Inc.),
 the Gaussian(R) 98 system (copyright 1998, Gaussian, Inc.),
 the Gaussian(R) 94 system (copyright 1995, Gaussian, Inc.),
 the Gaussian 92(TM) system (copyright 1992, Gaussian, Inc.),
 the Gaussian 90(TM) system (copyright 1990, Gaussian, Inc.),
 the Gaussian 88(TM) system (copyright 1988, Gaussian, Inc.),
 the Gaussian 86(TM) system (copyright 1986, Carnegie Mellon
 University), and the Gaussian 82(TM) system (copyright 1983,
 Carnegie Mellon University). Gaussian is a federally registered
 trademark of Gaussian, Inc.
  
 This software contains proprietary and confidential information,
 including trade secrets, belonging to Gaussian, Inc.
  
 This software is provided under written license and may be
 used, copied, transmitted, or stored only in accord with that
 written license.
  
 The following legend is applicable only to US Government
 contracts under FAR:
  
                    RESTRICTED RIGHTS LEGEND
  
 Use, reproduction and disclosure by the US Government is
 subject to restrictions as set forth in subparagraphs (a)
 and (c) of the Commercial Computer Software - Restricted
 Rights clause in FAR 52.227-19.
  
 Gaussian, Inc.
 340 Quinnipiac St., Bldg. 40, Wallingford CT 06492
  
  
 ---------------------------------------------------------------
 Warning -- This program may not be used in any manner that
 competes with the business of Gaussian, Inc. or will provide
 assistance to any competitor of Gaussian, Inc.  The licensee
 of this program is prohibited from giving any competitor of
 Gaussian, Inc. access to this program.  By using this program,
 the user acknowledges that Gaussian, Inc. is engaged in the
 business of creating and licensing software in the field of
 computational chemistry and represents and warrants to the
 licensee that it is not a competitor of Gaussian, Inc. and that
 it will not use this program in any manner prohibited above.
 ---------------------------------------------------------------
  

 Cite this work as:
 Gaussian 16, Revision A.03,
 M. J. Frisch, G. W. Trucks, H. B. Schlegel, G. E. Scuseria, 
 M. A. Robb, J. R. Cheeseman, G. Scalmani, V. Barone, 
 G. A. Petersson, H. Nakatsuji, X. Li, M. Caricato, A. V. Marenich, 
 J. Bloino, B. G. Janesko, R. Gomperts, B. Mennucci, H. P. Hratchian, 
 J. V. Ortiz, A. F. Izmaylov, J. L. Sonnenberg, D. Williams-Young, 
 F. Ding, F. Lipparini, F. Egidi, J. Goings, B. Peng, A. Petrone, 
 T. Henderson, D. Ranasinghe, V. G. Zakrzewski, J. Gao, N. Rega, 
 G. Zheng, W. Liang, M. Hada, M. Ehara, K. Toyota, R. Fukuda, 
 J. Hasegawa, M. Ishida, T. Nakajima, Y. Honda, O. Kitao, H. Nakai, 
 T. Vreven, K. Throssell, J. A. Montgomery, Jr., J. E. Peralta, 
 F. Ogliaro, M. J. Bearpark, J. J. Heyd, E. N. Brothers, K. N. Kudin, 
 V. N. Staroverov, T. A. Keith, R. Kobayashi, J. Normand, 
 K. Raghavachari, A. P. Rendell, J. C. Burant, S. S. Iyengar, 
 J. Tomasi, M. Cossi, J. M. Millam, M. Klene, C. Adamo, R. Cammi, 
 J. W. Ochterski, R. L. Martin, K. Morokuma, O. Farkas, 
 J. B. Foresman, and D. J. Fox, Gaussian, Inc., Wallingford CT, 2016.
 
 ******************************************
 Gaussian 16:  AS64L-G16RevA.03 25-Dec-2016
                 8-Jan-2020 
 ******************************************
 %nprocshared=16
 Will use up to   16 processors via shared memory.
 %mem=32GB
 ----------------------------------------------------------------------
 #p opt=modredundant b3lyp/6-31+g(d) scrf=(smd, solvent=tetrahydrofuran
 )
 ----------------------------------------------------------------------
 1/18=120,19=15,26=3,38=1/1,3;
 2/9=110,12=2,17=6,18=5,40=1/2;
 3/5=1,6=6,7=11,11=2,25=1,30=1,70=32201,71=1,72=20,74=-5/1,2,3;
 4//1;
 5/5=2,38=5,53=20/2;
 6/7=2,8=2,9=2,10=2,28=1/1;
 7//1,2,3,16;
 1/18=20,19=15,26=3/3(2);
 2/9=110/2;
 99//99;
 2/9=110/2;
 3/5=1,6=6,7=11,11=2,25=1,30=1,70=32205,71=1,72=20,74=-5/1,2,3;
 4/5=5,16=3,69=1/1;
 5/5=2,38=5,53=20/2;
 7//1,2,3,16;
 1/18=20,19=15,26=3/3(-5);
 2/9=110/2;
 6/7=2,8=2,9=2,10=2,19=2,28=1/1;
 99/9=1/99;
 Leave Link    1 at Wed Jan  8 00:46:38 2020, MaxMem=  4294967296 cpu:               9.0 elap:               2.8
 (Enter /home/cwagen/sw/g16/g16/l101.exe)
 -----
 title
 -----
 Symbolic Z-matrix:
 Charge = -1 Multiplicity = 1
 6                    -0.19426  -0.292    -0.21291 
 8                    -0.25532  -0.66526  -1.45426 
 6                    -0.33095  -1.45422   0.81632 
 1                    -0.18039  -1.13044   1.85373 
 1                    -1.34067  -1.87301   0.71427 
 1                     0.39707  -2.23395   0.57058 
 17                   -1.51149   1.37901   0.34622 
 6                     2.49439   0.6495    0.32998 
 7                     3.62896   0.92979   0.36029 
 
 Add virtual bond connecting atoms Cl7        and C1         Dist= 4.16D+00.
 Add virtual bond connecting atoms C8         and C1         Dist= 5.48D+00.
 The following ModRedundant input section has been read:
 B       1       7 F                                                           
 B       1       8 F                                                           
 
 ITRead=  0  0  0  0  0  0  0  0  0
 MicOpt= -1 -1 -1 -1 -1 -1 -1 -1 -1
 NAtoms=      9 NQM=        9 NQMF=       0 NMMI=      0 NMMIF=      0
                NMic=       0 NMicF=      0.
                    Isotopes and Nuclear Properties:
 (Nuclear quadrupole moments (NQMom) in fm**2, nuclear magnetic moments (NMagM)
  in nuclear magnetons)

  Atom         1           2           3           4           5           6           7           8           9
 IAtWgt=          12          16          12           1           1           1          35          12          14
 AtmWgt=  12.0000000  15.9949146  12.0000000   1.0078250   1.0078250   1.0078250  34.9688527  12.0000000  14.0030740
 NucSpn=           0           0           0           1           1           1           3           0           2
 AtZEff=   0.0000000   0.0000000   0.0000000   0.0000000   0.0000000   0.0000000   0.0000000   0.0000000   0.0000000
 NQMom=    0.0000000   0.0000000   0.0000000   0.0000000   0.0000000   0.0000000  -8.1650000   0.0000000   2.0440000
 NMagM=    0.0000000   0.0000000   0.0000000   2.7928460   2.7928460   2.7928460   0.8218740   0.0000000   0.4037610
 AtZNuc=   6.0000000   8.0000000   6.0000000   1.0000000   1.0000000   1.0000000  17.0000000   6.0000000   7.0000000
 Leave Link  101 at Wed Jan  8 00:46:40 2020, MaxMem=  4294967296 cpu:               9.0 elap:               2.3
 (Enter /home/cwagen/sw/g16/g16/l103.exe)

 GradGradGradGradGradGradGradGradGradGradGradGradGradGradGradGradGradGrad
 Berny optimization.
 Initialization pass.
                           ----------------------------
                           !    Initial Parameters    !
                           ! (Angstroms and Degrees)  !
 --------------------------                            --------------------------
 ! Name  Definition              Value          Derivative Info.                !
 --------------------------------------------------------------------------------
 ! R1    R(1,2)                  1.2977         estimate D2E/DX2                !
 ! R2    R(1,3)                  1.5584         estimate D2E/DX2                !
 ! R3    R(1,7)                  2.2            Frozen                          !
 ! R4    R(1,8)                  2.9            Frozen                          !
 ! R5    R(3,4)                  1.0971         estimate D2E/DX2                !
 ! R6    R(3,5)                  1.0979         estimate D2E/DX2                !
 ! R7    R(3,6)                  1.0947         estimate D2E/DX2                !
 ! R8    R(8,9)                  1.1691         estimate D2E/DX2                !
 ! A1    A(2,1,3)              114.4006         estimate D2E/DX2                !
 ! A2    A(2,1,7)              115.6846         estimate D2E/DX2                !
 ! A3    A(2,1,8)              108.426          estimate D2E/DX2                !
 ! A4    A(3,1,7)              110.248          estimate D2E/DX2                !
 ! A5    A(3,1,8)              101.5248         estimate D2E/DX2                !
 ! A6    A(7,1,8)              105.1256         estimate D2E/DX2                !
 ! A7    A(1,3,4)              113.1005         estimate D2E/DX2                !
 ! A8    A(1,3,5)              107.683          estimate D2E/DX2                !
 ! A9    A(1,3,6)              108.9421         estimate D2E/DX2                !
 ! A10   A(4,3,5)              109.0662         estimate D2E/DX2                !
 ! A11   A(4,3,6)              109.3417         estimate D2E/DX2                !
 ! A12   A(5,3,6)              108.6067         estimate D2E/DX2                !
 ! A13   L(1,8,9,6,-1)         177.0663         estimate D2E/DX2                !
 ! A14   L(1,8,9,6,-2)         163.5063         estimate D2E/DX2                !
 ! D1    D(2,1,3,4)            174.4714         estimate D2E/DX2                !
 ! D2    D(2,1,3,5)            -64.9488         estimate D2E/DX2                !
 ! D3    D(2,1,3,6)             52.6633         estimate D2E/DX2                !
 ! D4    D(7,1,3,4)            -53.1046         estimate D2E/DX2                !
 ! D5    D(7,1,3,5)             67.4752         estimate D2E/DX2                !
 ! D6    D(7,1,3,6)           -174.9127         estimate D2E/DX2                !
 ! D7    D(8,1,3,4)             57.938          estimate D2E/DX2                !
 ! D8    D(8,1,3,5)            178.5177         estimate D2E/DX2                !
 ! D9    D(8,1,3,6)            -63.8702         estimate D2E/DX2                !
 --------------------------------------------------------------------------------
 Trust Radius=3.00D-01 FncErr=1.00D-07 GrdErr=1.00D-06 EigMax=2.50D+02 EigMin=1.00D-04
 Number of steps in this run=     41 maximum allowed number of steps=    100.
 GradGradGradGradGradGradGradGradGradGradGradGradGradGradGradGradGradGrad

 Leave Link  103 at Wed Jan  8 00:46:40 2020, MaxMem=  4294967296 cpu:               1.5 elap:               0.4
 (Enter /home/cwagen/sw/g16/g16/l202.exe)
                          Input orientation:                          
 ---------------------------------------------------------------------
 Center     Atomic      Atomic             Coordinates (Angstroms)
 Number     Number       Type             X           Y           Z
 ---------------------------------------------------------------------
      1          6           0       -0.194263   -0.291999   -0.212908
      2          8           0       -0.255321   -0.665256   -1.454255
      3          6           0       -0.330945   -1.454221    0.816316
      4          1           0       -0.180394   -1.130438    1.853734
      5          1           0       -1.340665   -1.873010    0.714272
      6          1           0        0.397068   -2.233949    0.570583
      7         17           0       -1.511489    1.379015    0.346225
      8          6           0        2.494390    0.649496    0.329984
      9          7           0        3.628961    0.929794    0.360287
 ---------------------------------------------------------------------
                    Distance matrix (angstroms):
                    1          2          3          4          5
     1  C    0.000000
     2  O    1.297687   0.000000
     3  C    1.558443   2.404928   0.000000
     4  H    2.230287   3.341377   1.097150   0.000000
     5  H    2.161827   2.709087   1.097876   1.787740   0.000000
     6  H    2.175937   2.643176   1.094698   1.788205   1.780629
     7  Cl   2.200000   2.999788   3.105140   3.215859   3.277240
     8  C    2.900000   3.531712   3.555933   3.555904   4.606339
     9  N    4.054426   4.574319   4.644604   4.581062   5.716485
                    6          7          8          9
     6  H    0.000000
     7  Cl   4.092240   0.000000
     8  C    3.573640   4.071797   0.000000
     9  N    4.527541   5.160061   1.169075   0.000000
 Stoichiometry    C3H3ClNO(1-)
 Framework group  C1[X(C3H3ClNO)]
 Deg. of freedom    21
 Full point group                 C1      NOp   1
 Largest Abelian subgroup         C1      NOp   1
 Largest concise Abelian subgroup C1      NOp   1
                         Standard orientation:                         
 ---------------------------------------------------------------------
 Center     Atomic      Atomic             Coordinates (Angstroms)
 Number     Number       Type             X           Y           Z
 ---------------------------------------------------------------------
      1          6           0       -0.375501    0.570165    0.207540
      2          8           0       -0.489171    1.152254    1.361768
      3          6           0       -0.503473    1.530471   -1.013190
      4          1           0       -0.308761    1.035300   -1.972685
      5          1           0       -1.525859    1.930526   -1.017039
      6          1           0        0.196629    2.362338   -0.885843
      7         17           0       -1.631986   -1.211056   -0.089944
      8          6           0        2.352301   -0.371485   -0.079499
      9          7           0        3.493594   -0.619020   -0.025521
 ---------------------------------------------------------------------
 Rotational constants (GHZ):           2.9730369           1.2974641           1.0899526
 Leave Link  202 at Wed Jan  8 00:46:41 2020, MaxMem=  4294967296 cpu:               4.0 elap:               1.0
 (Enter /home/cwagen/sw/g16/g16/l301.exe)
 Standard basis: 6-31+G(d) (6D, 7F)
 Ernie: Thresh=  0.10000D-02 Tol=  0.10000D-05 Strict=F.
 There are   124 symmetry adapted cartesian basis functions of A   symmetry.
 There are   124 symmetry adapted basis functions of A   symmetry.
   124 basis functions,   228 primitive gaussians,   124 cartesian basis functions
    27 alpha electrons       27 beta electrons
       nuclear repulsion energy       219.4471236439 Hartrees.
 IExCor=  402 DFT=T Ex+Corr=B3LYP ExCW=0 ScaHFX=  0.200000
 ScaDFX=  0.800000  0.720000  1.000000  0.810000 ScalE2=  1.000000  1.000000
 IRadAn=      5 IRanWt=     -1 IRanGd=            0 ICorTp=0 IEmpDi=  4
 NAtoms=    9 NActive=    9 NUniq=    9 SFac= 1.00D+00 NAtFMM=   60 NAOKFM=F Big=F
 Integral buffers will be    131072 words long.
 Raffenetti 2 integral format.
 Two-electron integral symmetry is turned on.
 ------------------------------------------------------------------------------
 Polarizable Continuum Model (PCM)
 =================================
 Model                : PCM.
 Atomic radii         : SMD-Coulomb.
 Polarization charges : Total charges.
 Charge compensation  : None.
 Solution method      : On-the-fly selection.
 Cavity type          : VdW (van der Waals Surface) (Alpha=1.000).
 Cavity algorithm     : GePol (No added spheres)
                        Default sphere list used, NSphG=    9.
                        Lebedev-Laikov grids with approx.  5.0 points / Ang**2.
                        Smoothing algorithm: York/Karplus (Gamma=1.0000).
                        Polarization charges: spherical gaussians, with
                                              point-specific exponents (IZeta= 3).
                        Self-potential: point-specific (ISelfS= 7).
                        Self-field    : sphere-specific E.n sum rule (ISelfD= 2).
 1st derivatives      : Analytical E(r).r(x)/FMM algorithm (CHGder, D1EAlg=3).
                        Cavity 1st derivative terms included.
 Solvent              : TetraHydroFuran, Eps=   7.425700 Eps(inf)=   1.974025
 ------------------------------------------------------------------------------
 Spheres list:
 ISph  on   Nord     Re0    Alpha      Xe            Ye            Ze
    1   C      1    1.8500  1.000     -0.375501      0.570165      0.207540
    2   O      2    2.2940  1.000     -0.489171      1.152254      1.361768
    3   C      3    1.8500  1.000     -0.503473      1.530471     -1.013190
    4   H      4    1.2000  1.000     -0.308761      1.035300     -1.972685
    5   H      5    1.2000  1.000     -1.525859      1.930526     -1.017039
    6   H      6    1.2000  1.000      0.196629      2.362338     -0.885843
    7  Cl      7    2.3800  1.000     -1.631986     -1.211056     -0.089944
    8   C      8    1.8500  1.000      2.352301     -0.371485     -0.079499
    9   N      9    1.8900  1.000      3.493594     -0.619020     -0.025521
 ------------------------------------------------------------------------------
 GePol: Number of generator spheres                  =       9
 GePol: Total number of spheres                      =       9
 GePol: Number of exposed spheres                    =       9 (100.00%)
 GePol: Number of points                             =    1319
 GePol: Average weight of points                     =       0.14
 GePol: Minimum weight of points                     =   0.11D-07
 GePol: Maximum weight of points                     =    0.18138
 GePol: Number of points with low weight             =      40
 GePol: Fraction of low-weight points (<1% of avg)   =       3.03%
 GePol: Cavity surface area                          =    178.206 Ang**2
 GePol: Cavity volume                                =    156.461 Ang**3
 ------------------------------------------------------------------------------
 Atomic radii for non-electrostatic terms: SMD-CDS.
 ------------------------------------------------------------------------------
 PCM non-electrostatic energy =         0.0012118026 Hartrees.
 Nuclear repulsion after PCM non-electrostatic terms =      219.4483354465 Hartrees.
 Leave Link  301 at Wed Jan  8 00:46:42 2020, MaxMem=  4294967296 cpu:               3.0 elap:               0.8
 (Enter /home/cwagen/sw/g16/g16/l302.exe)
 NPDir=0 NMtPBC=     1 NCelOv=     1 NCel=       1 NClECP=     1 NCelD=      1
         NCelK=      1 NCelE2=     1 NClLst=     1 CellRange=     0.0.
 One-electron integrals computed using PRISM.
 One-electron integral symmetry used in STVInt
 NBasis=   124 RedAO= T EigKep=  1.74D-04  NBF=   124
 NBsUse=   124 1.00D-06 EigRej= -1.00D+00 NBFU=   124
 Precomputing XC quadrature grid using
 IXCGrd= 4 IRadAn=           5 IRanWt=          -1 IRanGd=           0 AccXCQ= 0.00D+00.
 Generated NRdTot=       0 NPtTot=           0 NUsed=           0 NTot=          32
 NSgBfM=   123   123   123   123   123 MxSgAt=     9 MxSgA2=     9.
 Leave Link  302 at Wed Jan  8 00:46:57 2020, MaxMem=  4294967296 cpu:              59.5 elap:              14.9
 (Enter /home/cwagen/sw/g16/g16/l303.exe)
 DipDrv:  MaxL=1.
 Leave Link  303 at Wed Jan  8 00:46:59 2020, MaxMem=  4294967296 cpu:               6.2 elap:               1.8
 (Enter /home/cwagen/sw/g16/g16/l401.exe)
 ExpMin= 4.38D-02 ExpMax= 2.52D+04 ExpMxC= 3.78D+03 IAcc=3 IRadAn=         5 AccDes= 0.00D+00
 Harris functional with IExCor=  402 and IRadAn=       5 diagonalized for initial guess.
 HarFok:  IExCor=  402 AccDes= 0.00D+00 IRadAn=         5 IDoV= 1 UseB2=F ITyADJ=14
 ICtDFT=  3500011 ScaDFX=  1.000000  1.000000  1.000000  1.000000
 FoFCou: FMM=F IPFlag=           0 FMFlag=      100000 FMFlg1=           0
         NFxFlg=           0 DoJE=T BraDBF=F KetDBF=T FulRan=T
         wScrn=  0.000000 ICntrl=       500 IOpCl=  0 I1Cent=   200000004 NGrid=           0
         NMat0=    1 NMatS0=      1 NMatT0=    0 NMatD0=    1 NMtDS0=    0 NMtDT0=    0
 Petite list used in FoFCou.
 Harris En= -706.369889730712    
 JPrj=0 DoOrth=F DoCkMO=F.
 Leave Link  401 at Wed Jan  8 00:47:12 2020, MaxMem=  4294967296 cpu:              50.9 elap:              12.8
 (Enter /home/cwagen/sw/g16/g16/l502.exe)
 Keep R1 ints in memory in canonical form, NReq=45236517.
 FoFCou: FMM=F IPFlag=           0 FMFlag=           0 FMFlg1=           0
         NFxFlg=           0 DoJE=F BraDBF=F KetDBF=F FulRan=T
         wScrn=  0.000000 ICntrl=       600 IOpCl=  0 I1Cent=           0 NGrid=           0
         NMat0=    1 NMatS0=   7750 NMatT0=    0 NMatD0=    1 NMtDS0=    0 NMtDT0=    0
 Symmetry not used in FoFCou.
 Two-electron integral symmetry not used.
 Closed shell SCF:
 Using DIIS extrapolation, IDIIS=  1040.
 NGot=  4294967296 LenX=  4264898079 LenY=  4264882262
 Requested convergence on RMS density matrix=1.00D-08 within 128 cycles.
 Requested convergence on MAX density matrix=1.00D-06.
 Requested convergence on             energy=1.00D-06.
 No special actions if energy rises.

 Cycle   1  Pass 1  IDiag  1:
 Inv3:  Mode=1 IEnd=     5219283.
 Iteration    1 A*A^-1 deviation from unit magnitude is 2.89D-15 for   1299.
 Iteration    1 A*A^-1 deviation from orthogonality  is 1.90D-15 for   1310   1020.
 Iteration    1 A^-1*A deviation from unit magnitude is 3.11D-15 for   1299.
 Iteration    1 A^-1*A deviation from orthogonality  is 1.41D-15 for   1290   1133.
 E= -706.148677944586    
 DIIS: error= 2.95D-02 at cycle   1 NSaved=   1.
 NSaved= 1 IEnMin= 1 EnMin= -706.148677944586     IErMin= 1 ErrMin= 2.95D-02
 ErrMax= 2.95D-02  0.00D+00 EMaxC= 1.00D-01 BMatC= 2.19D-01 BMatP= 2.19D-01
 IDIUse=3 WtCom= 7.05D-01 WtEn= 2.95D-01
 Coeff-Com:  0.100D+01
 Coeff-En:   0.100D+01
 Coeff:      0.100D+01
 Gap=     0.195 Goal=   None    Shift=    0.000
 GapD=    0.195 DampG=1.000 DampE=0.500 DampFc=0.5000 IDamp=-1.
 Damping current iteration by 5.00D-01
 RMSDP=1.40D-02 MaxDP=5.56D-01              OVMax= 5.17D-01

 Cycle   2  Pass 1  IDiag  1:
 E= -706.061125015994     Delta-E=        0.087552928592 Rises=F Damp=T
 DIIS: error= 2.44D-02 at cycle   2 NSaved=   2.
 NSaved= 2 IEnMin= 1 EnMin= -706.148677944586     IErMin= 2 ErrMin= 2.44D-02
 ErrMax= 2.44D-02  0.00D+00 EMaxC= 1.00D-01 BMatC= 1.42D-01 BMatP= 2.19D-01
 IDIUse=3 WtCom= 7.56D-01 WtEn= 2.44D-01
 Coeff-Com:  0.434D+00 0.566D+00
 Coeff-En:   0.611D+00 0.389D+00
 Coeff:      0.477D+00 0.523D+00
 Gap=     0.065 Goal=   None    Shift=    0.000
 RMSDP=4.22D-03 MaxDP=1.00D-01 DE= 8.76D-02 OVMax= 3.64D-01

 Cycle   3  Pass 1  IDiag  1:
 E= -706.291814872240     Delta-E=       -0.230689856246 Rises=F Damp=F
 DIIS: error= 1.79D-02 at cycle   3 NSaved=   3.
 NSaved= 3 IEnMin= 3 EnMin= -706.291814872240     IErMin= 3 ErrMin= 1.79D-02
 ErrMax= 1.79D-02  0.00D+00 EMaxC= 1.00D-01 BMatC= 7.15D-02 BMatP= 1.42D-01
 IDIUse=3 WtCom= 8.21D-01 WtEn= 1.79D-01
 EnCoef did     1 forward-backward iterations
 Coeff-Com:  0.212D+00 0.381D+00 0.408D+00
 Coeff-En:   0.795D-01 0.170D-01 0.904D+00
 Coeff:      0.188D+00 0.316D+00 0.496D+00
 Gap=     0.151 Goal=   None    Shift=    0.000
 RMSDP=3.47D-03 MaxDP=1.19D-01 DE=-2.31D-01 OVMax= 1.55D-01

 Cycle   4  Pass 1  IDiag  1:
 E= -706.349583074812     Delta-E=       -0.057768202571 Rises=F Damp=F
 DIIS: error= 8.64D-03 at cycle   4 NSaved=   4.
 NSaved= 4 IEnMin= 4 EnMin= -706.349583074812     IErMin= 4 ErrMin= 8.64D-03
 ErrMax= 8.64D-03  0.00D+00 EMaxC= 1.00D-01 BMatC= 1.48D-02 BMatP= 7.15D-02
 IDIUse=3 WtCom= 9.14D-01 WtEn= 8.64D-02
 Coeff-Com:  0.558D-01 0.532D-01 0.302D+00 0.589D+00
 Coeff-En:   0.000D+00 0.000D+00 0.188D+00 0.812D+00
 Coeff:      0.510D-01 0.486D-01 0.293D+00 0.608D+00
 Gap=     0.133 Goal=   None    Shift=    0.000
 RMSDP=1.08D-03 MaxDP=2.79D-02 DE=-5.78D-02 OVMax= 4.37D-02

 Cycle   5  Pass 1  IDiag  1:
 E= -706.360829728407     Delta-E=       -0.011246653595 Rises=F Damp=F
 DIIS: error= 4.18D-03 at cycle   5 NSaved=   5.
 NSaved= 5 IEnMin= 5 EnMin= -706.360829728407     IErMin= 5 ErrMin= 4.18D-03
 ErrMax= 4.18D-03  0.00D+00 EMaxC= 1.00D-01 BMatC= 1.50D-03 BMatP= 1.48D-02
 IDIUse=3 WtCom= 9.58D-01 WtEn= 4.18D-02
 Coeff-Com:  0.117D-01-0.547D-02 0.147D+00 0.400D+00 0.447D+00
 Coeff-En:   0.000D+00 0.000D+00 0.000D+00 0.553D-01 0.945D+00
 Coeff:      0.112D-01-0.524D-02 0.141D+00 0.385D+00 0.468D+00
 Gap=     0.135 Goal=   None    Shift=    0.000
 RMSDP=4.08D-04 MaxDP=1.12D-02 DE=-1.12D-02 OVMax= 1.47D-02

 Cycle   6  Pass 1  IDiag  1:
 E= -706.361994765579     Delta-E=       -0.001165037172 Rises=F Damp=F
 DIIS: error= 1.55D-03 at cycle   6 NSaved=   6.
 NSaved= 6 IEnMin= 6 EnMin= -706.361994765579     IErMin= 6 ErrMin= 1.55D-03
 ErrMax= 1.55D-03  0.00D+00 EMaxC= 1.00D-01 BMatC= 2.20D-04 BMatP= 1.50D-03
 IDIUse=3 WtCom= 9.85D-01 WtEn= 1.55D-02
 Coeff-Com:  0.252D-02-0.821D-02 0.559D-01 0.155D+00 0.304D+00 0.491D+00
 Coeff-En:   0.000D+00 0.000D+00 0.000D+00 0.000D+00 0.153D+00 0.847D+00
 Coeff:      0.248D-02-0.808D-02 0.550D-01 0.152D+00 0.302D+00 0.496D+00
 Gap=     0.137 Goal=   None    Shift=    0.000
 RMSDP=1.51D-04 MaxDP=4.99D-03 DE=-1.17D-03 OVMax= 4.62D-03

 Cycle   7  Pass 1  IDiag  1:
 E= -706.362196655692     Delta-E=       -0.000201890114 Rises=F Damp=F
 DIIS: error= 2.40D-04 at cycle   7 NSaved=   7.
 NSaved= 7 IEnMin= 7 EnMin= -706.362196655692     IErMin= 7 ErrMin= 2.40D-04
 ErrMax= 2.40D-04  0.00D+00 EMaxC= 1.00D-01 BMatC= 1.06D-05 BMatP= 2.20D-04
 IDIUse=3 WtCom= 9.98D-01 WtEn= 2.40D-03
 Coeff-Com:  0.886D-03-0.398D-02 0.107D-01 0.224D-01 0.906D-01 0.235D+00
 Coeff-Com:  0.645D+00
 Coeff-En:   0.000D+00 0.000D+00 0.000D+00 0.000D+00 0.000D+00 0.000D+00
 Coeff-En:   0.100D+01
 Coeff:      0.884D-03-0.397D-02 0.107D-01 0.223D-01 0.904D-01 0.234D+00
 Coeff:      0.646D+00
 Gap=     0.137 Goal=   None    Shift=    0.000
 RMSDP=4.59D-05 MaxDP=1.13D-03 DE=-2.02D-04 OVMax= 1.40D-03

 Cycle   8  Pass 1  IDiag  1:
 E= -706.362205811466     Delta-E=       -0.000009155773 Rises=F Damp=F
 DIIS: error= 7.64D-05 at cycle   8 NSaved=   8.
 NSaved= 8 IEnMin= 8 EnMin= -706.362205811466     IErMin= 8 ErrMin= 7.64D-05
 ErrMax= 7.64D-05  0.00D+00 EMaxC= 1.00D-01 BMatC= 1.60D-06 BMatP= 1.06D-05
 IDIUse=1 WtCom= 1.00D+00 WtEn= 0.00D+00
 Coeff-Com:  0.418D-03-0.187D-02 0.223D-02 0.713D-03 0.293D-01 0.994D-01
 Coeff-Com:  0.383D+00 0.486D+00
 Coeff:      0.418D-03-0.187D-02 0.223D-02 0.713D-03 0.293D-01 0.994D-01
 Coeff:      0.383D+00 0.486D+00
 Gap=     0.137 Goal=   None    Shift=    0.000
 RMSDP=1.52D-05 MaxDP=5.74D-04 DE=-9.16D-06 OVMax= 6.48D-04

 Cycle   9  Pass 1  IDiag  1:
 E= -706.362207578591     Delta-E=       -0.000001767125 Rises=F Damp=F
 DIIS: error= 1.89D-05 at cycle   9 NSaved=   9.
 NSaved= 9 IEnMin= 9 EnMin= -706.362207578591     IErMin= 9 ErrMin= 1.89D-05
 ErrMax= 1.89D-05  0.00D+00 EMaxC= 1.00D-01 BMatC= 1.17D-07 BMatP= 1.60D-06
 IDIUse=1 WtCom= 1.00D+00 WtEn= 0.00D+00
 Coeff-Com:  0.142D-03-0.282D-03-0.549D-03-0.350D-02-0.487D-03 0.101D-01
 Coeff-Com:  0.662D-01 0.227D+00 0.701D+00
 Coeff:      0.142D-03-0.282D-03-0.549D-03-0.350D-02-0.487D-03 0.101D-01
 Coeff:      0.662D-01 0.227D+00 0.701D+00
 Gap=     0.137 Goal=   None    Shift=    0.000
 RMSDP=4.57D-06 MaxDP=1.48D-04 DE=-1.77D-06 OVMax= 1.89D-04

 Cycle  10  Pass 1  IDiag  1:
 E= -706.362207719853     Delta-E=       -0.000000141262 Rises=F Damp=F
 DIIS: error= 5.12D-06 at cycle  10 NSaved=  10.
 NSaved=10 IEnMin=10 EnMin= -706.362207719853     IErMin=10 ErrMin= 5.12D-06
 ErrMax= 5.12D-06  0.00D+00 EMaxC= 1.00D-01 BMatC= 7.96D-09 BMatP= 1.17D-07
 IDIUse=1 WtCom= 1.00D+00 WtEn= 0.00D+00
 Coeff-Com:  0.357D-04-0.383D-04-0.342D-03-0.152D-02-0.171D-02-0.627D-03
 Coeff-Com:  0.450D-02 0.767D-01 0.348D+00 0.575D+00
 Coeff:      0.357D-04-0.383D-04-0.342D-03-0.152D-02-0.171D-02-0.627D-03
 Coeff:      0.450D-02 0.767D-01 0.348D+00 0.575D+00
 Gap=     0.137 Goal=   None    Shift=    0.000
 RMSDP=1.23D-06 MaxDP=3.86D-05 DE=-1.41D-07 OVMax= 2.82D-05

 Cycle  11  Pass 1  IDiag  1:
 E= -706.362207729470     Delta-E=       -0.000000009617 Rises=F Damp=F
 DIIS: error= 8.13D-07 at cycle  11 NSaved=  11.
 NSaved=11 IEnMin=11 EnMin= -706.362207729470     IErMin=11 ErrMin= 8.13D-07
 ErrMax= 8.13D-07  0.00D+00 EMaxC= 1.00D-01 BMatC= 2.89D-10 BMatP= 7.96D-09
 IDIUse=1 WtCom= 1.00D+00 WtEn= 0.00D+00
 Coeff-Com: -0.152D-04 0.415D-04-0.641D-04-0.109D-03-0.639D-03-0.165D-02
 Coeff-Com: -0.876D-02-0.612D-02 0.300D-01 0.141D+00 0.846D+00
 Coeff:     -0.152D-04 0.415D-04-0.641D-04-0.109D-03-0.639D-03-0.165D-02
 Coeff:     -0.876D-02-0.612D-02 0.300D-01 0.141D+00 0.846D+00
 Gap=     0.137 Goal=   None    Shift=    0.000
 RMSDP=4.12D-07 MaxDP=8.68D-06 DE=-9.62D-09 OVMax= 2.05D-05

 Cycle  12  Pass 1  IDiag  1:
 E= -706.362207729979     Delta-E=       -0.000000000510 Rises=F Damp=F
 DIIS: error= 2.92D-07 at cycle  12 NSaved=  12.
 NSaved=12 IEnMin=12 EnMin= -706.362207729979     IErMin=12 ErrMin= 2.92D-07
 ErrMax= 2.92D-07  0.00D+00 EMaxC= 1.00D-01 BMatC= 2.26D-11 BMatP= 2.89D-10
 IDIUse=1 WtCom= 1.00D+00 WtEn= 0.00D+00
 Coeff-Com: -0.773D-05 0.137D-04-0.148D-05 0.292D-04-0.417D-04-0.190D-03
 Coeff-Com: -0.187D-02-0.410D-02-0.968D-02-0.130D-01 0.159D+00 0.869D+00
 Coeff:     -0.773D-05 0.137D-04-0.148D-05 0.292D-04-0.417D-04-0.190D-03
 Coeff:     -0.187D-02-0.410D-02-0.968D-02-0.130D-01 0.159D+00 0.869D+00
 Gap=     0.137 Goal=   None    Shift=    0.000
 RMSDP=7.62D-08 MaxDP=1.19D-06 DE=-5.10D-10 OVMax= 2.86D-06

 Cycle  13  Pass 1  IDiag  1:
 E= -706.362207730010     Delta-E=       -0.000000000030 Rises=F Damp=F
 DIIS: error= 6.04D-08 at cycle  13 NSaved=  13.
 NSaved=13 IEnMin=13 EnMin= -706.362207730010     IErMin=13 ErrMin= 6.04D-08
 ErrMax= 6.04D-08  0.00D+00 EMaxC= 1.00D-01 BMatC= 7.80D-13 BMatP= 2.26D-11
 IDIUse=1 WtCom= 1.00D+00 WtEn= 0.00D+00
 Coeff-Com: -0.101D-05 0.647D-06 0.201D-05 0.617D-05 0.266D-04 0.730D-04
 Coeff-Com:  0.160D-03-0.140D-03-0.356D-02-0.127D-01-0.185D-01 0.165D+00
 Coeff-Com:  0.870D+00
 Coeff:     -0.101D-05 0.647D-06 0.201D-05 0.617D-05 0.266D-04 0.730D-04
 Coeff:      0.160D-03-0.140D-03-0.356D-02-0.127D-01-0.185D-01 0.165D+00
 Coeff:      0.870D+00
 Gap=     0.137 Goal=   None    Shift=    0.000
 RMSDP=2.03D-08 MaxDP=3.42D-07 DE=-3.04D-11 OVMax= 4.87D-07

 Cycle  14  Pass 1  IDiag  1:
 E= -706.362207730010     Delta-E=       -0.000000000001 Rises=F Damp=F
 DIIS: error= 1.26D-08 at cycle  14 NSaved=  14.
 NSaved=14 IEnMin=14 EnMin= -706.362207730010     IErMin=14 ErrMin= 1.26D-08
 ErrMax= 1.26D-08  0.00D+00 EMaxC= 1.00D-01 BMatC= 2.80D-14 BMatP= 7.80D-13
 IDIUse=1 WtCom= 1.00D+00 WtEn= 0.00D+00
 Coeff-Com:  0.719D-07-0.323D-06 0.554D-06 0.798D-06 0.607D-05 0.174D-04
 Coeff-Com:  0.713D-04 0.822D-04-0.471D-03-0.232D-02-0.803D-02 0.119D-01
 Coeff-Com:  0.194D+00 0.805D+00
 Coeff:      0.719D-07-0.323D-06 0.554D-06 0.798D-06 0.607D-05 0.174D-04
 Coeff:      0.713D-04 0.822D-04-0.471D-03-0.232D-02-0.803D-02 0.119D-01
 Coeff:      0.194D+00 0.805D+00
 Gap=     0.137 Goal=   None    Shift=    0.000
 RMSDP=2.78D-09 MaxDP=5.14D-08 DE=-6.82D-13 OVMax= 5.46D-08

 Error on total polarization charges =  0.02535
 SCF Done:  E(RB3LYP) =  -706.362207730     A.U. after   14 cycles
            NFock= 14  Conv=0.28D-08     -V/T= 2.0063
 KE= 7.019548013712D+02 PE=-2.115600981039D+03 EE= 4.878356364911D+02
 SMD-CDS (non-electrostatic) energy       (kcal/mol) =       0.76
 (included in total energy above)
 Leave Link  502 at Wed Jan  8 00:52:33 2020, MaxMem=  4294967296 cpu:            1279.1 elap:             321.2
 (Enter /home/cwagen/sw/g16/g16/l601.exe)
 Copying SCF densities to generalized density rwf, IOpCl= 0 IROHF=0.

 **********************************************************************

            Population analysis using the SCF density.

 **********************************************************************

 Orbital symmetries:
       Occupied  (A) (A) (A) (A) (A) (A) (A) (A) (A) (A) (A) (A)
                 (A) (A) (A) (A) (A) (A) (A) (A) (A) (A) (A) (A)
                 (A) (A) (A)
       Virtual   (A) (A) (A) (A) (A) (A) (A) (A) (A) (A) (A) (A)
                 (A) (A) (A) (A) (A) (A) (A) (A) (A) (A) (A) (A)
                 (A) (A) (A) (A) (A) (A) (A) (A) (A) (A) (A) (A)
                 (A) (A) (A) (A) (A) (A) (A) (A) (A) (A) (A) (A)
                 (A) (A) (A) (A) (A) (A) (A) (A) (A) (A) (A) (A)
                 (A) (A) (A) (A) (A) (A) (A) (A) (A) (A) (A) (A)
                 (A) (A) (A) (A) (A) (A) (A) (A) (A) (A) (A) (A)
                 (A) (A) (A) (A) (A) (A) (A) (A) (A) (A) (A) (A)
                 (A)
 The electronic state is 1-A.
 Alpha  occ. eigenvalues -- -101.51264 -19.19865 -14.27081 -10.36126 -10.20992
 Alpha  occ. eigenvalues --  -10.14139  -9.42589  -7.18874  -7.18118  -7.18079
 Alpha  occ. eigenvalues --   -1.03818  -0.83199  -0.77150  -0.73536  -0.55051
 Alpha  occ. eigenvalues --   -0.44780  -0.44072  -0.43933  -0.37836  -0.36893
 Alpha  occ. eigenvalues --   -0.35576  -0.28977  -0.28725  -0.28115  -0.27878
 Alpha  occ. eigenvalues --   -0.27842  -0.24677
 Alpha virt. eigenvalues --   -0.11011  -0.03088   0.03114   0.04630   0.05177
 Alpha virt. eigenvalues --    0.05536   0.07417   0.08306   0.08572   0.09425
 Alpha virt. eigenvalues --    0.10360   0.11039   0.11358   0.12219   0.13093
 Alpha virt. eigenvalues --    0.14076   0.15193   0.15997   0.17142   0.20211
 Alpha virt. eigenvalues --    0.21436   0.23137   0.24227   0.24723   0.25325
 Alpha virt. eigenvalues --    0.26139   0.26715   0.28180   0.30814   0.32552
 Alpha virt. eigenvalues --    0.33636   0.37488   0.40035   0.54015   0.59064
 Alpha virt. eigenvalues --    0.63062   0.65360   0.65701   0.67056   0.68785
 Alpha virt. eigenvalues --    0.70758   0.72730   0.75097   0.76842   0.78372
 Alpha virt. eigenvalues --    0.81680   0.86472   0.90019   0.91678   0.92013
 Alpha virt. eigenvalues --    0.94715   0.97101   0.98004   1.00703   1.01882
 Alpha virt. eigenvalues --    1.03391   1.08229   1.14432   1.15866   1.20818
 Alpha virt. eigenvalues --    1.26570   1.27816   1.29377   1.32645   1.45820
 Alpha virt. eigenvalues --    1.48993   1.54408   1.59813   1.59997   1.60123
 Alpha virt. eigenvalues --    1.63242   1.65466   1.67211   1.74896   1.80633
 Alpha virt. eigenvalues --    1.87118   1.95432   2.02862   2.02918   2.10767
 Alpha virt. eigenvalues --    2.18221   2.23293   2.26813   2.47203   2.49300
 Alpha virt. eigenvalues --    2.52374   2.66693   2.66806   2.70368   2.93257
 Alpha virt. eigenvalues --    3.08518   4.00076   4.14080   4.19701   4.28357
 Alpha virt. eigenvalues --    4.34189   4.41719
          Condensed to atoms (all electrons):
               1          2          3          4          5          6
     1  C    5.351902   0.472772  -0.117139  -0.060879   0.001622  -0.055296
     2  O    0.472772   7.988195  -0.102794   0.007910  -0.010990  -0.002904
     3  C   -0.117139  -0.102794   5.855824   0.380650   0.348226   0.389730
     4  H   -0.060879   0.007910   0.380650   0.449950  -0.025004  -0.021737
     5  H    0.001622  -0.010990   0.348226  -0.025004   0.437249  -0.022279
     6  H   -0.055296  -0.002904   0.389730  -0.021737  -0.022279   0.436450
     7  Cl  -0.088684  -0.050929   0.056673   0.007438  -0.008276   0.005055
     8  C    0.279259  -0.045371  -0.186910   0.000976   0.002320  -0.002190
     9  N   -0.008327   0.000053   0.001616  -0.000083  -0.000013   0.000049
               7          8          9
     1  C   -0.088684   0.279259  -0.008327
     2  O   -0.050929  -0.045371   0.000053
     3  C    0.056673  -0.186910   0.001616
     4  H    0.007438   0.000976  -0.000083
     5  H   -0.008276   0.002320  -0.000013
     6  H    0.005055  -0.002190   0.000049
     7  Cl  17.419530  -0.040457  -0.001190
     8  C   -0.040457   5.573573   0.645808
     9  N   -0.001190   0.645808   6.989915
 Mulliken charges:
               1
     1  C    0.224770
     2  O   -0.255942
     3  C   -0.625875
     4  H    0.260780
     5  H    0.277145
     6  H    0.273121
     7  Cl  -0.299161
     8  C   -0.227009
     9  N   -0.627828
 Sum of Mulliken charges =  -1.00000
 Mulliken charges with hydrogens summed into heavy atoms:
               1
     1  C    0.224770
     2  O   -0.255942
     3  C    0.185170
     7  Cl  -0.299161
     8  C   -0.227009
     9  N   -0.627828
 Electronic spatial extent (au):  <R**2>=           1078.0246
 Charge=             -1.0000 electrons
 Dipole moment (field-independent basis, Debye):
    X=             -9.8219    Y=              5.3891    Z=             -2.7348  Tot=             11.5322
 Quadrupole moment (field-independent basis, Debye-Ang):
   XX=            -90.4746   YY=            -47.2333   ZZ=            -47.8295
   XY=              3.3416   XZ=              2.0633   YZ=             -4.7344
 Traceless Quadrupole moment (field-independent basis, Debye-Ang):
   XX=            -28.6288   YY=             14.6125   ZZ=             14.0163
   XY=              3.3416   XZ=              2.0633   YZ=             -4.7344
 Octapole moment (field-independent basis, Debye-Ang**2):
  XXX=           -166.7591  YYY=             17.4282  ZZZ=             -4.4705  XYY=            -12.9498
  XXY=             34.4178  XXZ=              1.2018  XZZ=             -8.2660  YZZ=              1.8042
  YYZ=             -5.5957  XYZ=              2.0832
 Hexadecapole moment (field-independent basis, Debye-Ang**3):
 XXXX=          -1580.4529 YYYY=           -356.0774 ZZZZ=           -179.8183 XXXY=             95.6490
 XXXZ=              6.2392 YYYX=             13.5173 YYYZ=             -8.1278 ZZZX=              3.5412
 ZZZY=             -5.0303 XXYY=           -250.2704 XXZZ=           -207.6006 YYZZ=            -93.1986
 XXYZ=             -1.9964 YYXZ=              3.9461 ZZXY=              3.7085
 N-N= 2.194483354465D+02 E-N=-2.115600981237D+03  KE= 7.019548013712D+02
 No NMR shielding tensors so no spin-rotation constants.
 Leave Link  601 at Wed Jan  8 00:52:40 2020, MaxMem=  4294967296 cpu:              26.7 elap:               6.8
 (Enter /home/cwagen/sw/g16/g16/l701.exe)
 ... and contract with generalized density number  0.
 Compute integral first derivatives.
 D1PCM: PCM CHGder 1st derivatives, ID1Alg=3 FixD1E=F DoIter=F DoCFld=F I1PDM=0.
 GePol: Maximum number of non-zero 1st derivatives   =     387
 Leave Link  701 at Wed Jan  8 00:53:06 2020, MaxMem=  4294967296 cpu:             105.2 elap:              26.3
 (Enter /home/cwagen/sw/g16/g16/l702.exe)
 L702 exits ... SP integral derivatives will be done elsewhere.
 Leave Link  702 at Wed Jan  8 00:53:07 2020, MaxMem=  4294967296 cpu:               2.0 elap:               0.7
 (Enter /home/cwagen/sw/g16/g16/l703.exe)
 Integral derivatives from FoFJK, PRISM(SPDF).
 Compute integral first derivatives, UseDBF=F ICtDFT=           0.
 Calling FoFJK, ICntrl=      2127 FMM=F ISym2X=0 I1Cent= 0 IOpClX= 0 NMat=1 NMatS=1 NMatT=0.
 FoFJK:  IHMeth= 1 ICntrl=    2127 DoSepK=F KAlg= 0 I1Cent=           0 FoldK=F
 IRaf=         0 NMat=       1 IRICut=       1 DoRegI=T DoRafI=F ISym2E= 0 IDoP0=0 IntGTp=1.
 FoFCou: FMM=F IPFlag=           0 FMFlag=      100000 FMFlg1=         800
         NFxFlg=           0 DoJE=F BraDBF=F KetDBF=F FulRan=T
         wScrn=  0.000000 ICntrl=      2127 IOpCl=  0 I1Cent=           0 NGrid=           0
         NMat0=    1 NMatS0=      1 NMatT0=    0 NMatD0=    1 NMtDS0=    0 NMtDT0=    0
 Symmetry not used in FoFCou.
 Leave Link  703 at Wed Jan  8 00:53:20 2020, MaxMem=  4294967296 cpu:              54.2 elap:              13.6
 (Enter /home/cwagen/sw/g16/g16/l716.exe)
 Dipole        =-3.86423569D+00 2.12021778D+00-1.07594465D+00
 ***** Axes restored to original set *****
 -------------------------------------------------------------------
 Center     Atomic                   Forces (Hartrees/Bohr)
 Number     Number              X              Y              Z
 -------------------------------------------------------------------
      1        6          -0.052311948   -0.076332828   -0.123611564
      2        8           0.019755047    0.067247140    0.129480947
      3        6           0.013395046    0.023313209    0.013346541
      4        1          -0.000156473    0.001050348   -0.004302357
      5        1           0.000336441    0.005891285   -0.003466379
      6        1           0.001340031    0.003804901   -0.002690365
      7       17           0.026434549   -0.022351287   -0.007743725
      8        6          -0.027933849   -0.007432419   -0.001684690
      9        7           0.019141156    0.004809651    0.000671591
 -------------------------------------------------------------------
 Cartesian Forces:  Max     0.129480947 RMS     0.042600009
 Leave Link  716 at Wed Jan  8 00:53:22 2020, MaxMem=  4294967296 cpu:               1.9 elap:               1.2
 (Enter /home/cwagen/sw/g16/g16/l103.exe)

 GradGradGradGradGradGradGradGradGradGradGradGradGradGradGradGradGradGrad
 Berny optimization.
 FormGI is forming the generalized inverse of G from B-inverse, IUseBI=4.
 Internal  Forces:  Max     0.144150933 RMS     0.029686342
 Search for a local minimum.
 Step number   1 out of a maximum of   41
 All quantities printed in internal units (Hartrees-Bohrs-Radians)
 RMS Force = .29959D-01 SwitMx=.10000D-02 MixMth= 1
 Mixed Optimization -- RFO/linear search
 Second derivative matrix not updated -- first step.
 ITU=  0
     Eigenvalues ---    0.00230   0.04746   0.04746   0.05330   0.05908
     Eigenvalues ---    0.07453   0.10176   0.16000   0.16000   0.16000
     Eigenvalues ---    0.25000   0.25000   0.25000   0.26946   0.33918
     Eigenvalues ---    0.33999   0.34275   0.67840   1.220341000.00000
     Eigenvalues --- 1000.000001000.000001000.000001000.000001000.00000
     Eigenvalues --- 1000.000001000.000001000.000001000.000001000.00000
     Eigenvalues --- 1000.00000
 RFO step:  Lambda=-4.87786567D-02 EMin= 2.30000000D-03
 Linear search not attempted -- first point.
 Maximum step size (   0.300) exceeded in Quadratic search.
    -- Step size scaled by   0.942
 Iteration  1 RMS(Cart)=  0.07231142 RMS(Int)=  0.00748799
 Iteration  2 RMS(Cart)=  0.00816441 RMS(Int)=  0.00280585
 Iteration  3 RMS(Cart)=  0.00007262 RMS(Int)=  0.00280520
 Iteration  4 RMS(Cart)=  0.00000076 RMS(Int)=  0.00280520
 Iteration  1 RMS(Cart)=  0.00000000 RMS(Int)=  0.00000000
 ITry= 1 IFail=0 DXMaxC= 1.60D-01 DCOld= 1.00D+10 DXMaxT= 3.00D-01 DXLimC= 3.00D+00 Rises=F
 Variable       Old X    -DE/DX   Delta X   Delta X   Delta X     New X
                                 (Linear)    (Quad)   (Total)
    R1        2.45227  -0.14415   0.00000  -0.18679  -0.18679   2.26548
    R2        2.94503  -0.02487   0.00000  -0.07363  -0.07363   2.87140
    R3        4.15740  -0.03475   0.00000   0.00000   0.00000   4.15740
    R4        5.48021  -0.00916   0.00000   0.00000   0.00000   5.48021
    R5        2.07331  -0.00381   0.00000  -0.00923  -0.00923   2.06408
    R6        2.07468  -0.00222   0.00000  -0.00538  -0.00538   2.06930
    R7        2.06868  -0.00123   0.00000  -0.00297  -0.00297   2.06571
    R8        2.20923   0.01976   0.00000   0.01467   0.01467   2.22390
    A1        1.99667   0.05178   0.00000   0.18111   0.17565   2.17232
    A2        2.01908  -0.01892   0.00000  -0.02311  -0.03244   1.98663
    A3        1.89239  -0.01585   0.00000  -0.06459  -0.06009   1.83230
    A4        1.92419  -0.00247   0.00000   0.00324  -0.00468   1.91951
    A5        1.77194  -0.01311   0.00000  -0.06629  -0.06396   1.70799
    A6        1.83479  -0.00673   0.00000  -0.06274  -0.06403   1.77075
    A7        1.97398  -0.00077   0.00000  -0.00363  -0.00374   1.97024
    A8        1.87942  -0.00804   0.00000  -0.03698  -0.03728   1.84214
    A9        1.90140  -0.00485   0.00000  -0.02104  -0.02126   1.88014
   A10        1.90356   0.00433   0.00000   0.01793   0.01774   1.92130
   A11        1.90837   0.00346   0.00000   0.01682   0.01678   1.92516
   A12        1.89554   0.00607   0.00000   0.02775   0.02727   1.92282
   A13        3.09039  -0.00005   0.00000  -0.00049  -0.00049   3.08990
   A14        2.85372   0.00026   0.00000   0.00255   0.00255   2.85627
    D1        3.04510  -0.00684   0.00000  -0.05544  -0.05831   2.98679
    D2       -1.13357  -0.00740   0.00000  -0.06052  -0.06344  -1.19702
    D3        0.91915  -0.00727   0.00000  -0.05943  -0.06214   0.85701
    D4       -0.92685   0.01112   0.00000   0.08022   0.08146  -0.84539
    D5        1.17766   0.01056   0.00000   0.07513   0.07633   1.25399
    D6       -3.05280   0.01069   0.00000   0.07623   0.07764  -2.97517
    D7        1.01121  -0.00355   0.00000  -0.02061  -0.01910   0.99211
    D8        3.11572  -0.00411   0.00000  -0.02570  -0.02424   3.09149
    D9       -1.11475  -0.00398   0.00000  -0.02460  -0.02293  -1.13767
         Item               Value     Threshold  Converged?
 Maximum Force            0.144151     0.000450     NO 
 RMS     Force            0.029959     0.000300     NO 
 Maximum Displacement     0.159880     0.001800     NO 
 RMS     Displacement     0.071132     0.001200     NO 
 Predicted change in Energy=-2.739175D-02
 Lowest energy point so far.  Saving SCF results.
 GradGradGradGradGradGradGradGradGradGradGradGradGradGradGradGradGradGrad

 Leave Link  103 at Wed Jan  8 00:54:18 2020, MaxMem=  4294967296 cpu:             222.2 elap:              56.0
 (Enter /home/cwagen/sw/g16/g16/l202.exe)
                          Input orientation:                          
 ---------------------------------------------------------------------
 Center     Atomic      Atomic             Coordinates (Angstroms)
 Number     Number       Type             X           Y           Z
 ---------------------------------------------------------------------
      1          6           0       -0.241662   -0.368606   -0.252278
      2          8           0       -0.242172   -0.580651   -1.432219
      3          6           0       -0.310783   -1.447637    0.815305
      4          1           0       -0.143633   -1.059867    1.822648
      5          1           0       -1.316969   -1.872761    0.738206
      6          1           0        0.438291   -2.205498    0.571464
      7         17           0       -1.471880    1.355998    0.341271
      8          6           0        2.428356    0.599293    0.334386
      9          7           0        3.567794    0.889160    0.385453
 ---------------------------------------------------------------------
                    Distance matrix (angstroms):
                    1          2          3          4          5
     1  C    0.000000
     2  O    1.198843   0.000000
     3  C    1.519479   2.409924   0.000000
     4  H    2.189240   3.291431   1.092266   0.000000
     5  H    2.097576   2.745083   1.095028   1.792632   0.000000
     6  H    2.124867   2.667940   1.093126   1.793480   1.794285
     7  Cl   2.200000   2.899666   3.071356   3.129716   3.256753
     8  C    2.900000   3.412460   3.453127   3.403361   4.505728
     9  N    4.062097   4.469913   4.548489   4.431583   5.622593
                    6          7          8          9
     6  H    0.000000
     7  Cl   4.047963   0.000000
     8  C    3.447233   3.972971   0.000000
     9  N    4.405144   5.061444   1.176839   0.000000
 Stoichiometry    C3H3ClNO(1-)
 Framework group  C1[X(C3H3ClNO)]
 Deg. of freedom    21
 Full point group                 C1      NOp   1
 RotChk:  IX=0 Diff= 2.72D-02
 Largest Abelian subgroup         C1      NOp   1
 Largest concise Abelian subgroup C1      NOp   1
                         Standard orientation:                         
 ---------------------------------------------------------------------
 Center     Atomic      Atomic             Coordinates (Angstroms)
 Number     Number       Type             X           Y           Z
 ---------------------------------------------------------------------
      1          6           0       -0.420206    0.640122    0.239641
      2          8           0       -0.474064    1.038981    1.368904
      3          6           0       -0.458032    1.531948   -0.990006
      4          1           0       -0.242734    0.990777   -1.914033
      5          1           0       -1.472206    1.943594   -1.022929
      6          1           0        0.269689    2.334070   -0.841860
      7         17           0       -1.600655   -1.181865   -0.116591
      8          6           0        2.285214   -0.355527   -0.075608
      9          7           0        3.429578   -0.626834   -0.033505
 ---------------------------------------------------------------------
 Rotational constants (GHZ):           3.0754171           1.3463984           1.1377689
 Leave Link  202 at Wed Jan  8 00:54:19 2020, MaxMem=  4294967296 cpu:               3.5 elap:               1.5
 (Enter /home/cwagen/sw/g16/g16/l301.exe)
 Standard basis: 6-31+G(d) (6D, 7F)
 Ernie: Thresh=  0.10000D-02 Tol=  0.10000D-05 Strict=F.
 There are   124 symmetry adapted cartesian basis functions of A   symmetry.
 There are   124 symmetry adapted basis functions of A   symmetry.
   124 basis functions,   228 primitive gaussians,   124 cartesian basis functions
    27 alpha electrons       27 beta electrons
       nuclear repulsion energy       223.8455713751 Hartrees.
 IExCor=  402 DFT=T Ex+Corr=B3LYP ExCW=0 ScaHFX=  0.200000
 ScaDFX=  0.800000  0.720000  1.000000  0.810000 ScalE2=  1.000000  1.000000
 IRadAn=      5 IRanWt=     -1 IRanGd=            0 ICorTp=0 IEmpDi=  4
 NAtoms=    9 NActive=    9 NUniq=    9 SFac= 1.00D+00 NAtFMM=   60 NAOKFM=F Big=F
 Integral buffers will be    131072 words long.
 Raffenetti 2 integral format.
 Two-electron integral symmetry is turned on.
 ------------------------------------------------------------------------------
 Polarizable Continuum Model (PCM)
 =================================
 Model                : PCM.
 Atomic radii         : SMD-Coulomb.
 Polarization charges : Total charges.
 Charge compensation  : None.
 Solution method      : On-the-fly selection.
 Cavity type          : VdW (van der Waals Surface) (Alpha=1.000).
 Cavity algorithm     : GePol (No added spheres)
                        Default sphere list used, NSphG=    9.
                        Lebedev-Laikov grids with approx.  5.0 points / Ang**2.
                        Smoothing algorithm: York/Karplus (Gamma=1.0000).
                        Polarization charges: spherical gaussians, with
                                              point-specific exponents (IZeta= 3).
                        Self-potential: point-specific (ISelfS= 7).
                        Self-field    : sphere-specific E.n sum rule (ISelfD= 2).
 1st derivatives      : Analytical E(r).r(x)/FMM algorithm (CHGder, D1EAlg=3).
                        Cavity 1st derivative terms included.
 Solvent              : TetraHydroFuran, Eps=   7.425700 Eps(inf)=   1.974025
 ------------------------------------------------------------------------------
 Spheres list:
 ISph  on   Nord     Re0    Alpha      Xe            Ye            Ze
    1   C      1    1.8500  1.000     -0.420206      0.640122      0.239641
    2   O      2    2.2940  1.000     -0.474064      1.038981      1.368904
    3   C      3    1.8500  1.000     -0.458032      1.531948     -0.990006
    4   H      4    1.2000  1.000     -0.242734      0.990777     -1.914033
    5   H      5    1.2000  1.000     -1.472206      1.943594     -1.022929
    6   H      6    1.2000  1.000      0.269689      2.334070     -0.841860
    7  Cl      7    2.3800  1.000     -1.600655     -1.181865     -0.116591
    8   C      8    1.8500  1.000      2.285214     -0.355527     -0.075608
    9   N      9    1.8900  1.000      3.429578     -0.626834     -0.033505
 ------------------------------------------------------------------------------
 GePol: Number of generator spheres                  =       9
 GePol: Total number of spheres                      =       9
 GePol: Number of exposed spheres                    =       9 (100.00%)
 GePol: Number of points                             =    1287
 GePol: Average weight of points                     =       0.14
 GePol: Minimum weight of points                     =   0.68D-09
 GePol: Maximum weight of points                     =    0.18138
 GePol: Number of points with low weight             =      36
 GePol: Fraction of low-weight points (<1% of avg)   =       2.80%
 GePol: Cavity surface area                          =    175.171 Ang**2
 GePol: Cavity volume                                =    154.744 Ang**3
 ------------------------------------------------------------------------------
 Atomic radii for non-electrostatic terms: SMD-CDS.
 ------------------------------------------------------------------------------
 PCM non-electrostatic energy =         0.0010262847 Hartrees.
 Nuclear repulsion after PCM non-electrostatic terms =      223.8465976598 Hartrees.
 Leave Link  301 at Wed Jan  8 00:54:21 2020, MaxMem=  4294967296 cpu:               3.0 elap:               0.9
 (Enter /home/cwagen/sw/g16/g16/l302.exe)
 NPDir=0 NMtPBC=     1 NCelOv=     1 NCel=       1 NClECP=     1 NCelD=      1
         NCelK=      1 NCelE2=     1 NClLst=     1 CellRange=     0.0.
 One-electron integrals computed using PRISM.
 One-electron integral symmetry used in STVInt
 NBasis=   124 RedAO= T EigKep=  1.37D-04  NBF=   124
 NBsUse=   124 1.00D-06 EigRej= -1.00D+00 NBFU=   124
 Precomputing XC quadrature grid using
 IXCGrd= 4 IRadAn=           5 IRanWt=          -1 IRanGd=           0 AccXCQ= 0.00D+00.
 Generated NRdTot=       0 NPtTot=           0 NUsed=           0 NTot=          32
 NSgBfM=   124   124   124   124   124 MxSgAt=     9 MxSgA2=     9.
 Leave Link  302 at Wed Jan  8 00:54:35 2020, MaxMem=  4294967296 cpu:              57.1 elap:              14.3
 (Enter /home/cwagen/sw/g16/g16/l303.exe)
 DipDrv:  MaxL=1.
 Leave Link  303 at Wed Jan  8 00:54:37 2020, MaxMem=  4294967296 cpu:               7.1 elap:               1.8
 (Enter /home/cwagen/sw/g16/g16/l401.exe)
 Initial guess from the checkpoint file:  "/scratch/users/cwagen/cwagen_scan_220_290/Gau-14943.chk"
 B after Tr=     0.000000    0.000000    0.000000
         Rot=    0.999920   -0.012216    0.002187    0.002242 Ang=  -1.45 deg.
 Guess basis will be translated and rotated to current coordinates.
 JPrj=2 DoOrth=T DoCkMO=T.
 Generating alternative initial guess.
 ExpMin= 4.38D-02 ExpMax= 2.52D+04 ExpMxC= 3.78D+03 IAcc=2 IRadAn=         4 AccDes= 0.00D+00
 Harris functional with IExCor=  402 and IRadAn=       4 diagonalized for initial guess.
 HarFok:  IExCor=  402 AccDes= 0.00D+00 IRadAn=         4 IDoV= 1 UseB2=F ITyADJ=14
 ICtDFT=  3500011 ScaDFX=  1.000000  1.000000  1.000000  1.000000
 FoFCou: FMM=F IPFlag=           0 FMFlag=      100000 FMFlg1=           0
         NFxFlg=           0 DoJE=T BraDBF=F KetDBF=T FulRan=T
         wScrn=  0.000000 ICntrl=       500 IOpCl=  0 I1Cent=   200000004 NGrid=           0
         NMat0=    1 NMatS0=      1 NMatT0=    0 NMatD0=    1 NMtDS0=    0 NMtDT0=    0
 Petite list used in FoFCou.
 Harris En= -706.395228952021    
 Leave Link  401 at Wed Jan  8 00:54:59 2020, MaxMem=  4294967296 cpu:              88.2 elap:              22.1
 (Enter /home/cwagen/sw/g16/g16/l502.exe)
 Keep R1 ints in memory in canonical form, NReq=45236517.
 FoFCou: FMM=F IPFlag=           0 FMFlag=           0 FMFlg1=           0
         NFxFlg=           0 DoJE=F BraDBF=F KetDBF=F FulRan=T
         wScrn=  0.000000 ICntrl=       600 IOpCl=  0 I1Cent=           0 NGrid=           0
         NMat0=    1 NMatS0=   7750 NMatT0=    0 NMatD0=    1 NMtDS0=    0 NMtDT0=    0
 Symmetry not used in FoFCou.
 Two-electron integral symmetry not used.
 Closed shell SCF:
 Using DIIS extrapolation, IDIIS=  1040.
 NGot=  4294967296 LenX=  4264898079 LenY=  4264882262
 Requested convergence on RMS density matrix=1.00D-08 within 128 cycles.
 Requested convergence on MAX density matrix=1.00D-06.
 Requested convergence on             energy=1.00D-06.
 No special actions if energy rises.

 Cycle   1  Pass 1  IDiag  1:
 Inv3:  Mode=1 IEnd=     4969107.
 Iteration    1 A*A^-1 deviation from unit magnitude is 4.00D-15 for   1269.
 Iteration    1 A*A^-1 deviation from orthogonality  is 2.33D-15 for   1283   1048.
 Iteration    1 A^-1*A deviation from unit magnitude is 4.00D-15 for   1269.
 Iteration    1 A^-1*A deviation from orthogonality  is 2.13D-15 for   1285   1120.
 E= -706.378755350507    
 DIIS: error= 8.39D-03 at cycle   1 NSaved=   1.
 NSaved= 1 IEnMin= 1 EnMin= -706.378755350507     IErMin= 1 ErrMin= 8.39D-03
 ErrMax= 8.39D-03  0.00D+00 EMaxC= 1.00D-01 BMatC= 1.11D-02 BMatP= 1.11D-02
 IDIUse=3 WtCom= 9.16D-01 WtEn= 8.39D-02
 Coeff-Com:  0.100D+01
 Coeff-En:   0.100D+01
 Coeff:      0.100D+01
 Gap=     0.581 Goal=   None    Shift=    0.000
 GapD=    0.581 DampG=2.000 DampE=1.000 DampFc=2.0000 IDamp=-1.
 RMSDP=2.94D-03 MaxDP=1.48D-01              OVMax= 3.90D-02

 Cycle   2  Pass 1  IDiag  1:
 E= -706.395632144707     Delta-E=       -0.016876794200 Rises=F Damp=F
 DIIS: error= 1.86D-03 at cycle   2 NSaved=   2.
 NSaved= 2 IEnMin= 2 EnMin= -706.395632144707     IErMin= 2 ErrMin= 1.86D-03
 ErrMax= 1.86D-03  0.00D+00 EMaxC= 1.00D-01 BMatC= 1.01D-03 BMatP= 1.11D-02
 IDIUse=3 WtCom= 9.81D-01 WtEn= 1.86D-02
 Coeff-Com:  0.117D+00 0.883D+00
 Coeff-En:   0.000D+00 0.100D+01
 Coeff:      0.114D+00 0.886D+00
 Gap=     0.171 Goal=   None    Shift=    0.000
 RMSDP=6.62D-04 MaxDP=1.92D-02 DE=-1.69D-02 OVMax= 2.42D-02

 Cycle   3  Pass 1  IDiag  1:
 E= -706.394944934029     Delta-E=        0.000687210678 Rises=F Damp=F
 DIIS: error= 3.38D-03 at cycle   3 NSaved=   3.
 NSaved= 3 IEnMin= 2 EnMin= -706.395632144707     IErMin= 2 ErrMin= 1.86D-03
 ErrMax= 3.38D-03  0.00D+00 EMaxC= 1.00D-01 BMatC= 1.78D-03 BMatP= 1.01D-03
 IDIUse=3 WtCom= 1.47D-01 WtEn= 8.53D-01
 Coeff-Com: -0.146D-01 0.580D+00 0.435D+00
 Coeff-En:   0.000D+00 0.616D+00 0.384D+00
 Coeff:     -0.215D-02 0.611D+00 0.391D+00
 Gap=     0.164 Goal=   None    Shift=    0.000
 RMSDP=4.07D-04 MaxDP=1.06D-02 DE= 6.87D-04 OVMax= 1.88D-02

 Cycle   4  Pass 1  IDiag  1:
 E= -706.396529214125     Delta-E=       -0.001584280096 Rises=F Damp=F
 DIIS: error= 7.55D-04 at cycle   4 NSaved=   4.
 NSaved= 4 IEnMin= 4 EnMin= -706.396529214125     IErMin= 4 ErrMin= 7.55D-04
 ErrMax= 7.55D-04  0.00D+00 EMaxC= 1.00D-01 BMatC= 1.21D-04 BMatP= 1.01D-03
 IDIUse=3 WtCom= 9.92D-01 WtEn= 7.55D-03
 Coeff-Com: -0.224D-01 0.272D+00 0.256D+00 0.494D+00
 Coeff-En:   0.000D+00 0.000D+00 0.000D+00 0.100D+01
 Coeff:     -0.222D-01 0.270D+00 0.254D+00 0.498D+00
 Gap=     0.161 Goal=   None    Shift=    0.000
 RMSDP=1.26D-04 MaxDP=3.34D-03 DE=-1.58D-03 OVMax= 3.23D-03

 Cycle   5  Pass 1  IDiag  1:
 E= -706.396621079145     Delta-E=       -0.000091865020 Rises=F Damp=F
 DIIS: error= 1.86D-04 at cycle   5 NSaved=   5.
 NSaved= 5 IEnMin= 5 EnMin= -706.396621079145     IErMin= 5 ErrMin= 1.86D-04
 ErrMax= 1.86D-04  0.00D+00 EMaxC= 1.00D-01 BMatC= 1.54D-05 BMatP= 1.21D-04
 IDIUse=3 WtCom= 9.98D-01 WtEn= 1.86D-03
 Coeff-Com: -0.854D-02 0.890D-01 0.107D+00 0.292D+00 0.521D+00
 Coeff-En:   0.000D+00 0.000D+00 0.000D+00 0.829D-01 0.917D+00
 Coeff:     -0.852D-02 0.889D-01 0.107D+00 0.291D+00 0.522D+00
 Gap=     0.162 Goal=   None    Shift=    0.000
 RMSDP=5.20D-05 MaxDP=1.30D-03 DE=-9.19D-05 OVMax= 1.94D-03

 Cycle   6  Pass 1  IDiag  1:
 E= -706.396637775057     Delta-E=       -0.000016695912 Rises=F Damp=F
 DIIS: error= 7.73D-05 at cycle   6 NSaved=   6.
 NSaved= 6 IEnMin= 6 EnMin= -706.396637775057     IErMin= 6 ErrMin= 7.73D-05
 ErrMax= 7.73D-05  0.00D+00 EMaxC= 1.00D-01 BMatC= 1.15D-06 BMatP= 1.54D-05
 IDIUse=1 WtCom= 1.00D+00 WtEn= 0.00D+00
 Coeff-Com: -0.206D-02 0.139D-01 0.262D-01 0.956D-01 0.272D+00 0.594D+00
 Coeff:     -0.206D-02 0.139D-01 0.262D-01 0.956D-01 0.272D+00 0.594D+00
 Gap=     0.162 Goal=   None    Shift=    0.000
 RMSDP=1.57D-05 MaxDP=5.45D-04 DE=-1.67D-05 OVMax= 4.94D-04

 Cycle   7  Pass 1  IDiag  1:
 E= -706.396639048902     Delta-E=       -0.000001273845 Rises=F Damp=F
 DIIS: error= 1.58D-05 at cycle   7 NSaved=   7.
 NSaved= 7 IEnMin= 7 EnMin= -706.396639048902     IErMin= 7 ErrMin= 1.58D-05
 ErrMax= 1.58D-05  0.00D+00 EMaxC= 1.00D-01 BMatC= 6.05D-08 BMatP= 1.15D-06
 IDIUse=1 WtCom= 1.00D+00 WtEn= 0.00D+00
 Coeff-Com: -0.915D-04-0.263D-02 0.449D-03 0.137D-01 0.723D-01 0.246D+00
 Coeff-Com:  0.670D+00
 Coeff:     -0.915D-04-0.263D-02 0.449D-03 0.137D-01 0.723D-01 0.246D+00
 Coeff:      0.670D+00
 Gap=     0.162 Goal=   None    Shift=    0.000
 RMSDP=4.10D-06 MaxDP=1.41D-04 DE=-1.27D-06 OVMax= 8.91D-05

 Cycle   8  Pass 1  IDiag  1:
 E= -706.396639108235     Delta-E=       -0.000000059333 Rises=F Damp=F
 DIIS: error= 9.08D-06 at cycle   8 NSaved=   8.
 NSaved= 8 IEnMin= 8 EnMin= -706.396639108235     IErMin= 8 ErrMin= 9.08D-06
 ErrMax= 9.08D-06  0.00D+00 EMaxC= 1.00D-01 BMatC= 1.17D-08 BMatP= 6.05D-08
 IDIUse=1 WtCom= 1.00D+00 WtEn= 0.00D+00
 Coeff-Com:  0.134D-03-0.283D-02-0.243D-02-0.357D-03 0.202D-01 0.880D-01
 Coeff-Com:  0.361D+00 0.536D+00
 Coeff:      0.134D-03-0.283D-02-0.243D-02-0.357D-03 0.202D-01 0.880D-01
 Coeff:      0.361D+00 0.536D+00
 Gap=     0.162 Goal=   None    Shift=    0.000
 RMSDP=1.05D-06 MaxDP=3.11D-05 DE=-5.93D-08 OVMax= 4.73D-05

 Cycle   9  Pass 1  IDiag  1:
 E= -706.396639115865     Delta-E=       -0.000000007630 Rises=F Damp=F
 DIIS: error= 5.40D-06 at cycle   9 NSaved=   9.
 NSaved= 9 IEnMin= 9 EnMin= -706.396639115865     IErMin= 9 ErrMin= 5.40D-06
 ErrMax= 5.40D-06  0.00D+00 EMaxC= 1.00D-01 BMatC= 3.75D-09 BMatP= 1.17D-08
 IDIUse=1 WtCom= 1.00D+00 WtEn= 0.00D+00
 Coeff-Com:  0.891D-04-0.129D-02-0.175D-02-0.223D-02 0.248D-02 0.183D-01
 Coeff-Com:  0.128D+00 0.383D+00 0.473D+00
 Coeff:      0.891D-04-0.129D-02-0.175D-02-0.223D-02 0.248D-02 0.183D-01
 Coeff:      0.128D+00 0.383D+00 0.473D+00
 Gap=     0.162 Goal=   None    Shift=    0.000
 RMSDP=8.58D-07 MaxDP=4.08D-05 DE=-7.63D-09 OVMax= 1.97D-05

 Cycle  10  Pass 1  IDiag  1:
 E= -706.396639119397     Delta-E=       -0.000000003533 Rises=F Damp=F
 DIIS: error= 9.44D-07 at cycle  10 NSaved=  10.
 NSaved=10 IEnMin=10 EnMin= -706.396639119397     IErMin=10 ErrMin= 9.44D-07
 ErrMax= 9.44D-07  0.00D+00 EMaxC= 1.00D-01 BMatC= 1.50D-10 BMatP= 3.75D-09
 IDIUse=1 WtCom= 1.00D+00 WtEn= 0.00D+00
 Coeff-Com:  0.274D-04-0.220D-03-0.576D-03-0.105D-02-0.176D-02-0.466D-02
 Coeff-Com:  0.392D-02 0.952D-01 0.212D+00 0.698D+00
 Coeff:      0.274D-04-0.220D-03-0.576D-03-0.105D-02-0.176D-02-0.466D-02
 Coeff:      0.392D-02 0.952D-01 0.212D+00 0.698D+00
 Gap=     0.162 Goal=   None    Shift=    0.000
 RMSDP=1.74D-07 MaxDP=5.90D-06 DE=-3.53D-09 OVMax= 4.45D-06

 Cycle  11  Pass 1  IDiag  1:
 E= -706.396639119569     Delta-E=       -0.000000000172 Rises=F Damp=F
 DIIS: error= 1.60D-07 at cycle  11 NSaved=  11.
 NSaved=11 IEnMin=11 EnMin= -706.396639119569     IErMin=11 ErrMin= 1.60D-07
 ErrMax= 1.60D-07  0.00D+00 EMaxC= 1.00D-01 BMatC= 3.75D-12 BMatP= 1.50D-10
 IDIUse=1 WtCom= 1.00D+00 WtEn= 0.00D+00
 Coeff-Com:  0.397D-05 0.911D-05-0.793D-04-0.219D-03-0.670D-03-0.238D-02
 Coeff-Com: -0.627D-02 0.852D-02 0.467D-01 0.220D+00 0.735D+00
 Coeff:      0.397D-05 0.911D-05-0.793D-04-0.219D-03-0.670D-03-0.238D-02
 Coeff:     -0.627D-02 0.852D-02 0.467D-01 0.220D+00 0.735D+00
 Gap=     0.162 Goal=   None    Shift=    0.000
 RMSDP=4.25D-08 MaxDP=1.41D-06 DE=-1.72D-10 OVMax= 1.02D-06

 Cycle  12  Pass 1  IDiag  1:
 E= -706.396639119571     Delta-E=       -0.000000000002 Rises=F Damp=F
 DIIS: error= 3.89D-08 at cycle  12 NSaved=  12.
 NSaved=12 IEnMin=12 EnMin= -706.396639119571     IErMin=12 ErrMin= 3.89D-08
 ErrMax= 3.89D-08  0.00D+00 EMaxC= 1.00D-01 BMatC= 2.92D-13 BMatP= 3.75D-12
 IDIUse=1 WtCom= 1.00D+00 WtEn= 0.00D+00
 Coeff-Com: -0.449D-07 0.107D-04 0.477D-05-0.275D-04-0.129D-03-0.420D-03
 Coeff-Com: -0.191D-02-0.179D-02 0.603D-02 0.264D-01 0.211D+00 0.761D+00
 Coeff:     -0.449D-07 0.107D-04 0.477D-05-0.275D-04-0.129D-03-0.420D-03
 Coeff:     -0.191D-02-0.179D-02 0.603D-02 0.264D-01 0.211D+00 0.761D+00
 Gap=     0.162 Goal=   None    Shift=    0.000
 RMSDP=1.02D-08 MaxDP=3.91D-07 DE=-2.16D-12 OVMax= 3.30D-07

 Cycle  13  Pass 1  IDiag  1:
 E= -706.396639119572     Delta-E=       -0.000000000001 Rises=F Damp=F
 DIIS: error= 1.03D-08 at cycle  13 NSaved=  13.
 NSaved=13 IEnMin=13 EnMin= -706.396639119572     IErMin=13 ErrMin= 1.03D-08
 ErrMax= 1.03D-08  0.00D+00 EMaxC= 1.00D-01 BMatC= 3.38D-14 BMatP= 2.92D-13
 IDIUse=1 WtCom= 1.00D+00 WtEn= 0.00D+00
 Coeff-Com: -0.275D-06 0.412D-05 0.836D-05 0.267D-05-0.115D-04-0.656D-05
 Coeff-Com: -0.425D-03-0.150D-02-0.417D-03-0.502D-02 0.447D-01 0.352D+00
 Coeff-Com:  0.610D+00
 Coeff:     -0.275D-06 0.412D-05 0.836D-05 0.267D-05-0.115D-04-0.656D-05
 Coeff:     -0.425D-03-0.150D-02-0.417D-03-0.502D-02 0.447D-01 0.352D+00
 Coeff:      0.610D+00
 Gap=     0.162 Goal=   None    Shift=    0.000
 RMSDP=2.40D-09 MaxDP=5.66D-08 DE=-1.25D-12 OVMax= 5.17D-08

 Error on total polarization charges =  0.02548
 SCF Done:  E(RB3LYP) =  -706.396639120     A.U. after   13 cycles
            NFock= 13  Conv=0.24D-08     -V/T= 2.0059
 KE= 7.022802181233D+02 PE=-2.124676373580D+03 EE= 4.921529186774D+02
 SMD-CDS (non-electrostatic) energy       (kcal/mol) =       0.64
 (included in total energy above)
 Leave Link  502 at Wed Jan  8 00:58:44 2020, MaxMem=  4294967296 cpu:             896.5 elap:             225.0
 (Enter /home/cwagen/sw/g16/g16/l701.exe)
 ... and contract with generalized density number  0.
 Compute integral first derivatives.
 D1PCM: PCM CHGder 1st derivatives, ID1Alg=3 FixD1E=F DoIter=F DoCFld=F I1PDM=0.
 GePol: Maximum number of non-zero 1st derivatives   =     371
 Leave Link  701 at Wed Jan  8 00:59:12 2020, MaxMem=  4294967296 cpu:             107.2 elap:              27.2
 (Enter /home/cwagen/sw/g16/g16/l702.exe)
 L702 exits ... SP integral derivatives will be done elsewhere.
 Leave Link  702 at Wed Jan  8 00:59:12 2020, MaxMem=  4294967296 cpu:               1.7 elap:               0.8
 (Enter /home/cwagen/sw/g16/g16/l703.exe)
 Integral derivatives from FoFJK, PRISM(SPDF).
 Compute integral first derivatives, UseDBF=F ICtDFT=           0.
 Calling FoFJK, ICntrl=      2127 FMM=F ISym2X=0 I1Cent= 0 IOpClX= 0 NMat=1 NMatS=1 NMatT=0.
 FoFJK:  IHMeth= 1 ICntrl=    2127 DoSepK=F KAlg= 0 I1Cent=           0 FoldK=F
 IRaf=         0 NMat=       1 IRICut=       1 DoRegI=T DoRafI=F ISym2E= 0 IDoP0=0 IntGTp=1.
 FoFCou: FMM=F IPFlag=           0 FMFlag=      100000 FMFlg1=         800
         NFxFlg=           0 DoJE=F BraDBF=F KetDBF=F FulRan=T
         wScrn=  0.000000 ICntrl=      2127 IOpCl=  0 I1Cent=           0 NGrid=           0
         NMat0=    1 NMatS0=      1 NMatT0=    0 NMatD0=    1 NMtDS0=    0 NMtDT0=    0
 Symmetry not used in FoFCou.
 Leave Link  703 at Wed Jan  8 00:59:24 2020, MaxMem=  4294967296 cpu:              46.9 elap:              11.8
 (Enter /home/cwagen/sw/g16/g16/l716.exe)
 Dipole        =-3.87846176D+00 2.53897993D+00-8.89640520D-01
 ***** Axes restored to original set *****
 -------------------------------------------------------------------
 Center     Atomic                   Forces (Hartrees/Bohr)
 Number     Number              X              Y              Z
 -------------------------------------------------------------------
      1        6          -0.036345288   -0.025119890   -0.042762156
      2        8           0.012134734    0.025392543    0.043065087
      3        6           0.010838505    0.018432354    0.007701270
      4        1          -0.000515105    0.000002124   -0.001938435
      5        1          -0.000928317    0.001221006   -0.000605913
      6        1           0.000389140    0.000361735   -0.000941967
      7       17           0.018741363   -0.018217929   -0.004417203
      8        6          -0.008342431   -0.003225479   -0.000333163
      9        7           0.004027399    0.001153536    0.000232481
 -------------------------------------------------------------------
 Cartesian Forces:  Max     0.043065087 RMS     0.016944387
 Leave Link  716 at Wed Jan  8 00:59:26 2020, MaxMem=  4294967296 cpu:               4.5 elap:               1.7
 (Enter /home/cwagen/sw/g16/g16/l103.exe)

 GradGradGradGradGradGradGradGradGradGradGradGradGradGradGradGradGradGrad
 Berny optimization.
 Using GEDIIS/GDIIS optimizer.
 FormGI is forming the generalized inverse of G from B-inverse, IUseBI=4.
 Internal  Forces:  Max     0.046897230 RMS     0.012322343
 Search for a local minimum.
 Step number   2 out of a maximum of   41
 All quantities printed in internal units (Hartrees-Bohrs-Radians)
 RMS Force = .11763D-01 SwitMx=.10000D-02 MixMth= 1
 Mixed Optimization -- RFO/linear search
 Update second derivatives using D2CorX and points    1    2
 DE= -3.44D-02 DEPred=-2.74D-02 R= 1.26D+00
 TightC=F SS=  1.41D+00  RLast= 3.45D-01 DXNew= 5.0454D-01 1.0342D+00
 Trust test= 1.26D+00 RLast= 3.45D-01 DXMaxT set to 5.05D-01
 ITU=  1  0
 Use linear search instead of GDIIS.
     Eigenvalues ---    0.00230   0.04746   0.04747   0.05132   0.05471
     Eigenvalues ---    0.06186   0.10039   0.15999   0.16000   0.16114
     Eigenvalues ---    0.20025   0.25000   0.25371   0.26895   0.33932
     Eigenvalues ---    0.33991   0.34280   0.62736   1.221221000.00000
     Eigenvalues --- 1000.000001000.000001000.000001000.000001000.00000
     Eigenvalues --- 1000.000001000.000001000.000001000.000001000.00000
     Eigenvalues --- 1000.00000
 RFO step:  Lambda=-1.95284781D-03 EMin= 2.29990518D-03
 Quartic linear search produced a step of  0.50837.
 Iteration  1 RMS(Cart)=  0.06522301 RMS(Int)=  0.00608828
 Iteration  2 RMS(Cart)=  0.00518262 RMS(Int)=  0.00346226
 Iteration  3 RMS(Cart)=  0.00003693 RMS(Int)=  0.00346214
 Iteration  4 RMS(Cart)=  0.00000039 RMS(Int)=  0.00346214
 Iteration  1 RMS(Cart)=  0.00000000 RMS(Int)=  0.00000000
 ITry= 1 IFail=0 DXMaxC= 1.52D-01 DCOld= 1.00D+10 DXMaxT= 5.05D-01 DXLimC= 3.00D+00 Rises=F
 Variable       Old X    -DE/DX   Delta X   Delta X   Delta X     New X
                                 (Linear)    (Quad)   (Total)
    R1        2.26548  -0.04690  -0.09496   0.01094  -0.08402   2.18147
    R2        2.87140  -0.01171  -0.03743  -0.00584  -0.04327   2.82813
    R3        4.15740  -0.02593   0.00000   0.00000   0.00000   4.15740
    R4        5.48021  -0.00469   0.00000   0.00000   0.00000   5.48021
    R5        2.06408  -0.00188  -0.00469  -0.00148  -0.00617   2.05791
    R6        2.06930   0.00042  -0.00274   0.00584   0.00310   2.07241
    R7        2.06571   0.00025  -0.00151   0.00329   0.00178   2.06749
    R8        2.22390   0.00419   0.00746  -0.00304   0.00441   2.22832
    A1        2.17232   0.03136   0.08930   0.05940   0.14272   2.31504
    A2        1.98663  -0.00889  -0.01649   0.01252  -0.01383   1.97280
    A3        1.83230  -0.00795  -0.03055  -0.02411  -0.04687   1.78543
    A4        1.91951  -0.00868  -0.00238  -0.03026  -0.04205   1.87746
    A5        1.70799  -0.01091  -0.03251  -0.04213  -0.07031   1.63767
    A6        1.77075  -0.00268  -0.03255   0.00230  -0.03400   1.73676
    A7        1.97024  -0.00039  -0.00190   0.00025  -0.00170   1.96853
    A8        1.84214  -0.00186  -0.01895   0.02026   0.00114   1.84328
    A9        1.88014  -0.00111  -0.01081   0.01223   0.00131   1.88145
   A10        1.92130   0.00083   0.00902  -0.01151  -0.00259   1.91871
   A11        1.92516   0.00106   0.00853  -0.00596   0.00255   1.92770
   A12        1.92282   0.00138   0.01387  -0.01435  -0.00073   1.92209
   A13        3.08990   0.00031  -0.00025   0.01050   0.01025   3.10015
   A14        2.85627   0.00008   0.00130  -0.00323  -0.00194   2.85434
    D1        2.98679  -0.00623  -0.02964  -0.04103  -0.07385   2.91294
    D2       -1.19702  -0.00665  -0.03225  -0.04180  -0.07724  -1.27426
    D3        0.85701  -0.00653  -0.03159  -0.04221  -0.07688   0.78013
    D4       -0.84539   0.00807   0.04141   0.01950   0.06103  -0.78435
    D5        1.25399   0.00765   0.03880   0.01873   0.05763   1.31163
    D6       -2.97517   0.00777   0.03947   0.01832   0.05800  -2.91717
    D7        0.99211  -0.00148  -0.00971  -0.00280  -0.00953   0.98258
    D8        3.09149  -0.00190  -0.01232  -0.00356  -0.01292   3.07856
    D9       -1.13767  -0.00178  -0.01166  -0.00398  -0.01256  -1.15023
         Item               Value     Threshold  Converged?
 Maximum Force            0.046897     0.000450     NO 
 RMS     Force            0.011763     0.000300     NO 
 Maximum Displacement     0.152285     0.001800     NO 
 RMS     Displacement     0.066385     0.001200     NO 
 Predicted change in Energy=-9.427317D-03
 Lowest energy point so far.  Saving SCF results.
 GradGradGradGradGradGradGradGradGradGradGradGradGradGradGradGradGradGrad

 Leave Link  103 at Wed Jan  8 01:00:11 2020, MaxMem=  4294967296 cpu:             179.1 elap:              45.0
 (Enter /home/cwagen/sw/g16/g16/l202.exe)
                          Input orientation:                          
 ---------------------------------------------------------------------
 Center     Atomic      Atomic             Coordinates (Angstroms)
 Number     Number       Type             X           Y           Z
 ---------------------------------------------------------------------
      1          6           0       -0.278450   -0.416176   -0.300506
      2          8           0       -0.231524   -0.516710   -1.449544
      3          6           0       -0.291256   -1.424117    0.805679
      4          1           0       -0.113894   -0.979281    1.783732
      5          1           0       -1.288097   -1.880417    0.777668
      6          1           0        0.472820   -2.174829    0.582950
      7         17           0       -1.462352    1.314765    0.364488
      8          6           0        2.380301    0.545627    0.344459
      9          7           0        3.519794    0.840568    0.415311
 ---------------------------------------------------------------------
                    Distance matrix (angstroms):
                    1          2          3          4          5
     1  C    0.000000
     2  O    1.154383   0.000000
     3  C    1.496580   2.431663   0.000000
     4  H    2.165228   3.268315   1.089001   0.000000
     5  H    2.079867   2.817182   1.096670   1.789682   0.000000
     6  H    2.106599   2.715970   1.094070   1.793166   1.795946
     7  Cl   2.200000   2.856563   3.011244   3.015832   3.226495
     8  C    2.900000   3.341951   3.351094   3.258506   4.419333
     9  N    4.064290   4.403666   4.450313   4.288136   5.536323
                    6          7          8          9
     6  H    0.000000
     7  Cl   3.996234   0.000000
     8  C    3.331102   3.918923   0.000000
     9  N    4.290078   5.004920   1.179175   0.000000
 Stoichiometry    C3H3ClNO(1-)
 Framework group  C1[X(C3H3ClNO)]
 Deg. of freedom    21
 Full point group                 C1      NOp   1
 RotChk:  IX=0 Diff= 4.21D-02
 Largest Abelian subgroup         C1      NOp   1
 Largest concise Abelian subgroup C1      NOp   1
                         Standard orientation:                         
 ---------------------------------------------------------------------
 Center     Atomic      Atomic             Coordinates (Angstroms)
 Number     Number       Type             X           Y           Z
 ---------------------------------------------------------------------
      1          6           0       -0.445752    0.690846    0.263681
      2          8           0       -0.452492    1.005407    1.374358
      3          6           0       -0.407612    1.473415   -1.011421
      4          1           0       -0.184584    0.854817   -1.879475
      5          1           0       -1.404956    1.917535   -1.115089
      6          1           0        0.344790    2.259682   -0.898884
      7         17           0       -1.596306   -1.145058   -0.118002
      8          6           0        2.240762   -0.349893   -0.067231
      9          7           0        3.382501   -0.642217   -0.029365
 ---------------------------------------------------------------------
 Rotational constants (GHZ):           3.1672583           1.3725628           1.1746147
 Leave Link  202 at Wed Jan  8 01:00:12 2020, MaxMem=  4294967296 cpu:               3.4 elap:               1.2
 (Enter /home/cwagen/sw/g16/g16/l301.exe)
 Standard basis: 6-31+G(d) (6D, 7F)
 Ernie: Thresh=  0.10000D-02 Tol=  0.10000D-05 Strict=F.
 There are   124 symmetry adapted cartesian basis functions of A   symmetry.
 There are   124 symmetry adapted basis functions of A   symmetry.
   124 basis functions,   228 primitive gaussians,   124 cartesian basis functions
    27 alpha electrons       27 beta electrons
       nuclear repulsion energy       226.6015649666 Hartrees.
 IExCor=  402 DFT=T Ex+Corr=B3LYP ExCW=0 ScaHFX=  0.200000
 ScaDFX=  0.800000  0.720000  1.000000  0.810000 ScalE2=  1.000000  1.000000
 IRadAn=      5 IRanWt=     -1 IRanGd=            0 ICorTp=0 IEmpDi=  4
 NAtoms=    9 NActive=    9 NUniq=    9 SFac= 1.00D+00 NAtFMM=   60 NAOKFM=F Big=F
 Integral buffers will be    131072 words long.
 Raffenetti 2 integral format.
 Two-electron integral symmetry is turned on.
 ------------------------------------------------------------------------------
 Polarizable Continuum Model (PCM)
 =================================
 Model                : PCM.
 Atomic radii         : SMD-Coulomb.
 Polarization charges : Total charges.
 Charge compensation  : None.
 Solution method      : On-the-fly selection.
 Cavity type          : VdW (van der Waals Surface) (Alpha=1.000).
 Cavity algorithm     : GePol (No added spheres)
                        Default sphere list used, NSphG=    9.
                        Lebedev-Laikov grids with approx.  5.0 points / Ang**2.
                        Smoothing algorithm: York/Karplus (Gamma=1.0000).
                        Polarization charges: spherical gaussians, with
                                              point-specific exponents (IZeta= 3).
                        Self-potential: point-specific (ISelfS= 7).
                        Self-field    : sphere-specific E.n sum rule (ISelfD= 2).
 1st derivatives      : Analytical E(r).r(x)/FMM algorithm (CHGder, D1EAlg=3).
                        Cavity 1st derivative terms included.
 Solvent              : TetraHydroFuran, Eps=   7.425700 Eps(inf)=   1.974025
 ------------------------------------------------------------------------------
 Spheres list:
 ISph  on   Nord     Re0    Alpha      Xe            Ye            Ze
    1   C      1    1.8500  1.000     -0.445752      0.690846      0.263681
    2   O      2    2.2940  1.000     -0.452492      1.005407      1.374358
    3   C      3    1.8500  1.000     -0.407612      1.473415     -1.011421
    4   H      4    1.2000  1.000     -0.184584      0.854817     -1.879475
    5   H      5    1.2000  1.000     -1.404956      1.917535     -1.115089
    6   H      6    1.2000  1.000      0.344790      2.259682     -0.898884
    7  Cl      7    2.3800  1.000     -1.596306     -1.145058     -0.118002
    8   C      8    1.8500  1.000      2.240762     -0.349893     -0.067231
    9   N      9    1.8900  1.000      3.382501     -0.642217     -0.029365
 ------------------------------------------------------------------------------
 GePol: Number of generator spheres                  =       9
 GePol: Total number of spheres                      =       9
 GePol: Number of exposed spheres                    =       9 (100.00%)
 GePol: Number of points                             =    1285
 GePol: Average weight of points                     =       0.13
 GePol: Minimum weight of points                     =   0.14D-08
 GePol: Maximum weight of points                     =    0.18138
 GePol: Number of points with low weight             =      34
 GePol: Fraction of low-weight points (<1% of avg)   =       2.65%
 GePol: Cavity surface area                          =    172.692 Ang**2
 GePol: Cavity volume                                =    153.574 Ang**3
 ------------------------------------------------------------------------------
 Atomic radii for non-electrostatic terms: SMD-CDS.
 ------------------------------------------------------------------------------
 PCM non-electrostatic energy =         0.0009882017 Hartrees.
[...]
 (Enter /home/cwagen/sw/g16/g16/l103.exe)

 GradGradGradGradGradGradGradGradGradGradGradGradGradGradGradGradGradGrad
 Berny optimization.
 Using GEDIIS/GDIIS optimizer.
 FormGI is forming the generalized inverse of G from B-inverse, IUseBI=4.
 Internal  Forces:  Max     0.018736929 RMS     0.003398514
 Search for a local minimum.
 Step number  13 out of a maximum of   41
 All quantities printed in internal units (Hartrees-Bohrs-Radians)
 RMS Force = .25528D-04 SwitMx=.10000D-02 MixMth= 2
 Mixed Optimization -- En-DIIS/RFO-DIIS
 Swapping is turned off.
 Update second derivatives using D2CorX and points    4    5    6    7    8
                                                      9   10   11   12   13
 DE= -2.88D-06 DEPred=-2.23D-07 R= 1.29D+01
 TightC=F SS=  1.41D+00  RLast= 7.02D-03 DXNew= 1.5115D+00 2.1067D-02
 Trust test= 1.29D+01 RLast= 7.02D-03 DXMaxT set to 8.99D-01
 ITU=  1  1  1  1  0  1  1  1  1  1  1  1  0
     Eigenvalues ---    0.00210   0.00752   0.01873   0.03997   0.04782
     Eigenvalues ---    0.05661   0.06130   0.15028   0.16262   0.16432
     Eigenvalues ---    0.18929   0.25138   0.26288   0.29796   0.34008
     Eigenvalues ---    0.34291   0.34564   1.17106   1.225721000.00000
     Eigenvalues --- 1000.000001000.000001000.000001000.000001000.00000
     Eigenvalues --- 1000.000001000.000001000.000001000.000001000.00000
     Eigenvalues --- 1000.00000
 En-DIIS/RFO-DIIS/Sim-DIIS IScMMF=       -3 using points:    13   12   11   10    9    8    7    6    5
 RFO step:  Lambda=-4.79449390D-07.
 NNeg= 0 NGDIIS= 9 SimSw=  2.50D-01 Rises=F DC= -2.88D-06 SmlDif=  1.00D-05
 NRisDI= 0 DoIntr=F SqrtH=F CThrHd= 10.0 CDAdj=  3.0
 RMS Error=  0.4762303664D-03 NUsed= 9 OKEnD=F EnDIS=F
 InvSVX:  RCond= 4.38D-09 Info=           0 Equed=N FErr=  1.20D-11 BErr=  1.33D-16
 DIIS inversion failure, remove point   9.
 InvSVX:  RCond= 8.63D-09 Info=           0 Equed=N FErr=  9.84D-12 BErr=  1.06D-16
 DIIS inversion failure, remove point   8.
 InvSVX:  RCond= 9.44D-09 Info=           0 Equed=N FErr=  1.18D-11 BErr=  5.28D-17
 DIIS inversion failure, remove point   7.
 InvSVX:  RCond= 1.64D-08 Info=           0 Equed=N FErr=  3.92D-12 BErr=  1.02D-16
 DIIS inversion failure, remove point   6.
 InvSVX:  RCond= 1.90D-07 Info=           0 Equed=N FErr=  1.09D-12 BErr=  1.06D-16
 RFO-DIIS uses    5 points instead of    9
 DidBck=T Rises=F RFO-DIIS coefs:    0.25397    0.86901    0.46231   -0.99276    0.40746
                  RFO-DIIS coefs:    0.00000    0.00000    0.00000    0.00000
 Iteration  1 RMS(Cart)=  0.00073531 RMS(Int)=  0.00000035
 Iteration  2 RMS(Cart)=  0.00000028 RMS(Int)=  0.00000021
 Iteration  1 RMS(Cart)=  0.00000000 RMS(Int)=  0.00000000
 ITry= 1 IFail=0 DXMaxC= 1.69D-03 DCOld= 1.00D+10 DXMaxT= 8.99D-01 DXLimC= 3.00D+00 Rises=F
 Variable       Old X    -DE/DX   Delta X   Delta X   Delta X     New X
                                 (Linear)    (Quad)   (Total)
    R1        2.19849  -0.00001   0.00007  -0.00004   0.00003   2.19852
    R2        2.79360   0.00001  -0.00007   0.00016   0.00008   2.79368
    R3        4.15740  -0.01874   0.00000   0.00000   0.00000   4.15740
    R4        5.48021   0.00264   0.00000   0.00000   0.00000   5.48021
    R5        2.05552   0.00001   0.00000   0.00001   0.00002   2.05554
    R6        2.07451  -0.00002   0.00003  -0.00007  -0.00004   2.07447
    R7        2.06748   0.00000  -0.00001   0.00001   0.00000   2.06748
    R8        2.22982   0.00000  -0.00001   0.00000  -0.00001   2.22981
    A1        2.42516  -0.00001   0.00045  -0.00048  -0.00002   2.42514
    A2        1.98592   0.00003  -0.00010   0.00022   0.00012   1.98604
    A3        1.66826  -0.00008   0.00088  -0.00062   0.00026   1.66852
    A4        1.84662  -0.00002  -0.00025   0.00020  -0.00005   1.84657
    A5        1.52130   0.00010  -0.00073   0.00071  -0.00001   1.52128
    A6        1.75753  -0.00002  -0.00075   0.00014  -0.00061   1.75692
    A7        1.93743  -0.00001  -0.00016   0.00004  -0.00012   1.93731
    A8        1.86498   0.00001  -0.00004   0.00016   0.00012   1.86510
    A9        1.88593  -0.00001   0.00030  -0.00029   0.00001   1.88594
   A10        1.91006   0.00000  -0.00009   0.00007  -0.00002   1.91004
   A11        1.93823   0.00000   0.00010  -0.00017  -0.00007   1.93816
   A12        1.92580   0.00001  -0.00011   0.00021   0.00010   1.92590
   A13        3.21377  -0.00001   0.00035  -0.00003   0.00032   3.21409
   A14        2.85744  -0.00001   0.00011  -0.00014  -0.00004   2.85740
    D1        2.59580  -0.00001  -0.00050  -0.00031  -0.00080   2.59499
    D2       -1.60584  -0.00001  -0.00072  -0.00011  -0.00083  -1.60667
    D3        0.46650   0.00000  -0.00072   0.00007  -0.00065   0.46586
    D4       -0.81754  -0.00001  -0.00004  -0.00049  -0.00054  -0.81808
    D5        1.26401  -0.00001  -0.00027  -0.00030  -0.00056   1.26345
    D6       -2.94683   0.00000  -0.00026  -0.00012  -0.00038  -2.94721
    D7        0.93339   0.00000  -0.00102  -0.00016  -0.00118   0.93222
    D8        3.01494   0.00000  -0.00124   0.00004  -0.00120   3.01374
    D9       -1.19590   0.00001  -0.00124   0.00022  -0.00102  -1.19692
         Item               Value     Threshold  Converged?
 Maximum Force            0.000095     0.000450     YES
 RMS     Force            0.000026     0.000300     YES
 Maximum Displacement     0.001686     0.001800     YES
 RMS     Displacement     0.000735     0.001200     YES
 Predicted change in Energy=-2.108603D-08
 Optimization completed.
    -- Stationary point found.
                           ----------------------------
                           !   Optimized Parameters   !
                           ! (Angstroms and Degrees)  !
 --------------------------                            --------------------------
 ! Name  Definition              Value          Derivative Info.                !
 --------------------------------------------------------------------------------
 ! R1    R(1,2)                  1.1634         -DE/DX =    0.0                 !
 ! R2    R(1,3)                  1.4783         -DE/DX =    0.0                 !
 ! R3    R(1,7)                  2.2            -DE/DX =   -0.0187              !
 ! R4    R(1,8)                  2.9            -DE/DX =    0.0026              !
 ! R5    R(3,4)                  1.0877         -DE/DX =    0.0                 !
 ! R6    R(3,5)                  1.0978         -DE/DX =    0.0                 !
 ! R7    R(3,6)                  1.0941         -DE/DX =    0.0                 !
 ! R8    R(8,9)                  1.18           -DE/DX =    0.0                 !
 ! A1    A(2,1,3)              138.9517         -DE/DX =    0.0                 !
 ! A2    A(2,1,7)              113.7847         -DE/DX =    0.0                 !
 ! A3    A(2,1,8)               95.5845         -DE/DX =   -0.0001              !
 ! A4    A(3,1,7)              105.8034         -DE/DX =    0.0                 !
 ! A5    A(3,1,8)               87.164          -DE/DX =    0.0001              !
 ! A6    A(7,1,8)              100.6993         -DE/DX =    0.0                 !
 ! A7    A(1,3,4)              111.0065         -DE/DX =    0.0                 !
 ! A8    A(1,3,5)              106.8557         -DE/DX =    0.0                 !
 ! A9    A(1,3,6)              108.056          -DE/DX =    0.0                 !
 ! A10   A(4,3,5)              109.4384         -DE/DX =    0.0                 !
 ! A11   A(4,3,6)              111.0526         -DE/DX =    0.0                 !
 ! A12   A(5,3,6)              110.3405         -DE/DX =    0.0                 !
 ! A13   L(1,8,9,6,-1)         184.1355         -DE/DX =    0.0                 !
 ! A14   L(1,8,9,6,-2)         163.7191         -DE/DX =    0.0                 !
 ! D1    D(2,1,3,4)            148.7282         -DE/DX =    0.0                 !
 ! D2    D(2,1,3,5)            -92.0081         -DE/DX =    0.0                 !
 ! D3    D(2,1,3,6)             26.7287         -DE/DX =    0.0                 !
 ! D4    D(7,1,3,4)            -46.8415         -DE/DX =    0.0                 !
 ! D5    D(7,1,3,5)             72.4222         -DE/DX =    0.0                 !
 ! D6    D(7,1,3,6)           -168.841          -DE/DX =    0.0                 !
 ! D7    D(8,1,3,4)             53.4795         -DE/DX =    0.0                 !
 ! D8    D(8,1,3,5)            172.7433         -DE/DX =    0.0                 !
 ! D9    D(8,1,3,6)            -68.52           -DE/DX =    0.0                 !
 --------------------------------------------------------------------------------
 Lowest energy point so far.  Saving SCF results.
 Largest change from initial coordinates is atom    4       0.222 Angstoms.
 GradGradGradGradGradGradGradGradGradGradGradGradGradGradGradGradGradGrad

 Leave Link  103 at Wed Jan  8 01:55:31 2020, MaxMem=  4294967296 cpu:             174.5 elap:              44.0
 (Enter /home/cwagen/sw/g16/g16/l202.exe)
                          Input orientation:                          
 ---------------------------------------------------------------------
 Center     Atomic      Atomic             Coordinates (Angstroms)
 Number     Number       Type             X           Y           Z
 ---------------------------------------------------------------------
      1          6           0       -0.340720   -0.448706   -0.343203
      2          8           0       -0.155438   -0.439600   -1.491710
      3          6           0       -0.262642   -1.393359    0.791229
      4          1           0       -0.003639   -0.876004    1.712331
      5          1           0       -1.256014   -1.848959    0.895024
      6          1           0        0.482063   -2.156533    0.546364
      7         17           0       -1.531190    1.255425    0.377018
      8          6           0        2.330862    0.416675    0.380514
      9          7           0        3.444060    0.800490    0.456670
 ---------------------------------------------------------------------
                    Distance matrix (angstroms):
                    1          2          3          4          5
     1  C    0.000000
     2  O    1.163392   0.000000
     3  C    1.478311   2.476482   0.000000
     4  H    2.126365   3.237186   1.087735   0.000000
     5  H    2.081268   2.982291   1.097785   1.784118   0.000000
     6  H    2.094033   2.740075   1.094065   1.798650   1.799187
     7  Cl   2.200000   2.873665   2.965947   2.942696   3.159312
     8  C    2.900000   3.228021   3.189228   2.982390   4.273581
     9  N    4.065076   4.276727   4.320248   4.034097   5.413171
                    6          7          8          9
     6  H    0.000000
     7  Cl   3.965264   0.000000
     8  C    3.172848   3.952082   0.000000
     9  N    4.186341   4.996641   1.179967   0.000000
 Stoichiometry    C3H3ClNO(1-)
 Framework group  C1[X(C3H3ClNO)]
 Deg. of freedom    21
 Full point group                 C1      NOp   1
 RotChk:  IX=0 Diff= 1.04D-15
 Largest Abelian subgroup         C1      NOp   1
 Largest concise Abelian subgroup C1      NOp   1
                         Standard orientation:                         
 ---------------------------------------------------------------------
 Center     Atomic      Atomic             Coordinates (Angstroms)
 Number     Number       Type             X           Y           Z
 ---------------------------------------------------------------------
      1          6           0       -0.460950    0.734644    0.268592
      2          8           0       -0.330682    0.987066    1.396774
      3          6           0       -0.297274    1.389665   -1.046535
      4          1           0       -0.012617    0.667904   -1.808900
      5          1           0       -1.268609    1.830745   -1.305550
      6          1           0        0.460427    2.172153   -0.943681
      7         17           0       -1.673028   -1.063108   -0.104172
      8          6           0        2.211053   -0.333232   -0.092022
      9          7           0        3.312965   -0.748708   -0.017907
 ---------------------------------------------------------------------
 Rotational constants (GHZ):           3.2895508           1.3723842           1.2023496
 Leave Link  202 at Wed Jan  8 01:55:34 2020, MaxMem=  4294967296 cpu:               6.4 elap:               2.5
 (Enter /home/cwagen/sw/g16/g16/l601.exe)
 Copying SCF densities to generalized density rwf, IOpCl= 0 IROHF=0.

 **********************************************************************

            Population analysis using the SCF density.

 **********************************************************************

 Orbital symmetries:
       Occupied  (A) (A) (A) (A) (A) (A) (A) (A) (A) (A) (A) (A)
                 (A) (A) (A) (A) (A) (A) (A) (A) (A) (A) (A) (A)
                 (A) (A) (A)
       Virtual   (A) (A) (A) (A) (A) (A) (A) (A) (A) (A) (A) (A)
                 (A) (A) (A) (A) (A) (A) (A) (A) (A) (A) (A) (A)
                 (A) (A) (A) (A) (A) (A) (A) (A) (A) (A) (A) (A)
                 (A) (A) (A) (A) (A) (A) (A) (A) (A) (A) (A) (A)
                 (A) (A) (A) (A) (A) (A) (A) (A) (A) (A) (A) (A)
                 (A) (A) (A) (A) (A) (A) (A) (A) (A) (A) (A) (A)
                 (A) (A) (A) (A) (A) (A) (A) (A) (A) (A) (A) (A)
                 (A) (A) (A) (A) (A) (A) (A) (A) (A) (A) (A) (A)
                 (A)
 The electronic state is 1-A.
 Alpha  occ. eigenvalues -- -101.48982 -19.21969 -14.26155 -10.35539 -10.20966
 Alpha  occ. eigenvalues --  -10.12618  -9.40426  -7.16583  -7.16009  -7.15969
 Alpha  occ. eigenvalues --   -1.12560  -0.81746  -0.78162  -0.74066  -0.55253
 Alpha  occ. eigenvalues --   -0.48029  -0.47768  -0.47229  -0.40046  -0.39882
 Alpha  occ. eigenvalues --   -0.35318  -0.28549  -0.27545  -0.27100  -0.26728
 Alpha  occ. eigenvalues --   -0.26679  -0.23493
 Alpha virt. eigenvalues --   -0.04402  -0.02486   0.02853   0.04722   0.05176
 Alpha virt. eigenvalues --    0.05546   0.08015   0.08218   0.08885   0.09610
 Alpha virt. eigenvalues --    0.10033   0.11307   0.11544   0.12766   0.13334
 Alpha virt. eigenvalues --    0.13720   0.14208   0.16289   0.18021   0.20333
 Alpha virt. eigenvalues --    0.21300   0.23280   0.24860   0.25022   0.25998
 Alpha virt. eigenvalues --    0.27228   0.27906   0.28309   0.31872   0.33940
 Alpha virt. eigenvalues --    0.36417   0.39547   0.47331   0.51198   0.60028
 Alpha virt. eigenvalues --    0.62045   0.65259   0.66205   0.69817   0.71549
 Alpha virt. eigenvalues --    0.72577   0.73571   0.77617   0.78675   0.80229
 Alpha virt. eigenvalues --    0.85393   0.86681   0.92646   0.93243   0.94533
 Alpha virt. eigenvalues --    0.95294   0.97383   1.00504   1.02475   1.03203
 Alpha virt. eigenvalues --    1.04297   1.08503   1.14718   1.20109   1.22134
 Alpha virt. eigenvalues --    1.26030   1.27823   1.30330   1.38236   1.42064
 Alpha virt. eigenvalues --    1.50804   1.55868   1.60945   1.61468   1.61555
 Alpha virt. eigenvalues --    1.62932   1.65577   1.67320   1.79265   1.80963
 Alpha virt. eigenvalues --    1.83970   2.02741   2.03332   2.03492   2.10325
 Alpha virt. eigenvalues --    2.22966   2.29125   2.39116   2.51605   2.58697
 Alpha virt. eigenvalues --    2.65933   2.66722   2.67558   2.91441   3.08286
 Alpha virt. eigenvalues --    3.15692   4.01145   4.19232   4.26739   4.31398
 Alpha virt. eigenvalues --    4.37373   4.47656
          Condensed to atoms (all electrons):
               1          2          3          4          5          6
     1  C    5.742649   0.440815  -0.488632  -0.063262   0.007952  -0.109821
     2  O    0.440815   7.879242  -0.011310   0.005294  -0.004916   0.004646
     3  C   -0.488632  -0.011310   6.158161   0.398864   0.324150   0.422666
     4  H   -0.063262   0.005294   0.398864   0.404582  -0.021375  -0.018094
     5  H    0.007952  -0.004916   0.324150  -0.021375   0.435211  -0.021106
     6  H   -0.109821   0.004646   0.422666  -0.018094  -0.021106   0.436421
     7  Cl  -0.246301  -0.044337   0.148967   0.004103  -0.009247   0.009727
     8  C    0.383384  -0.075501  -0.284496  -0.010605   0.007162  -0.003576
     9  N   -0.016969   0.000960   0.006543  -0.000089  -0.000033  -0.000268
               7          8          9
     1  C   -0.246301   0.383384  -0.016969
     2  O   -0.044337  -0.075501   0.000960
     3  C    0.148967  -0.284496   0.006543
     4  H    0.004103  -0.010605  -0.000089
     5  H   -0.009247   0.007162  -0.000033
     6  H    0.009727  -0.003576  -0.000268
     7  Cl  17.604888  -0.069471  -0.001129
     8  C   -0.069471   5.705663   0.634866
     9  N   -0.001129   0.634866   7.034060
 Mulliken charges:
               1
     1  C    0.350186
     2  O   -0.194894
     3  C   -0.674913
     4  H    0.300582
     5  H    0.282202
     6  H    0.279405
     7  Cl  -0.397200
     8  C   -0.287426
     9  N   -0.657942
 Sum of Mulliken charges =  -1.00000
 Mulliken charges with hydrogens summed into heavy atoms:
               1
     1  C    0.350186
     2  O   -0.194894
     3  C    0.187276
     7  Cl  -0.397200
     8  C   -0.287426
     9  N   -0.657942
 Electronic spatial extent (au):  <R**2>=           1001.1445
 Charge=             -1.0000 electrons
 Dipole moment (field-independent basis, Debye):
    X=             -9.5594    Y=              7.1092    Z=             -2.2971  Tot=             12.1326
 Quadrupole moment (field-independent basis, Debye-Ang):
   XX=            -91.1949   YY=            -47.0588   ZZ=            -46.4084
   XY=              3.6450   XZ=              0.9715   YZ=             -3.7976
 Traceless Quadrupole moment (field-independent basis, Debye-Ang):
   XX=            -29.6409   YY=             14.4952   ZZ=             15.1456
   XY=              3.6450   XZ=              0.9715   YZ=             -3.7976
 Octapole moment (field-independent basis, Debye-Ang**2):
  XXX=           -149.1631  YYY=             21.2876  ZZZ=             -2.6422  XYY=            -14.3591
  XXY=             41.4520  XXZ=              2.0534  XZZ=             -8.8865  YZZ=              4.0317
  YYZ=             -3.6545  XYZ=              1.3310
 Hexadecapole moment (field-independent basis, Debye-Ang**3):
 XXXX=          -1471.0851 YYYY=           -313.2711 ZZZZ=           -181.2317 XXXY=            102.5746
 XXXZ=              3.2528 YYYX=             17.0095 YYYZ=             -5.4527 ZZZX=              2.0220
 ZZZY=             -3.4220 XXYY=           -243.8046 XXZZ=           -198.3678 YYZZ=            -84.0898
 XXYZ=             -1.6812 YYXZ=              2.3488 ZZXY=              2.7498
 N-N= 2.276773296069D+02 E-N=-2.132509022722D+03  KE= 7.024763305062D+02
 No NMR shielding tensors so no spin-rotation constants.
 Leave Link  601 at Wed Jan  8 01:55:43 2020, MaxMem=  4294967296 cpu:              34.9 elap:               8.8
 (Enter /home/cwagen/sw/g16/g16/l9999.exe)
 1\1\GINC-NODE088\FOpt\RB3LYP\6-31+G(d)\C3H3Cl1N1O1(1-)\CWAGEN\08-Jan-2
 020\0\\#p opt=modredundant b3lyp/6-31+g(d) scrf=(smd, solvent=tetrahyd
 rofuran)\\title\\-1,1\C,-0.3407198853,-0.4487058707,-0.3432031758\O,-0
 .1554381283,-0.4396001298,-1.4917103298\C,-0.2626420516,-1.3933587756,
 0.7912291526\H,-0.0036388049,-0.8760035214,1.7123313594\H,-1.256013852
 1,-1.8489585067,0.8950236082\H,0.4820627686,-2.1565326834,0.5463642591
 \Cl,-1.5311895698,1.2554253605,0.3770180882\C,2.3308619482,0.416675243
 ,0.3805136296\N,3.4440599853,0.8004897641,0.4566702085\\Version=AS64L-
 G16RevA.03\State=1-A\HF=-706.4087351\RMSD=4.863e-09\RMSF=5.219e-03\Dip
 ole=-3.86496,-2.8006982,0.053904\Quadrupole=-21.9594804,12.1932792,9.7
 662012,-1.1870809,-2.9288699,-2.6463034\PG=C01 [X(C3H3Cl1N1O1)]\\@


 REALITY IS FOR PEOPLE WHO CAN'T FACE SCIENCE FICTION.
 Job cpu time:       0 days  4 hours 31 minutes 51.3 seconds.
 Elapsed time:       0 days  1 hours  9 minutes  6.5 seconds.
 File lengths (MBytes):  RWF=     40 Int=      0 D2E=      0 Chk=      3 Scr=      1
 Normal termination of Gaussian 16 at Wed Jan  8 01:55:46 2020.
