 Entering Gaussian System, Link 0=g16
 Input=scan_280_270.gjf
 Output=scan_280_270.out
 Initial command:
 /home/cwagen/sw/g16/g16/l1.exe "/scratch/users/cwagen/cwagen_scan_280_270/Gau-64507.inp" -scrdir="/scratch/users/cwagen/cwagen_scan_280_270/"
 Entering Link 1 = /home/cwagen/sw/g16/g16/l1.exe PID=     64508.
  
 Copyright (c) 1988,1990,1992,1993,1995,1998,2003,2009,2016,
            Gaussian, Inc.  All Rights Reserved.
  
 This is part of the Gaussian(R) 16 program.  It is based on
 the Gaussian(R) 09 system (copyright 2009, Gaussian, Inc.),
 the Gaussian(R) 03 system (copyright 2003, Gaussian, Inc.),
 the Gaussian(R) 98 system (copyright 1998, Gaussian, Inc.),
 the Gaussian(R) 94 system (copyright 1995, Gaussian, Inc.),
 the Gaussian 92(TM) system (copyright 1992, Gaussian, Inc.),
 the Gaussian 90(TM) system (copyright 1990, Gaussian, Inc.),
 the Gaussian 88(TM) system (copyright 1988, Gaussian, Inc.),
 the Gaussian 86(TM) system (copyright 1986, Carnegie Mellon
 University), and the Gaussian 82(TM) system (copyright 1983,
 Carnegie Mellon University). Gaussian is a federally registered
 trademark of Gaussian, Inc.
  
 This software contains proprietary and confidential information,
 including trade secrets, belonging to Gaussian, Inc.
  
 This software is provided under written license and may be
 used, copied, transmitted, or stored only in accord with that
 written license.
  
 The following legend is applicable only to US Government
 contracts under FAR:
  
                    RESTRICTED RIGHTS LEGEND
  
 Use, reproduction and disclosure by the US Government is
 subject to restrictions as set forth in subparagraphs (a)
 and (c) of the Commercial Computer Software - Restricted
 Rights clause in FAR 52.227-19.
  
 Gaussian, Inc.
 340 Quinnipiac St., Bldg. 40, Wallingford CT 06492
  
  
 ---------------------------------------------------------------
 Warning -- This program may not be used in any manner that
 competes with the business of Gaussian, Inc. or will provide
 assistance to any competitor of Gaussian, Inc.  The licensee
 of this program is prohibited from giving any competitor of
 Gaussian, Inc. access to this program.  By using this program,
 the user acknowledges that Gaussian, Inc. is engaged in the
 business of creating and licensing software in the field of
 computational chemistry and represents and warrants to the
 licensee that it is not a competitor of Gaussian, Inc. and that
 it will not use this program in any manner prohibited above.
 ---------------------------------------------------------------
  

 Cite this work as:
 Gaussian 16, Revision A.03,
 M. J. Frisch, G. W. Trucks, H. B. Schlegel, G. E. Scuseria, 
 M. A. Robb, J. R. Cheeseman, G. Scalmani, V. Barone, 
 G. A. Petersson, H. Nakatsuji, X. Li, M. Caricato, A. V. Marenich, 
 J. Bloino, B. G. Janesko, R. Gomperts, B. Mennucci, H. P. Hratchian, 
 J. V. Ortiz, A. F. Izmaylov, J. L. Sonnenberg, D. Williams-Young, 
 F. Ding, F. Lipparini, F. Egidi, J. Goings, B. Peng, A. Petrone, 
 T. Henderson, D. Ranasinghe, V. G. Zakrzewski, J. Gao, N. Rega, 
 G. Zheng, W. Liang, M. Hada, M. Ehara, K. Toyota, R. Fukuda, 
 J. Hasegawa, M. Ishida, T. Nakajima, Y. Honda, O. Kitao, H. Nakai, 
 T. Vreven, K. Throssell, J. A. Montgomery, Jr., J. E. Peralta, 
 F. Ogliaro, M. J. Bearpark, J. J. Heyd, E. N. Brothers, K. N. Kudin, 
 V. N. Staroverov, T. A. Keith, R. Kobayashi, J. Normand, 
 K. Raghavachari, A. P. Rendell, J. C. Burant, S. S. Iyengar, 
 J. Tomasi, M. Cossi, J. M. Millam, M. Klene, C. Adamo, R. Cammi, 
 J. W. Ochterski, R. L. Martin, K. Morokuma, O. Farkas, 
 J. B. Foresman, and D. J. Fox, Gaussian, Inc., Wallingford CT, 2016.
 
 ******************************************
 Gaussian 16:  AS64L-G16RevA.03 25-Dec-2016
                 8-Jan-2020 
 ******************************************
 %nprocshared=16
 Will use up to   16 processors via shared memory.
 %mem=32GB
 ----------------------------------------------------------------------
 #p opt=modredundant b3lyp/6-31+g(d) scrf=(smd, solvent=tetrahydrofuran
 )
 ----------------------------------------------------------------------
 1/18=120,19=15,26=3,38=1/1,3;
 2/9=110,12=2,17=6,18=5,40=1/2;
 3/5=1,6=6,7=11,11=2,25=1,30=1,70=32201,71=1,72=20,74=-5/1,2,3;
 4//1;
 5/5=2,38=5,53=20/2;
 6/7=2,8=2,9=2,10=2,28=1/1;
 7//1,2,3,16;
 1/18=20,19=15,26=3/3(2);
 2/9=110/2;
 99//99;
 2/9=110/2;
 3/5=1,6=6,7=11,11=2,25=1,30=1,70=32205,71=1,72=20,74=-5/1,2,3;
 4/5=5,16=3,69=1/1;
 5/5=2,38=5,53=20/2;
 7//1,2,3,16;
 1/18=20,19=15,26=3/3(-5);
 2/9=110/2;
 6/7=2,8=2,9=2,10=2,19=2,28=1/1;
 99/9=1/99;
 Leave Link    1 at Wed Jan  8 01:55:07 2020, MaxMem=  4294967296 cpu:               1.4 elap:               0.1
 (Enter /home/cwagen/sw/g16/g16/l101.exe)
 -----
 title
 -----
 Symbolic Z-matrix:
 Charge = -1 Multiplicity = 1
 6                    -0.19426  -0.292    -0.21291 
 8                    -0.25532  -0.66526  -1.45426 
 6                    -0.33095  -1.45422   0.81632 
 1                    -0.18039  -1.13044   1.85373 
 1                    -1.34067  -1.87301   0.71427 
 1                     0.39707  -2.23395   0.57058 
 17                   -1.87073   1.83475   0.49872 
 6                     2.30897   0.58457   0.29254 
 7                     3.44354   0.86486   0.32285 
 
 Add virtual bond connecting atoms C8         and C1         Dist= 5.10D+00.
 Add virtual bond connecting atoms Cl7        and C1         Dist= 5.29D+00.
 The following ModRedundant input section has been read:
 B       1       7 F                                                           
 B       1       8 F                                                           
 
 ITRead=  0  0  0  0  0  0  0  0  0
 MicOpt= -1 -1 -1 -1 -1 -1 -1 -1 -1
 NAtoms=      9 NQM=        9 NQMF=       0 NMMI=      0 NMMIF=      0
                NMic=       0 NMicF=      0.
                    Isotopes and Nuclear Properties:
 (Nuclear quadrupole moments (NQMom) in fm**2, nuclear magnetic moments (NMagM)
  in nuclear magnetons)

  Atom         1           2           3           4           5           6           7           8           9
 IAtWgt=          12          16          12           1           1           1          35          12          14
 AtmWgt=  12.0000000  15.9949146  12.0000000   1.0078250   1.0078250   1.0078250  34.9688527  12.0000000  14.0030740
 NucSpn=           0           0           0           1           1           1           3           0           2
 AtZEff=   0.0000000   0.0000000   0.0000000   0.0000000   0.0000000   0.0000000   0.0000000   0.0000000   0.0000000
 NQMom=    0.0000000   0.0000000   0.0000000   0.0000000   0.0000000   0.0000000  -8.1650000   0.0000000   2.0440000
 NMagM=    0.0000000   0.0000000   0.0000000   2.7928460   2.7928460   2.7928460   0.8218740   0.0000000   0.4037610
 AtZNuc=   6.0000000   8.0000000   6.0000000   1.0000000   1.0000000   1.0000000  17.0000000   6.0000000   7.0000000
 Leave Link  101 at Wed Jan  8 01:55:07 2020, MaxMem=  4294967296 cpu:               7.0 elap:               0.6
 (Enter /home/cwagen/sw/g16/g16/l103.exe)

 GradGradGradGradGradGradGradGradGradGradGradGradGradGradGradGradGradGrad
 Berny optimization.
 Initialization pass.
                           ----------------------------
                           !    Initial Parameters    !
                           ! (Angstroms and Degrees)  !
 --------------------------                            --------------------------
 ! Name  Definition              Value          Derivative Info.                !
 --------------------------------------------------------------------------------
 ! R1    R(1,2)                  1.2977         estimate D2E/DX2                !
 ! R2    R(1,3)                  1.5584         estimate D2E/DX2                !
 ! R3    R(1,7)                  2.8            Frozen                          !
 ! R4    R(1,8)                  2.7            Frozen                          !
 ! R5    R(3,4)                  1.0971         estimate D2E/DX2                !
 ! R6    R(3,5)                  1.0979         estimate D2E/DX2                !
 ! R7    R(3,6)                  1.0947         estimate D2E/DX2                !
 ! R8    R(8,9)                  1.1691         estimate D2E/DX2                !
 ! A1    A(2,1,3)              114.4006         estimate D2E/DX2                !
 ! A2    A(2,1,7)              115.6846         estimate D2E/DX2                !
 ! A3    A(2,1,8)              108.426          estimate D2E/DX2                !
 ! A4    A(3,1,7)              110.248          estimate D2E/DX2                !
 ! A5    A(3,1,8)              101.5248         estimate D2E/DX2                !
 ! A6    A(7,1,8)              105.1256         estimate D2E/DX2                !
 ! A7    A(1,3,4)              113.1005         estimate D2E/DX2                !
 ! A8    A(1,3,5)              107.683          estimate D2E/DX2                !
 ! A9    A(1,3,6)              108.9421         estimate D2E/DX2                !
 ! A10   A(4,3,5)              109.0662         estimate D2E/DX2                !
 ! A11   A(4,3,6)              109.3417         estimate D2E/DX2                !
 ! A12   A(5,3,6)              108.6067         estimate D2E/DX2                !
 ! A13   L(1,8,9,6,-1)         177.1471         estimate D2E/DX2                !
 ! A14   L(1,8,9,6,-2)         164.1512         estimate D2E/DX2                !
 ! D1    D(2,1,3,4)            174.4714         estimate D2E/DX2                !
 ! D2    D(2,1,3,5)            -64.9488         estimate D2E/DX2                !
 ! D3    D(2,1,3,6)             52.6633         estimate D2E/DX2                !
 ! D4    D(7,1,3,4)            -53.1046         estimate D2E/DX2                !
 ! D5    D(7,1,3,5)             67.4752         estimate D2E/DX2                !
 ! D6    D(7,1,3,6)           -174.9127         estimate D2E/DX2                !
 ! D7    D(8,1,3,4)             57.938          estimate D2E/DX2                !
 ! D8    D(8,1,3,5)            178.5177         estimate D2E/DX2                !
 ! D9    D(8,1,3,6)            -63.8702         estimate D2E/DX2                !
 --------------------------------------------------------------------------------
 Trust Radius=3.00D-01 FncErr=1.00D-07 GrdErr=1.00D-06 EigMax=2.50D+02 EigMin=1.00D-04
 Number of steps in this run=     41 maximum allowed number of steps=    100.
 GradGradGradGradGradGradGradGradGradGradGradGradGradGradGradGradGradGrad

 Leave Link  103 at Wed Jan  8 01:55:08 2020, MaxMem=  4294967296 cpu:               0.7 elap:               0.1
 (Enter /home/cwagen/sw/g16/g16/l202.exe)
                          Input orientation:                          
 ---------------------------------------------------------------------
 Center     Atomic      Atomic             Coordinates (Angstroms)
 Number     Number       Type             X           Y           Z
 ---------------------------------------------------------------------
      1          6           0       -0.194263   -0.291999   -0.212908
      2          8           0       -0.255321   -0.665256   -1.454255
      3          6           0       -0.330945   -1.454221    0.816316
      4          1           0       -0.180394   -1.130438    1.853734
      5          1           0       -1.340665   -1.873010    0.714272
      6          1           0        0.397068   -2.233949    0.570583
      7         17           0       -1.870733    1.834745    0.498715
      8          6           0        2.308966    0.584565    0.292543
      9          7           0        3.443537    0.864863    0.322846
 ---------------------------------------------------------------------
                    Distance matrix (angstroms):
                    1          2          3          4          5
     1  C    0.000000
     2  O    1.297687   0.000000
     3  C    1.558443   2.404928   0.000000
     4  H    2.230287   3.341377   1.097150   0.000000
     5  H    2.161827   2.709087   1.097876   1.787740   0.000000
     6  H    2.175937   2.643176   1.094698   1.788205   1.780629
     7  Cl   2.800000   3.560008   3.645424   3.672279   3.751651
     8  C    2.700000   3.344985   3.376406   3.402274   4.420106
     9  N    3.854731   4.379601   4.457396   4.411091   5.526097
                    6          7          8          9
     6  H    0.000000
     7  Cl   4.658579   0.000000
     8  C    3.417116   4.367532   0.000000
     9  N    4.352583   5.404911   1.169075   0.000000
 Stoichiometry    C3H3ClNO(1-)
 Framework group  C1[X(C3H3ClNO)]
 Deg. of freedom    21
 Full point group                 C1      NOp   1
 Largest Abelian subgroup         C1      NOp   1
 Largest concise Abelian subgroup C1      NOp   1
                         Standard orientation:                         
 ---------------------------------------------------------------------
 Center     Atomic      Atomic             Coordinates (Angstroms)
 Number     Number       Type             X           Y           Z
 ---------------------------------------------------------------------
      1          6           0       -0.020101    0.749462    0.206257
      2          8           0        0.055199    1.376485    1.339908
      3          6           0        0.071503    1.671529   -1.046797
      4          1           0        0.102677    1.113198   -1.990742
      5          1           0       -0.810947    2.324685   -1.045435
      6          1           0        0.967593    2.294920   -0.964521
      7         17           0       -2.165088   -1.031118   -0.055597
      8          6           0        2.194494   -0.768672   -0.078064
      9          7           0        3.232888   -1.304229   -0.037398
 ---------------------------------------------------------------------
 Rotational constants (GHZ):           2.5436038           1.2098389           0.9710022
 Leave Link  202 at Wed Jan  8 01:55:08 2020, MaxMem=  4294967296 cpu:               2.2 elap:               0.2
 (Enter /home/cwagen/sw/g16/g16/l301.exe)
 Standard basis: 6-31+G(d) (6D, 7F)
 Ernie: Thresh=  0.10000D-02 Tol=  0.10000D-05 Strict=F.
 There are   124 symmetry adapted cartesian basis functions of A   symmetry.
 There are   124 symmetry adapted basis functions of A   symmetry.
   124 basis functions,   228 primitive gaussians,   124 cartesian basis functions
    27 alpha electrons       27 beta electrons
       nuclear repulsion energy       207.5679483087 Hartrees.
 IExCor=  402 DFT=T Ex+Corr=B3LYP ExCW=0 ScaHFX=  0.200000
 ScaDFX=  0.800000  0.720000  1.000000  0.810000 ScalE2=  1.000000  1.000000
 IRadAn=      5 IRanWt=     -1 IRanGd=            0 ICorTp=0 IEmpDi=  4
 NAtoms=    9 NActive=    9 NUniq=    9 SFac= 1.00D+00 NAtFMM=   60 NAOKFM=F Big=F
 Integral buffers will be    131072 words long.
 Raffenetti 2 integral format.
 Two-electron integral symmetry is turned on.
 ------------------------------------------------------------------------------
 Polarizable Continuum Model (PCM)
 =================================
 Model                : PCM.
 Atomic radii         : SMD-Coulomb.
 Polarization charges : Total charges.
 Charge compensation  : None.
 Solution method      : On-the-fly selection.
 Cavity type          : VdW (van der Waals Surface) (Alpha=1.000).
 Cavity algorithm     : GePol (No added spheres)
                        Default sphere list used, NSphG=    9.
                        Lebedev-Laikov grids with approx.  5.0 points / Ang**2.
                        Smoothing algorithm: York/Karplus (Gamma=1.0000).
                        Polarization charges: spherical gaussians, with
                                              point-specific exponents (IZeta= 3).
                        Self-potential: point-specific (ISelfS= 7).
                        Self-field    : sphere-specific E.n sum rule (ISelfD= 2).
 1st derivatives      : Analytical E(r).r(x)/FMM algorithm (CHGder, D1EAlg=3).
                        Cavity 1st derivative terms included.
 Solvent              : TetraHydroFuran, Eps=   7.425700 Eps(inf)=   1.974025
 ------------------------------------------------------------------------------
 Spheres list:
 ISph  on   Nord     Re0    Alpha      Xe            Ye            Ze
    1   C      1    1.8500  1.000     -0.020101      0.749462      0.206257
    2   O      2    2.2940  1.000      0.055199      1.376485      1.339908
    3   C      3    1.8500  1.000      0.071503      1.671529     -1.046797
    4   H      4    1.2000  1.000      0.102677      1.113198     -1.990742
    5   H      5    1.2000  1.000     -0.810947      2.324685     -1.045435
    6   H      6    1.2000  1.000      0.967593      2.294920     -0.964521
    7  Cl      7    2.3800  1.000     -2.165088     -1.031118     -0.055597
    8   C      8    1.8500  1.000      2.194494     -0.768672     -0.078064
    9   N      9    1.8900  1.000      3.232888     -1.304229     -0.037398
 ------------------------------------------------------------------------------
 GePol: Number of generator spheres                  =       9
 GePol: Total number of spheres                      =       9
 GePol: Number of exposed spheres                    =       9 (100.00%)
 GePol: Number of points                             =    1372
 GePol: Average weight of points                     =       0.14
 GePol: Minimum weight of points                     =   0.42D-06
 GePol: Maximum weight of points                     =    0.18138
 GePol: Number of points with low weight             =      42
 GePol: Fraction of low-weight points (<1% of avg)   =       3.06%
 GePol: Cavity surface area                          =    185.763 Ang**2
 GePol: Cavity volume                                =    161.947 Ang**3
 ------------------------------------------------------------------------------
 Atomic radii for non-electrostatic terms: SMD-CDS.
 ------------------------------------------------------------------------------
 PCM non-electrostatic energy =         0.0011230402 Hartrees.
 Nuclear repulsion after PCM non-electrostatic terms =      207.5690713490 Hartrees.
 Leave Link  301 at Wed Jan  8 01:55:08 2020, MaxMem=  4294967296 cpu:               2.2 elap:               0.2
 (Enter /home/cwagen/sw/g16/g16/l302.exe)
 NPDir=0 NMtPBC=     1 NCelOv=     1 NCel=       1 NClECP=     1 NCelD=      1
         NCelK=      1 NCelE2=     1 NClLst=     1 CellRange=     0.0.
 One-electron integrals computed using PRISM.
 One-electron integral symmetry used in STVInt
 NBasis=   124 RedAO= T EigKep=  2.18D-04  NBF=   124
 NBsUse=   124 1.00D-06 EigRej= -1.00D+00 NBFU=   124
 Precomputing XC quadrature grid using
 IXCGrd= 4 IRadAn=           5 IRanWt=          -1 IRanGd=           0 AccXCQ= 0.00D+00.
 Generated NRdTot=       0 NPtTot=           0 NUsed=           0 NTot=          32
 NSgBfM=   123   123   123   123   123 MxSgAt=     9 MxSgA2=     9.
 Leave Link  302 at Wed Jan  8 01:55:10 2020, MaxMem=  4294967296 cpu:              23.8 elap:               1.9
 (Enter /home/cwagen/sw/g16/g16/l303.exe)
 DipDrv:  MaxL=1.
 Leave Link  303 at Wed Jan  8 01:55:10 2020, MaxMem=  4294967296 cpu:               2.4 elap:               0.2
 (Enter /home/cwagen/sw/g16/g16/l401.exe)
 ExpMin= 4.38D-02 ExpMax= 2.52D+04 ExpMxC= 3.78D+03 IAcc=3 IRadAn=         5 AccDes= 0.00D+00
 Harris functional with IExCor=  402 and IRadAn=       5 diagonalized for initial guess.
 HarFok:  IExCor=  402 AccDes= 0.00D+00 IRadAn=         5 IDoV= 1 UseB2=F ITyADJ=14
 ICtDFT=  3500011 ScaDFX=  1.000000  1.000000  1.000000  1.000000
 FoFCou: FMM=F IPFlag=           0 FMFlag=      100000 FMFlg1=           0
         NFxFlg=           0 DoJE=T BraDBF=F KetDBF=T FulRan=T
         wScrn=  0.000000 ICntrl=       500 IOpCl=  0 I1Cent=   200000004 NGrid=           0
         NMat0=    1 NMatS0=      1 NMatT0=    0 NMatD0=    1 NMtDS0=    0 NMtDT0=    0
 Petite list used in FoFCou.
 Harris En= -706.324909515600    
 JPrj=0 DoOrth=F DoCkMO=F.
 Leave Link  401 at Wed Jan  8 01:55:12 2020, MaxMem=  4294967296 cpu:              31.9 elap:               2.2
 (Enter /home/cwagen/sw/g16/g16/l502.exe)
 Keep R1 ints in memory in canonical form, NReq=45236517.
 FoFCou: FMM=F IPFlag=           0 FMFlag=           0 FMFlg1=           0
         NFxFlg=           0 DoJE=F BraDBF=F KetDBF=F FulRan=T
         wScrn=  0.000000 ICntrl=       600 IOpCl=  0 I1Cent=           0 NGrid=           0
         NMat0=    1 NMatS0=   7750 NMatT0=    0 NMatD0=    1 NMtDS0=    0 NMtDT0=    0
 Symmetry not used in FoFCou.
 Two-electron integral symmetry not used.
 Closed shell SCF:
 Using DIIS extrapolation, IDIIS=  1040.
 NGot=  4294967296 LenX=  4264898079 LenY=  4264882262
 Requested convergence on RMS density matrix=1.00D-08 within 128 cycles.
 Requested convergence on MAX density matrix=1.00D-06.
 Requested convergence on             energy=1.00D-06.
 No special actions if energy rises.

 Cycle   1  Pass 1  IDiag  1:
 Inv3:  Mode=1 IEnd=     5647152.
 Iteration    1 A*A^-1 deviation from unit magnitude is 4.66D-15 for   1363.
 Iteration    1 A*A^-1 deviation from orthogonality  is 1.62D-15 for   1364   1363.
 Iteration    1 A^-1*A deviation from unit magnitude is 4.33D-15 for   1370.
 Iteration    1 A^-1*A deviation from orthogonality  is 1.80D-15 for   1364   1363.
 E= -706.145386257321    
 DIIS: error= 2.59D-02 at cycle   1 NSaved=   1.
 NSaved= 1 IEnMin= 1 EnMin= -706.145386257321     IErMin= 1 ErrMin= 2.59D-02
 ErrMax= 2.59D-02  0.00D+00 EMaxC= 1.00D-01 BMatC= 1.88D-01 BMatP= 1.88D-01
 IDIUse=3 WtCom= 7.41D-01 WtEn= 2.59D-01
 Coeff-Com:  0.100D+01
 Coeff-En:   0.100D+01
 Coeff:      0.100D+01
 Gap=     0.053 Goal=   None    Shift=    0.000
 GapD=    0.053 DampG=0.500 DampE=0.500 DampFc=0.2500 IDamp=-1.
 Damping current iteration by 2.50D-01
 RMSDP=1.08D-02 MaxDP=2.69D-01              OVMax= 6.56D-01

 Cycle   2  Pass 1  IDiag  1:
 E= -706.187122232789     Delta-E=       -0.041735975468 Rises=F Damp=T
 DIIS: error= 1.86D-02 at cycle   2 NSaved=   2.
 NSaved= 2 IEnMin= 2 EnMin= -706.187122232789     IErMin= 2 ErrMin= 1.86D-02
 ErrMax= 1.86D-02  0.00D+00 EMaxC= 1.00D-01 BMatC= 2.65D-02 BMatP= 1.88D-01
 IDIUse=3 WtCom= 8.14D-01 WtEn= 1.86D-01
 Coeff-Com: -0.223D+00 0.122D+01
 Coeff-En:   0.273D+00 0.727D+00
 Coeff:     -0.131D+00 0.113D+01
 Gap=     0.115 Goal=   None    Shift=    0.000
 RMSDP=3.10D-03 MaxDP=6.03D-02 DE=-4.17D-02 OVMax= 5.89D-01

 Cycle   3  Pass 1  IDiag  1:
 E= -706.291489866132     Delta-E=       -0.104367633344 Rises=F Damp=F
 DIIS: error= 1.15D-02 at cycle   3 NSaved=   3.
 NSaved= 3 IEnMin= 3 EnMin= -706.291489866132     IErMin= 3 ErrMin= 1.15D-02
 ErrMax= 1.15D-02  0.00D+00 EMaxC= 1.00D-01 BMatC= 3.48D-02 BMatP= 2.65D-02
 IDIUse=2 WtCom= 0.00D+00 WtEn= 1.00D+00
 Coeff-En:   0.000D+00 0.000D+00 0.100D+01
 Coeff:      0.000D+00 0.000D+00 0.100D+01
 Gap=     0.072 Goal=   None    Shift=    0.000
 RMSDP=5.47D-03 MaxDP=1.01D-01 DE=-1.04D-01 OVMax= 3.45D-01

 Cycle   4  Pass 1  IDiag  1:
 E= -706.130586812670     Delta-E=        0.160903053462 Rises=F Damp=F
 DIIS: error= 2.59D-02 at cycle   4 NSaved=   4.
 NSaved= 4 IEnMin= 3 EnMin= -706.291489866132     IErMin= 3 ErrMin= 1.15D-02
 ErrMax= 2.59D-02  0.00D+00 EMaxC= 1.00D-01 BMatC= 1.71D-01 BMatP= 2.65D-02
 IDIUse=2 WtCom= 0.00D+00 WtEn= 1.00D+00
 Coeff-En:   0.000D+00 0.000D+00 0.794D+00 0.206D+00
 Coeff:      0.000D+00 0.000D+00 0.794D+00 0.206D+00
 Gap=     0.091 Goal=   None    Shift=    0.000
 RMSDP=3.36D-03 MaxDP=6.72D-02 DE= 1.61D-01 OVMax= 2.07D-01

 Cycle   5  Pass 1  IDiag  1:
 E= -706.321166050124     Delta-E=       -0.190579237454 Rises=F Damp=F
 DIIS: error= 6.31D-03 at cycle   5 NSaved=   5.
 NSaved= 5 IEnMin= 5 EnMin= -706.321166050124     IErMin= 5 ErrMin= 6.31D-03
 ErrMax= 6.31D-03  0.00D+00 EMaxC= 1.00D-01 BMatC= 1.09D-02 BMatP= 2.65D-02
 IDIUse=3 WtCom= 9.37D-01 WtEn= 6.31D-02
 Coeff-Com:  0.752D-02 0.107D-01 0.404D+00 0.594D-01 0.519D+00
 Coeff-En:   0.000D+00 0.000D+00 0.226D+00 0.000D+00 0.774D+00
 Coeff:      0.704D-02 0.100D-01 0.393D+00 0.557D-01 0.535D+00
 Gap=     0.106 Goal=   None    Shift=    0.000
 RMSDP=8.48D-04 MaxDP=2.17D-02 DE=-1.91D-01 OVMax= 2.35D-02

 Cycle   6  Pass 1  IDiag  1:
 E= -706.330811287390     Delta-E=       -0.009645237265 Rises=F Damp=F
 DIIS: error= 2.78D-03 at cycle   6 NSaved=   6.
 NSaved= 6 IEnMin= 6 EnMin= -706.330811287390     IErMin= 6 ErrMin= 2.78D-03
 ErrMax= 2.78D-03  0.00D+00 EMaxC= 1.00D-01 BMatC= 1.38D-03 BMatP= 1.09D-02
 IDIUse=3 WtCom= 9.72D-01 WtEn= 2.78D-02
 Coeff-Com: -0.408D-01 0.640D-01 0.171D+00-0.307D-01 0.400D+00 0.436D+00
 Coeff-En:   0.000D+00 0.000D+00 0.000D+00 0.000D+00 0.000D+00 0.100D+01
 Coeff:     -0.396D-01 0.622D-01 0.167D+00-0.299D-01 0.389D+00 0.452D+00
 Gap=     0.107 Goal=   None    Shift=    0.000
 RMSDP=3.63D-04 MaxDP=9.74D-03 DE=-9.65D-03 OVMax= 2.69D-02

 Cycle   7  Pass 1  IDiag  1:
 E= -706.332059617220     Delta-E=       -0.001248329831 Rises=F Damp=F
 DIIS: error= 6.88D-04 at cycle   7 NSaved=   7.
 NSaved= 7 IEnMin= 7 EnMin= -706.332059617220     IErMin= 7 ErrMin= 6.88D-04
 ErrMax= 6.88D-04  0.00D+00 EMaxC= 1.00D-01 BMatC= 8.18D-05 BMatP= 1.38D-03
 IDIUse=3 WtCom= 9.93D-01 WtEn= 6.88D-03
 Coeff-Com: -0.267D-01 0.409D-01 0.688D-01-0.223D-01 0.192D+00 0.300D+00
 Coeff-Com:  0.447D+00
 Coeff-En:   0.000D+00 0.000D+00 0.000D+00 0.000D+00 0.000D+00 0.588D-01
 Coeff-En:   0.941D+00
 Coeff:     -0.265D-01 0.406D-01 0.683D-01-0.222D-01 0.191D+00 0.299D+00
 Coeff:      0.450D+00
 Gap=     0.107 Goal=   None    Shift=    0.000
 RMSDP=8.16D-05 MaxDP=1.84D-03 DE=-1.25D-03 OVMax= 3.06D-03

 Cycle   8  Pass 1  IDiag  1:
 E= -706.332143053829     Delta-E=       -0.000083436609 Rises=F Damp=F
 DIIS: error= 2.66D-04 at cycle   8 NSaved=   8.
 NSaved= 8 IEnMin= 8 EnMin= -706.332143053829     IErMin= 8 ErrMin= 2.66D-04
 ErrMax= 2.66D-04  0.00D+00 EMaxC= 1.00D-01 BMatC= 1.26D-05 BMatP= 8.18D-05
 IDIUse=3 WtCom= 9.97D-01 WtEn= 2.66D-03
 Coeff-Com: -0.525D-02 0.534D-02-0.763D-02-0.163D-02 0.262D-02 0.883D-01
 Coeff-Com:  0.258D+00 0.660D+00
 Coeff-En:   0.000D+00 0.000D+00 0.000D+00 0.000D+00 0.000D+00 0.000D+00
 Coeff-En:   0.000D+00 0.100D+01
 Coeff:     -0.523D-02 0.533D-02-0.761D-02-0.162D-02 0.261D-02 0.881D-01
 Coeff:      0.258D+00 0.661D+00
 Gap=     0.107 Goal=   None    Shift=    0.000
 RMSDP=2.57D-05 MaxDP=6.44D-04 DE=-8.34D-05 OVMax= 1.01D-03

 Cycle   9  Pass 1  IDiag  1:
 E= -706.332154110005     Delta-E=       -0.000011056177 Rises=F Damp=F
 DIIS: error= 6.52D-05 at cycle   9 NSaved=   9.
 NSaved= 9 IEnMin= 9 EnMin= -706.332154110005     IErMin= 9 ErrMin= 6.52D-05
 ErrMax= 6.52D-05  0.00D+00 EMaxC= 1.00D-01 BMatC= 1.31D-06 BMatP= 1.26D-05
 IDIUse=1 WtCom= 1.00D+00 WtEn= 0.00D+00
 Coeff-Com: -0.251D-02 0.254D-02-0.838D-02 0.455D-03-0.887D-02 0.426D-01
 Coeff-Com:  0.126D+00 0.407D+00 0.441D+00
 Coeff:     -0.251D-02 0.254D-02-0.838D-02 0.455D-03-0.887D-02 0.426D-01
 Coeff:      0.126D+00 0.407D+00 0.441D+00
 Gap=     0.107 Goal=   None    Shift=    0.000
 RMSDP=1.47D-05 MaxDP=5.50D-04 DE=-1.11D-05 OVMax= 8.74D-04

 Cycle  10  Pass 1  IDiag  1:
 E= -706.332155727707     Delta-E=       -0.000001617701 Rises=F Damp=F
 DIIS: error= 2.72D-05 at cycle  10 NSaved=  10.
 NSaved=10 IEnMin=10 EnMin= -706.332155727707     IErMin=10 ErrMin= 2.72D-05
 ErrMax= 2.72D-05  0.00D+00 EMaxC= 1.00D-01 BMatC= 1.88D-07 BMatP= 1.31D-06
 IDIUse=1 WtCom= 1.00D+00 WtEn= 0.00D+00
 Coeff-Com: -0.385D-03 0.269D-03-0.380D-02 0.486D-03-0.575D-02 0.196D-02
 Coeff-Com: -0.998D-02 0.513D-01 0.243D+00 0.723D+00
 Coeff:     -0.385D-03 0.269D-03-0.380D-02 0.486D-03-0.575D-02 0.196D-02
 Coeff:     -0.998D-02 0.513D-01 0.243D+00 0.723D+00
 Gap=     0.107 Goal=   None    Shift=    0.000
 RMSDP=5.31D-06 MaxDP=1.13D-04 DE=-1.62D-06 OVMax= 2.70D-04

 Cycle  11  Pass 1  IDiag  1:
 E= -706.332156006574     Delta-E=       -0.000000278867 Rises=F Damp=F
 DIIS: error= 4.55D-06 at cycle  11 NSaved=  11.
 NSaved=11 IEnMin=11 EnMin= -706.332156006574     IErMin=11 ErrMin= 4.55D-06
 ErrMax= 4.55D-06  0.00D+00 EMaxC= 1.00D-01 BMatC= 6.80D-09 BMatP= 1.88D-07
 IDIUse=1 WtCom= 1.00D+00 WtEn= 0.00D+00
 Coeff-Com: -0.761D-04 0.147D-03-0.518D-03 0.125D-04-0.638D-03-0.163D-02
 Coeff-Com: -0.126D-01-0.181D-01 0.374D-01 0.156D+00 0.840D+00
 Coeff:     -0.761D-04 0.147D-03-0.518D-03 0.125D-04-0.638D-03-0.163D-02
 Coeff:     -0.126D-01-0.181D-01 0.374D-01 0.156D+00 0.840D+00
 Gap=     0.107 Goal=   None    Shift=    0.000
 RMSDP=1.12D-06 MaxDP=1.88D-05 DE=-2.79D-07 OVMax= 4.80D-05

 Cycle  12  Pass 1  IDiag  1:
 E= -706.332156015787     Delta-E=       -0.000000009213 Rises=F Damp=F
 DIIS: error= 2.01D-06 at cycle  12 NSaved=  12.
 NSaved=12 IEnMin=12 EnMin= -706.332156015787     IErMin=12 ErrMin= 2.01D-06
 ErrMax= 2.01D-06  0.00D+00 EMaxC= 1.00D-01 BMatC= 7.41D-10 BMatP= 6.80D-09
 IDIUse=1 WtCom= 1.00D+00 WtEn= 0.00D+00
 Coeff-Com:  0.427D-04-0.458D-04 0.562D-04 0.150D-04 0.787D-04-0.867D-03
 Coeff-Com: -0.487D-02-0.121D-01 0.321D-03-0.280D-02 0.324D+00 0.696D+00
 Coeff:      0.427D-04-0.458D-04 0.562D-04 0.150D-04 0.787D-04-0.867D-03
 Coeff:     -0.487D-02-0.121D-01 0.321D-03-0.280D-02 0.324D+00 0.696D+00
 Gap=     0.107 Goal=   None    Shift=    0.000
 RMSDP=3.36D-07 MaxDP=6.93D-06 DE=-9.21D-09 OVMax= 1.71D-05

 Cycle  13  Pass 1  IDiag  1:
 E= -706.332156016690     Delta-E=       -0.000000000903 Rises=F Damp=F
 DIIS: error= 3.02D-07 at cycle  13 NSaved=  13.
 NSaved=13 IEnMin=13 EnMin= -706.332156016690     IErMin=13 ErrMin= 3.02D-07
 ErrMax= 3.02D-07  0.00D+00 EMaxC= 1.00D-01 BMatC= 2.89D-11 BMatP= 7.41D-10
 IDIUse=1 WtCom= 1.00D+00 WtEn= 0.00D+00
 Coeff-Com:  0.106D-04-0.121D-04 0.403D-04-0.159D-05 0.479D-04-0.646D-04
 Coeff-Com: -0.633D-04-0.649D-03-0.941D-03-0.850D-02 0.897D-02 0.140D+00
 Coeff-Com:  0.861D+00
 Coeff:      0.106D-04-0.121D-04 0.403D-04-0.159D-05 0.479D-04-0.646D-04
 Coeff:     -0.633D-04-0.649D-03-0.941D-03-0.850D-02 0.897D-02 0.140D+00
 Coeff:      0.861D+00
 Gap=     0.107 Goal=   None    Shift=    0.000
 RMSDP=7.07D-08 MaxDP=1.25D-06 DE=-9.03D-10 OVMax= 4.88D-06

 Cycle  14  Pass 1  IDiag  1:
 E= -706.332156016729     Delta-E=       -0.000000000040 Rises=F Damp=F
 DIIS: error= 7.97D-08 at cycle  14 NSaved=  14.
 NSaved=14 IEnMin=14 EnMin= -706.332156016729     IErMin=14 ErrMin= 7.97D-08
 ErrMax= 7.97D-08  0.00D+00 EMaxC= 1.00D-01 BMatC= 1.62D-12 BMatP= 2.89D-11
 IDIUse=1 WtCom= 1.00D+00 WtEn= 0.00D+00
 Coeff-Com:  0.281D-05-0.402D-05 0.916D-05-0.699D-06 0.882D-05 0.230D-04
 Coeff-Com:  0.218D-03 0.346D-03-0.471D-03-0.724D-03-0.133D-01-0.863D-02
 Coeff-Com:  0.130D+00 0.892D+00
 Coeff:      0.281D-05-0.402D-05 0.916D-05-0.699D-06 0.882D-05 0.230D-04
 Coeff:      0.218D-03 0.346D-03-0.471D-03-0.724D-03-0.133D-01-0.863D-02
 Coeff:      0.130D+00 0.892D+00
 Gap=     0.107 Goal=   None    Shift=    0.000
 RMSDP=1.48D-08 MaxDP=3.60D-07 DE=-3.97D-11 OVMax= 6.20D-07

 Cycle  15  Pass 1  IDiag  1:
 E= -706.332156016732     Delta-E=       -0.000000000003 Rises=F Damp=F
 DIIS: error= 2.18D-08 at cycle  15 NSaved=  15.
 NSaved=15 IEnMin=15 EnMin= -706.332156016732     IErMin=15 ErrMin= 2.18D-08
 ErrMax= 2.18D-08  0.00D+00 EMaxC= 1.00D-01 BMatC= 1.13D-13 BMatP= 1.62D-12
 IDIUse=1 WtCom= 1.00D+00 WtEn= 0.00D+00
 Coeff-Com:  0.473D-06-0.643D-06 0.796D-06-0.154D-06 0.107D-05 0.202D-05
 Coeff-Com:  0.195D-04 0.147D-04-0.788D-04 0.443D-03-0.133D-02-0.355D-02
 Coeff-Com: -0.232D-01 0.730D-01 0.955D+00
 Coeff:      0.473D-06-0.643D-06 0.796D-06-0.154D-06 0.107D-05 0.202D-05
 Coeff:      0.195D-04 0.147D-04-0.788D-04 0.443D-03-0.133D-02-0.355D-02
 Coeff:     -0.232D-01 0.730D-01 0.955D+00
 Gap=     0.107 Goal=   None    Shift=    0.000
 RMSDP=4.68D-09 MaxDP=7.64D-08 DE=-2.96D-12 OVMax= 2.37D-07

 Error on total polarization charges =  0.02503
 SCF Done:  E(RB3LYP) =  -706.332156017     A.U. after   15 cycles
            NFock= 15  Conv=0.47D-08     -V/T= 2.0065
 KE= 7.017947928731D+02 PE=-2.091663225998D+03 EE= 4.759672057595D+02
 SMD-CDS (non-electrostatic) energy       (kcal/mol) =       0.70
 (included in total energy above)
 Leave Link  502 at Wed Jan  8 01:55:47 2020, MaxMem=  4294967296 cpu:             495.2 elap:              34.7
 (Enter /home/cwagen/sw/g16/g16/l601.exe)
 Copying SCF densities to generalized density rwf, IOpCl= 0 IROHF=0.

 **********************************************************************

            Population analysis using the SCF density.

 **********************************************************************

 Orbital symmetries:
       Occupied  (A) (A) (A) (A) (A) (A) (A) (A) (A) (A) (A) (A)
                 (A) (A) (A) (A) (A) (A) (A) (A) (A) (A) (A) (A)
                 (A) (A) (A)
       Virtual   (A) (A) (A) (A) (A) (A) (A) (A) (A) (A) (A) (A)
                 (A) (A) (A) (A) (A) (A) (A) (A) (A) (A) (A) (A)
                 (A) (A) (A) (A) (A) (A) (A) (A) (A) (A) (A) (A)
                 (A) (A) (A) (A) (A) (A) (A) (A) (A) (A) (A) (A)
                 (A) (A) (A) (A) (A) (A) (A) (A) (A) (A) (A) (A)
                 (A) (A) (A) (A) (A) (A) (A) (A) (A) (A) (A) (A)
                 (A) (A) (A) (A) (A) (A) (A) (A) (A) (A) (A) (A)
                 (A) (A) (A) (A) (A) (A) (A) (A) (A) (A) (A) (A)
                 (A)
 The electronic state is 1-A.
 Alpha  occ. eigenvalues -- -101.47448 -19.23136 -14.28658 -10.37761 -10.22386
 Alpha  occ. eigenvalues --  -10.16341  -9.38650  -7.14788  -7.14261  -7.14255
 Alpha  occ. eigenvalues --   -1.06120  -0.84657  -0.75436  -0.71608  -0.56402
 Alpha  occ. eigenvalues --   -0.45694  -0.45309  -0.45014  -0.38527  -0.37854
 Alpha  occ. eigenvalues --   -0.36611  -0.29184  -0.29160  -0.26891  -0.25998
 Alpha  occ. eigenvalues --   -0.25364  -0.25294
 Alpha virt. eigenvalues --   -0.14640  -0.06209   0.02963   0.04419   0.04868
 Alpha virt. eigenvalues --    0.05207   0.06962   0.07955   0.08508   0.09036
 Alpha virt. eigenvalues --    0.10124   0.10540   0.11044   0.11741   0.12936
 Alpha virt. eigenvalues --    0.14049   0.14821   0.16061   0.16403   0.19378
 Alpha virt. eigenvalues --    0.21350   0.22362   0.24079   0.24187   0.25093
 Alpha virt. eigenvalues --    0.25667   0.26362   0.27993   0.29877   0.31799
 Alpha virt. eigenvalues --    0.33568   0.36243   0.39131   0.52829   0.62193
 Alpha virt. eigenvalues --    0.64311   0.65025   0.66151   0.66809   0.69354
 Alpha virt. eigenvalues --    0.71101   0.73560   0.74203   0.77223   0.78205
 Alpha virt. eigenvalues --    0.81578   0.84697   0.93025   0.94436   0.94901
 Alpha virt. eigenvalues --    0.95022   0.95564   0.96375   0.99151   1.01120
 Alpha virt. eigenvalues --    1.02044   1.06467   1.12409   1.13052   1.18284
 Alpha virt. eigenvalues --    1.23931   1.26463   1.27809   1.30555   1.40707
 Alpha virt. eigenvalues --    1.45860   1.47275   1.56794   1.58536   1.58750
 Alpha virt. eigenvalues --    1.59985   1.62253   1.67668   1.72919   1.78037
 Alpha virt. eigenvalues --    1.84965   1.94053   2.01458   2.01561   2.09477
 Alpha virt. eigenvalues --    2.16921   2.21778   2.25666   2.45473   2.47166
 Alpha virt. eigenvalues --    2.51456   2.65109   2.65320   2.69103   2.90540
 Alpha virt. eigenvalues --    3.07560   3.99334   4.12293   4.16918   4.27380
 Alpha virt. eigenvalues --    4.34836   4.40064
          Condensed to atoms (all electrons):
               1          2          3          4          5          6
     1  C    5.013365   0.512880   0.039417  -0.052539  -0.019287  -0.015622
     2  O    0.512880   7.876329  -0.117727   0.007044  -0.006212  -0.008300
     3  C    0.039417  -0.117727   5.756493   0.377877   0.352161   0.365193
     4  H   -0.052539   0.007044   0.377877   0.433258  -0.021803  -0.022701
     5  H   -0.019287  -0.006212   0.352161  -0.021803   0.427923  -0.021701
     6  H   -0.015622  -0.008300   0.365193  -0.022701  -0.021701   0.419683
     7  Cl   0.089500  -0.023463  -0.024196   0.002341  -0.002277   0.001066
     8  C    0.148191  -0.050276  -0.140130   0.002555   0.006049  -0.009007
     9  N   -0.000756   0.000017  -0.002036  -0.000183  -0.000034   0.000230
               7          8          9
     1  C    0.089500   0.148191  -0.000756
     2  O   -0.023463  -0.050276   0.000017
     3  C   -0.024196  -0.140130  -0.002036
     4  H    0.002341   0.002555  -0.000183
     5  H   -0.002277   0.006049  -0.000034
     6  H    0.001066  -0.009007   0.000230
     7  Cl  17.579257  -0.034575  -0.000416
     8  C   -0.034575   5.578953   0.650031
     9  N   -0.000416   0.650031   6.952115
 Mulliken charges:
               1
     1  C    0.284849
     2  O   -0.190293
     3  C   -0.607052
     4  H    0.274151
     5  H    0.285180
     6  H    0.291159
     7  Cl  -0.587236
     8  C   -0.151790
     9  N   -0.598968
 Sum of Mulliken charges =  -1.00000
 Mulliken charges with hydrogens summed into heavy atoms:
               1
     1  C    0.284849
     2  O   -0.190293
     3  C    0.243437
     7  Cl  -0.587236
     8  C   -0.151790
     9  N   -0.598968
 Electronic spatial extent (au):  <R**2>=           1180.2496
 Charge=             -1.0000 electrons
 Dipole moment (field-independent basis, Debye):
    X=             -3.6473    Y=              9.0733    Z=             -2.5980  Tot=             10.1182
 Quadrupole moment (field-independent basis, Debye-Ang):
   XX=            -90.6525   YY=            -50.2636   ZZ=            -46.8413
   XY=              6.6251   XZ=              0.0170   YZ=             -5.4266
 Traceless Quadrupole moment (field-independent basis, Debye-Ang):
   XX=            -28.0667   YY=             12.3222   ZZ=             15.7445
   XY=              6.6251   XZ=              0.0170   YZ=             -5.4266
 Octapole moment (field-independent basis, Debye-Ang**2):
  XXX=            -89.2528  YYY=             37.3344  ZZZ=             -4.0004  XYY=            -15.5401
  XXY=             61.9160  XXZ=              2.5386  XZZ=             -3.8481  YZZ=              6.0380
  YYZ=             -7.3435  XYZ=             -0.6490
 Hexadecapole moment (field-independent basis, Debye-Ang**3):
 XXXX=          -1516.5279 YYYY=           -448.5515 ZZZZ=           -175.7395 XXXY=            136.9758
 XXXZ=              4.6876 YYYX=             35.9119 YYYZ=            -14.0720 ZZZX=              0.6227
 ZZZY=             -6.0295 XXYY=           -322.8838 XXZZ=           -216.6974 YYZZ=           -105.5771
 XXYZ=             -3.0553 YYXZ=              0.6789 ZZXY=              4.9910
 N-N= 2.075690713490D+02 E-N=-2.091663224889D+03  KE= 7.017947928731D+02
 No NMR shielding tensors so no spin-rotation constants.
 Leave Link  601 at Wed Jan  8 01:55:49 2020, MaxMem=  4294967296 cpu:              17.6 elap:               1.5
 (Enter /home/cwagen/sw/g16/g16/l701.exe)
 ... and contract with generalized density number  0.
 Compute integral first derivatives.
 D1PCM: PCM CHGder 1st derivatives, ID1Alg=3 FixD1E=F DoIter=F DoCFld=F I1PDM=0.
 GePol: Maximum number of non-zero 1st derivatives   =     401
 Leave Link  701 at Wed Jan  8 01:55:53 2020, MaxMem=  4294967296 cpu:              55.8 elap:               4.0
 (Enter /home/cwagen/sw/g16/g16/l702.exe)
 L702 exits ... SP integral derivatives will be done elsewhere.
 Leave Link  702 at Wed Jan  8 01:55:53 2020, MaxMem=  4294967296 cpu:               1.0 elap:               0.1
 (Enter /home/cwagen/sw/g16/g16/l703.exe)
 Integral derivatives from FoFJK, PRISM(SPDF).
 Compute integral first derivatives, UseDBF=F ICtDFT=           0.
 Calling FoFJK, ICntrl=      2127 FMM=F ISym2X=0 I1Cent= 0 IOpClX= 0 NMat=1 NMatS=1 NMatT=0.
 FoFJK:  IHMeth= 1 ICntrl=    2127 DoSepK=F KAlg= 0 I1Cent=           0 FoldK=F
 IRaf=         0 NMat=       1 IRICut=       1 DoRegI=T DoRafI=F ISym2E= 0 IDoP0=0 IntGTp=1.
 FoFCou: FMM=F IPFlag=           0 FMFlag=      100000 FMFlg1=         800
         NFxFlg=           0 DoJE=F BraDBF=F KetDBF=F FulRan=T
         wScrn=  0.000000 ICntrl=      2127 IOpCl=  0 I1Cent=           0 NGrid=           0
         NMat0=    1 NMatS0=      1 NMatT0=    0 NMatD0=    1 NMtDS0=    0 NMtDT0=    0
 Symmetry not used in FoFCou.
 Leave Link  703 at Wed Jan  8 01:55:55 2020, MaxMem=  4294967296 cpu:              34.3 elap:               2.6
 (Enter /home/cwagen/sw/g16/g16/l716.exe)
 Dipole        =-1.43497617D+00 3.56972658D+00-1.02214488D+00
 ***** Axes restored to original set *****
 -------------------------------------------------------------------
 Center     Atomic                   Forces (Hartrees/Bohr)
 Number     Number              X              Y              Z
 -------------------------------------------------------------------
      1        6          -0.011300892   -0.092134312   -0.144938027
      2        8           0.009667670    0.077243224    0.146642250
      3        6           0.000317103    0.024078092    0.019873156
      4        1          -0.000371178    0.001993272   -0.005339327
      5        1          -0.000022516    0.005334839   -0.003118085
      6        1           0.002881250    0.005595868   -0.005059934
      7       17           0.015701296   -0.018060165   -0.005431607
      8        6          -0.031143113   -0.007577591   -0.003569763
      9        7           0.014270381    0.003526771    0.000941337
 -------------------------------------------------------------------
 Cartesian Forces:  Max     0.146642250 RMS     0.047202263
 Leave Link  716 at Wed Jan  8 01:55:56 2020, MaxMem=  4294967296 cpu:               1.0 elap:               0.1
 (Enter /home/cwagen/sw/g16/g16/l103.exe)

 GradGradGradGradGradGradGradGradGradGradGradGradGradGradGradGradGradGrad
 Berny optimization.
 FormGI is forming the generalized inverse of G from B-inverse, IUseBI=4.
 Internal  Forces:  Max     0.162935748 RMS     0.032682648
 Search for a local minimum.
 Step number   1 out of a maximum of   41
 All quantities printed in internal units (Hartrees-Bohrs-Radians)
 RMS Force = .33326D-01 SwitMx=.10000D-02 MixMth= 1
 Mixed Optimization -- RFO/linear search
 Second derivative matrix not updated -- first step.
 ITU=  0
     Eigenvalues ---    0.00230   0.04746   0.04746   0.05330   0.05908
     Eigenvalues ---    0.07453   0.10176   0.16000   0.16000   0.16000
     Eigenvalues ---    0.25000   0.25000   0.25000   0.26946   0.33918
     Eigenvalues ---    0.33999   0.34275   0.67840   1.220341000.00000
     Eigenvalues --- 1000.000001000.000001000.000001000.000001000.00000
     Eigenvalues --- 1000.000001000.000001000.000001000.000001000.00000
     Eigenvalues --- 1000.00000
 RFO step:  Lambda=-5.56174931D-02 EMin= 2.30000000D-03
 Linear search not attempted -- first point.
 Maximum step size (   0.300) exceeded in Quadratic search.
    -- Step size scaled by   0.897
 Iteration  1 RMS(Cart)=  0.06470116 RMS(Int)=  0.00493080
 Iteration  2 RMS(Cart)=  0.00692205 RMS(Int)=  0.00078811
 Iteration  3 RMS(Cart)=  0.00004390 RMS(Int)=  0.00078720
 Iteration  4 RMS(Cart)=  0.00000009 RMS(Int)=  0.00078720
 Iteration  1 RMS(Cart)=  0.00000000 RMS(Int)=  0.00000000
 ITry= 1 IFail=0 DXMaxC= 1.62D-01 DCOld= 1.00D+10 DXMaxT= 3.00D-01 DXLimC= 3.00D+00 Rises=F
 Variable       Old X    -DE/DX   Delta X   Delta X   Delta X     New X
                                 (Linear)    (Quad)   (Total)
    R1        2.45227  -0.16294   0.00000  -0.19911  -0.19911   2.25316
    R2        2.94503  -0.02365   0.00000  -0.06527  -0.06527   2.87976
    R3        5.29123  -0.02452   0.00000   0.00000   0.00000   5.29123
    R4        5.10226  -0.01741   0.00000   0.00000   0.00000   5.10226
    R5        2.07331  -0.00451   0.00000  -0.01021  -0.01021   2.06310
    R6        2.07468  -0.00172   0.00000  -0.00391  -0.00391   2.07077
    R7        2.06868  -0.00099   0.00000  -0.00223  -0.00223   2.06645
    R8        2.20923   0.01472   0.00000   0.01035   0.01035   2.21958
    A1        1.99667   0.05822   0.00000   0.18186   0.18022   2.17689
    A2        2.01908  -0.02226   0.00000  -0.05451  -0.05572   1.96336
    A3        1.89239  -0.01404   0.00000  -0.03057  -0.03247   1.85992
    A4        1.92419  -0.01581   0.00000  -0.04857  -0.05003   1.87416
    A5        1.77194  -0.00595   0.00000  -0.02431  -0.02626   1.74568
    A6        1.83479  -0.00357   0.00000  -0.03969  -0.04171   1.79308
    A7        1.97398  -0.00195   0.00000  -0.00853  -0.00873   1.96525
    A8        1.87942  -0.00609   0.00000  -0.02463  -0.02493   1.85449
    A9        1.90140  -0.00955   0.00000  -0.04004  -0.04044   1.86096
   A10        1.90356   0.00446   0.00000   0.01908   0.01896   1.92253
   A11        1.90837   0.00593   0.00000   0.02336   0.02307   1.93144
   A12        1.89554   0.00748   0.00000   0.03201   0.03144   1.92698
   A13        3.09180  -0.00018   0.00000  -0.00158  -0.00158   3.09022
   A14        2.86498   0.00088   0.00000   0.00765   0.00765   2.87263
    D1        3.04510  -0.00023   0.00000  -0.00418  -0.00390   3.04120
    D2       -1.13357  -0.00003   0.00000  -0.00243  -0.00234  -1.13591
    D3        0.91915   0.00032   0.00000   0.00033   0.00065   0.91979
    D4       -0.92685   0.00615   0.00000   0.03800   0.03766  -0.88918
    D5        1.17766   0.00635   0.00000   0.03974   0.03923   1.21690
    D6       -3.05280   0.00670   0.00000   0.04250   0.04221  -3.01059
    D7        1.01121  -0.00639   0.00000  -0.03568  -0.03549   0.97572
    D8        3.11572  -0.00618   0.00000  -0.03393  -0.03392   3.08180
    D9       -1.11475  -0.00583   0.00000  -0.03118  -0.03094  -1.14568
         Item               Value     Threshold  Converged?
 Maximum Force            0.162936     0.000450     NO 
 RMS     Force            0.033326     0.000300     NO 
 Maximum Displacement     0.162245     0.001800     NO 
 RMS     Displacement     0.063425     0.001200     NO 
 Predicted change in Energy=-3.022533D-02
 Lowest energy point so far.  Saving SCF results.
 GradGradGradGradGradGradGradGradGradGradGradGradGradGradGradGradGradGrad

 Leave Link  103 at Wed Jan  8 01:56:03 2020, MaxMem=  4294967296 cpu:              91.2 elap:               7.7
 (Enter /home/cwagen/sw/g16/g16/l202.exe)
                          Input orientation:                          
 ---------------------------------------------------------------------
 Center     Atomic      Atomic             Coordinates (Angstroms)
 Number     Number       Type             X           Y           Z
 ---------------------------------------------------------------------
      1          6           0       -0.204443   -0.373605   -0.255932
      2          8           0       -0.242261   -0.579400   -1.429751
      3          6           0       -0.327555   -1.447627    0.818129
      4          1           0       -0.166361   -1.055367    1.824138
      5          1           0       -1.340928   -1.855112    0.729684
      6          1           0        0.414141   -2.214978    0.579722
      7         17           0       -1.839915    1.766287    0.509635
      8          6           0        2.274810    0.549102    0.284362
      9          7           0        3.409762    0.845999    0.341859
 ---------------------------------------------------------------------
                    Distance matrix (angstroms):
                    1          2          3          4          5
     1  C    0.000000
     2  O    1.192322   0.000000
     3  C    1.523906   2.411236   0.000000
     4  H    2.189279   3.289392   1.091744   0.000000
     5  H    2.111374   2.738188   1.095806   1.793608   0.000000
     6  H    2.114620   2.672819   1.093516   1.797290   1.797848
     7  Cl   2.800000   3.437436   3.565340   3.534181   3.662232
     8  C    2.700000   3.247668   3.323271   3.302202   4.364872
     9  N    3.860992   4.302050   4.410792   4.312887   5.478636
                    6          7          8          9
     6  H    0.000000
     7  Cl   4.575604   0.000000
     8  C    3.345065   4.296888   0.000000
     9  N    4.289510   5.332372   1.174551   0.000000
 Stoichiometry    C3H3ClNO(1-)
 Framework group  C1[X(C3H3ClNO)]
 Deg. of freedom    21
 Full point group                 C1      NOp   1
 RotChk:  IX=0 Diff= 2.01D-02
 Largest Abelian subgroup         C1      NOp   1
 Largest concise Abelian subgroup C1      NOp   1
                         Standard orientation:                         
 ---------------------------------------------------------------------
 Center     Atomic      Atomic             Coordinates (Angstroms)
 Number     Number       Type             X           Y           Z
 ---------------------------------------------------------------------
      1          6           0       -0.028849    0.818796    0.239546
      2          8           0        0.023859    1.267992    1.342758
      3          6           0        0.039932    1.645689   -1.038658
      4          1           0        0.074107    1.026811   -1.937395
      5          1           0       -0.858166    2.273502   -1.046520
      6          1           0        0.937699    2.265359   -0.962479
      7         17           0       -2.113871   -1.024607   -0.067938
      8          6           0        2.171769   -0.713943   -0.073493
      9          7           0        3.213453   -1.256363   -0.057870
 ---------------------------------------------------------------------
 Rotational constants (GHZ):           2.6510010           1.2416280           1.0071367
 Leave Link  202 at Wed Jan  8 01:56:03 2020, MaxMem=  4294967296 cpu:               2.0 elap:               0.2
 (Enter /home/cwagen/sw/g16/g16/l301.exe)
 Standard basis: 6-31+G(d) (6D, 7F)
 Ernie: Thresh=  0.10000D-02 Tol=  0.10000D-05 Strict=F.
 There are   124 symmetry adapted cartesian basis functions of A   symmetry.
 There are   124 symmetry adapted basis functions of A   symmetry.
   124 basis functions,   228 primitive gaussians,   124 cartesian basis functions
    27 alpha electrons       27 beta electrons
       nuclear repulsion energy       211.7480558153 Hartrees.
 IExCor=  402 DFT=T Ex+Corr=B3LYP ExCW=0 ScaHFX=  0.200000
 ScaDFX=  0.800000  0.720000  1.000000  0.810000 ScalE2=  1.000000  1.000000
 IRadAn=      5 IRanWt=     -1 IRanGd=            0 ICorTp=0 IEmpDi=  4
 NAtoms=    9 NActive=    9 NUniq=    9 SFac= 1.00D+00 NAtFMM=   60 NAOKFM=F Big=F
 Integral buffers will be    131072 words long.
 Raffenetti 2 integral format.
 Two-electron integral symmetry is turned on.
 ------------------------------------------------------------------------------
 Polarizable Continuum Model (PCM)
 =================================
 Model                : PCM.
 Atomic radii         : SMD-Coulomb.
 Polarization charges : Total charges.
 Charge compensation  : None.
 Solution method      : On-the-fly selection.
 Cavity type          : VdW (van der Waals Surface) (Alpha=1.000).
 Cavity algorithm     : GePol (No added spheres)
                        Default sphere list used, NSphG=    9.
                        Lebedev-Laikov grids with approx.  5.0 points / Ang**2.
                        Smoothing algorithm: York/Karplus (Gamma=1.0000).
                        Polarization charges: spherical gaussians, with
                                              point-specific exponents (IZeta= 3).
                        Self-potential: point-specific (ISelfS= 7).
                        Self-field    : sphere-specific E.n sum rule (ISelfD= 2).
 1st derivatives      : Analytical E(r).r(x)/FMM algorithm (CHGder, D1EAlg=3).
                        Cavity 1st derivative terms included.
 Solvent              : TetraHydroFuran, Eps=   7.425700 Eps(inf)=   1.974025
 ------------------------------------------------------------------------------
 Spheres list:
 ISph  on   Nord     Re0    Alpha      Xe            Ye            Ze
    1   C      1    1.8500  1.000     -0.028849      0.818796      0.239546
    2   O      2    2.2940  1.000      0.023859      1.267992      1.342758
    3   C      3    1.8500  1.000      0.039932      1.645689     -1.038658
    4   H      4    1.2000  1.000      0.074107      1.026811     -1.937395
    5   H      5    1.2000  1.000     -0.858166      2.273502     -1.046520
    6   H      6    1.2000  1.000      0.937699      2.265359     -0.962479
    7  Cl      7    2.3800  1.000     -2.113871     -1.024607     -0.067938
    8   C      8    1.8500  1.000      2.171769     -0.713943     -0.073493
    9   N      9    1.8900  1.000      3.213453     -1.256363     -0.057870
 ------------------------------------------------------------------------------
 GePol: Number of generator spheres                  =       9
 GePol: Total number of spheres                      =       9
 GePol: Number of exposed spheres                    =       9 (100.00%)
 GePol: Number of points                             =    1359
 GePol: Average weight of points                     =       0.13
 GePol: Minimum weight of points                     =   0.22D-08
 GePol: Maximum weight of points                     =    0.18138
 GePol: Number of points with low weight             =      36
 GePol: Fraction of low-weight points (<1% of avg)   =       2.65%
 GePol: Cavity surface area                          =    183.009 Ang**2
 GePol: Cavity volume                                =    160.193 Ang**3
 ------------------------------------------------------------------------------
 Atomic radii for non-electrostatic terms: SMD-CDS.
 ------------------------------------------------------------------------------
 PCM non-electrostatic energy =         0.0009159933 Hartrees.
 Nuclear repulsion after PCM non-electrostatic terms =      211.7489718086 Hartrees.
 Leave Link  301 at Wed Jan  8 01:56:04 2020, MaxMem=  4294967296 cpu:               2.5 elap:               0.2
 (Enter /home/cwagen/sw/g16/g16/l302.exe)
 NPDir=0 NMtPBC=     1 NCelOv=     1 NCel=       1 NClECP=     1 NCelD=      1
         NCelK=      1 NCelE2=     1 NClLst=     1 CellRange=     0.0.
 One-electron integrals computed using PRISM.
 One-electron integral symmetry used in STVInt
 NBasis=   124 RedAO= T EigKep=  1.82D-04  NBF=   124
 NBsUse=   124 1.00D-06 EigRej= -1.00D+00 NBFU=   124
 Precomputing XC quadrature grid using
 IXCGrd= 4 IRadAn=           5 IRanWt=          -1 IRanGd=           0 AccXCQ= 0.00D+00.
 Generated NRdTot=       0 NPtTot=           0 NUsed=           0 NTot=          32
 NSgBfM=   124   124   124   124   124 MxSgAt=     9 MxSgA2=     9.
 Leave Link  302 at Wed Jan  8 01:56:05 2020, MaxMem=  4294967296 cpu:              22.4 elap:               1.6
 (Enter /home/cwagen/sw/g16/g16/l303.exe)
 DipDrv:  MaxL=1.
 Leave Link  303 at Wed Jan  8 01:56:06 2020, MaxMem=  4294967296 cpu:               3.7 elap:               0.4
 (Enter /home/cwagen/sw/g16/g16/l401.exe)
 Initial guess from the checkpoint file:  "/scratch/users/cwagen/cwagen_scan_280_270/Gau-64508.chk"
 B after Tr=     0.000000    0.000000    0.000000
         Rot=    0.999961   -0.006676    0.000256   -0.005839 Ang=  -1.02 deg.
 Guess basis will be translated and rotated to current coordinates.
 JPrj=2 DoOrth=T DoCkMO=T.
 Generating alternative initial guess.
 ExpMin= 4.38D-02 ExpMax= 2.52D+04 ExpMxC= 3.78D+03 IAcc=2 IRadAn=         4 AccDes= 0.00D+00
 Harris functional with IExCor=  402 and IRadAn=       4 diagonalized for initial guess.
 HarFok:  IExCor=  402 AccDes= 0.00D+00 IRadAn=         4 IDoV= 1 UseB2=F ITyADJ=14
 ICtDFT=  3500011 ScaDFX=  1.000000  1.000000  1.000000  1.000000
 FoFCou: FMM=F IPFlag=           0 FMFlag=      100000 FMFlg1=           0
         NFxFlg=           0 DoJE=T BraDBF=F KetDBF=T FulRan=T
         wScrn=  0.000000 ICntrl=       500 IOpCl=  0 I1Cent=   200000004 NGrid=           0
         NMat0=    1 NMatS0=      1 NMatT0=    0 NMatD0=    1 NMtDS0=    0 NMtDT0=    0
 Petite list used in FoFCou.
 Harris En= -706.358595098564    
 Leave Link  401 at Wed Jan  8 01:56:08 2020, MaxMem=  4294967296 cpu:              36.6 elap:               2.7
 (Enter /home/cwagen/sw/g16/g16/l502.exe)
 Keep R1 ints in memory in canonical form, NReq=45236517.
 FoFCou: FMM=F IPFlag=           0 FMFlag=           0 FMFlg1=           0
         NFxFlg=           0 DoJE=F BraDBF=F KetDBF=F FulRan=T
         wScrn=  0.000000 ICntrl=       600 IOpCl=  0 I1Cent=           0 NGrid=           0
         NMat0=    1 NMatS0=   7750 NMatT0=    0 NMatD0=    1 NMtDS0=    0 NMtDT0=    0
 Symmetry not used in FoFCou.
 Two-electron integral symmetry not used.
 Closed shell SCF:
 Using DIIS extrapolation, IDIIS=  1040.
 NGot=  4294967296 LenX=  4264898079 LenY=  4264882262
 Requested convergence on RMS density matrix=1.00D-08 within 128 cycles.
 Requested convergence on MAX density matrix=1.00D-06.
 Requested convergence on             energy=1.00D-06.
 No special actions if energy rises.

 Cycle   1  Pass 1  IDiag  1:
 Inv3:  Mode=1 IEnd=     5540643.
 Iteration    1 A*A^-1 deviation from unit magnitude is 6.88D-15 for   1356.
 Iteration    1 A*A^-1 deviation from orthogonality  is 2.20D-15 for   1343   1341.
 Iteration    1 A^-1*A deviation from unit magnitude is 7.33D-15 for   1356.
 Iteration    1 A^-1*A deviation from orthogonality  is 1.47D-15 for   1350   1199.
 E= -706.353969368179    
 DIIS: error= 7.15D-03 at cycle   1 NSaved=   1.
 NSaved= 1 IEnMin= 1 EnMin= -706.353969368179     IErMin= 1 ErrMin= 7.15D-03
 ErrMax= 7.15D-03  0.00D+00 EMaxC= 1.00D-01 BMatC= 1.09D-02 BMatP= 1.09D-02
 IDIUse=3 WtCom= 9.29D-01 WtEn= 7.15D-02
 Coeff-Com:  0.100D+01
 Coeff-En:   0.100D+01
 Coeff:      0.100D+01
 Gap=     0.590 Goal=   None    Shift=    0.000
 GapD=    0.590 DampG=2.000 DampE=1.000 DampFc=2.0000 IDamp=-1.
 RMSDP=1.76D-03 MaxDP=3.57D-02              OVMax= 4.30D-02

 Cycle   2  Pass 1  IDiag  1:
 E= -706.370520502579     Delta-E=       -0.016551134400 Rises=F Damp=F
 DIIS: error= 2.67D-03 at cycle   2 NSaved=   2.
 NSaved= 2 IEnMin= 2 EnMin= -706.370520502579     IErMin= 2 ErrMin= 2.67D-03
 ErrMax= 2.67D-03  0.00D+00 EMaxC= 1.00D-01 BMatC= 9.94D-04 BMatP= 1.09D-02
 IDIUse=3 WtCom= 9.73D-01 WtEn= 2.67D-02
 Coeff-Com:  0.113D+00 0.887D+00
 Coeff-En:   0.000D+00 0.100D+01
 Coeff:      0.110D+00 0.890D+00
 Gap=     0.127 Goal=   None    Shift=    0.000
 RMSDP=5.47D-04 MaxDP=1.84D-02 DE=-1.66D-02 OVMax= 3.22D-02

 Cycle   3  Pass 1  IDiag  1:
 E= -706.369165368846     Delta-E=        0.001355133733 Rises=F Damp=F
 DIIS: error= 5.00D-03 at cycle   3 NSaved=   3.
 NSaved= 3 IEnMin= 2 EnMin= -706.370520502579     IErMin= 2 ErrMin= 2.67D-03
 ErrMax= 5.00D-03  0.00D+00 EMaxC= 1.00D-01 BMatC= 2.71D-03 BMatP= 9.94D-04
 IDIUse=3 WtCom= 1.24D-01 WtEn= 8.76D-01
 Coeff-Com: -0.645D-02 0.635D+00 0.372D+00
 Coeff-En:   0.000D+00 0.696D+00 0.304D+00
 Coeff:     -0.799D-03 0.688D+00 0.313D+00
 Gap=     0.122 Goal=   None    Shift=    0.000
 RMSDP=3.32D-04 MaxDP=1.22D-02 DE= 1.36D-03 OVMax= 1.56D-02

 Cycle   4  Pass 1  IDiag  1:
 E= -706.371314056990     Delta-E=       -0.002148688143 Rises=F Damp=F
 DIIS: error= 4.59D-04 at cycle   4 NSaved=   4.
 NSaved= 4 IEnMin= 4 EnMin= -706.371314056990     IErMin= 4 ErrMin= 4.59D-04
 ErrMax= 4.59D-04  0.00D+00 EMaxC= 1.00D-01 BMatC= 5.69D-05 BMatP= 9.94D-04
 IDIUse=3 WtCom= 9.95D-01 WtEn= 4.59D-03
 Coeff-Com: -0.203D-01 0.249D+00 0.147D+00 0.625D+00
 Coeff-En:   0.000D+00 0.000D+00 0.000D+00 0.100D+01
 Coeff:     -0.202D-01 0.248D+00 0.146D+00 0.627D+00
 Gap=     0.122 Goal=   None    Shift=    0.000
 RMSDP=1.03D-04 MaxDP=2.73D-03 DE=-2.15D-03 OVMax= 2.84D-03

 Cycle   5  Pass 1  IDiag  1:
 E= -706.371365984313     Delta-E=       -0.000051927323 Rises=F Damp=F
 DIIS: error= 1.36D-04 at cycle   5 NSaved=   5.
 NSaved= 5 IEnMin= 5 EnMin= -706.371365984313     IErMin= 5 ErrMin= 1.36D-04
 ErrMax= 1.36D-04  0.00D+00 EMaxC= 1.00D-01 BMatC= 7.22D-06 BMatP= 5.69D-05
 IDIUse=3 WtCom= 9.99D-01 WtEn= 1.36D-03
 Coeff-Com: -0.495D-02 0.585D-01 0.447D-01 0.285D+00 0.617D+00
 Coeff-En:   0.000D+00 0.000D+00 0.000D+00 0.388D-01 0.961D+00
 Coeff:     -0.495D-02 0.584D-01 0.447D-01 0.285D+00 0.617D+00
 Gap=     0.122 Goal=   None    Shift=    0.000
 RMSDP=4.73D-05 MaxDP=8.62D-04 DE=-5.19D-05 OVMax= 3.01D-03

 Cycle   6  Pass 1  IDiag  1:
 E= -706.371374046437     Delta-E=       -0.000008062124 Rises=F Damp=F
 DIIS: error= 7.60D-05 at cycle   6 NSaved=   6.
 NSaved= 6 IEnMin= 6 EnMin= -706.371374046437     IErMin= 6 ErrMin= 7.60D-05
 ErrMax= 7.60D-05  0.00D+00 EMaxC= 1.00D-01 BMatC= 1.70D-06 BMatP= 7.22D-06
 IDIUse=1 WtCom= 1.00D+00 WtEn= 0.00D+00
 Coeff-Com: -0.237D-02 0.162D-01 0.156D-01 0.125D+00 0.388D+00 0.458D+00
 Coeff:     -0.237D-02 0.162D-01 0.156D-01 0.125D+00 0.388D+00 0.458D+00
 Gap=     0.122 Goal=   None    Shift=    0.000
 RMSDP=1.82D-05 MaxDP=5.38D-04 DE=-8.06D-06 OVMax= 7.72D-04

 Cycle   7  Pass 1  IDiag  1:
 E= -706.371376113231     Delta-E=       -0.000002066794 Rises=F Damp=F
 DIIS: error= 2.33D-05 at cycle   7 NSaved=   7.
 NSaved= 7 IEnMin= 7 EnMin= -706.371376113231     IErMin= 7 ErrMin= 2.33D-05
 ErrMax= 2.33D-05  0.00D+00 EMaxC= 1.00D-01 BMatC= 9.88D-08 BMatP= 1.70D-06
 IDIUse=1 WtCom= 1.00D+00 WtEn= 0.00D+00
 Coeff-Com: -0.263D-03-0.132D-02 0.109D-02 0.267D-01 0.145D+00 0.225D+00
 Coeff-Com:  0.604D+00
 Coeff:     -0.263D-03-0.132D-02 0.109D-02 0.267D-01 0.145D+00 0.225D+00
 Coeff:      0.604D+00
 Gap=     0.122 Goal=   None    Shift=    0.000
 RMSDP=5.74D-06 MaxDP=1.97D-04 DE=-2.07D-06 OVMax= 3.04D-04

 Cycle   8  Pass 1  IDiag  1:
 E= -706.371376211729     Delta-E=       -0.000000098498 Rises=F Damp=F
 DIIS: error= 1.19D-05 at cycle   8 NSaved=   8.
 NSaved= 8 IEnMin= 8 EnMin= -706.371376211729     IErMin= 8 ErrMin= 1.19D-05
 ErrMax= 1.19D-05  0.00D+00 EMaxC= 1.00D-01 BMatC= 2.94D-08 BMatP= 9.88D-08
 IDIUse=1 WtCom= 1.00D+00 WtEn= 0.00D+00
 Coeff-Com:  0.133D-03-0.277D-02-0.188D-02-0.243D-02 0.314D-01 0.425D-01
 Coeff-Com:  0.370D+00 0.563D+00
 Coeff:      0.133D-03-0.277D-02-0.188D-02-0.243D-02 0.314D-01 0.425D-01
 Coeff:      0.370D+00 0.563D+00
 Gap=     0.122 Goal=   None    Shift=    0.000
 RMSDP=2.30D-06 MaxDP=4.90D-05 DE=-9.85D-08 OVMax= 1.06D-04

 Cycle   9  Pass 1  IDiag  1:
 E= -706.371376245242     Delta-E=       -0.000000033514 Rises=F Damp=F
 DIIS: error= 4.95D-06 at cycle   9 NSaved=   9.
 NSaved= 9 IEnMin= 9 EnMin= -706.371376245242     IErMin= 9 ErrMin= 4.95D-06
 ErrMax= 4.95D-06  0.00D+00 EMaxC= 1.00D-01 BMatC= 3.93D-09 BMatP= 2.94D-08
 IDIUse=1 WtCom= 1.00D+00 WtEn= 0.00D+00
 Coeff-Com:  0.103D-03-0.175D-02-0.153D-02-0.413D-02 0.886D-02 0.404D-02
 Coeff-Com:  0.197D+00 0.359D+00 0.438D+00
 Coeff:      0.103D-03-0.175D-02-0.153D-02-0.413D-02 0.886D-02 0.404D-02
 Coeff:      0.197D+00 0.359D+00 0.438D+00
 Gap=     0.122 Goal=   None    Shift=    0.000
 RMSDP=5.95D-07 MaxDP=1.25D-05 DE=-3.35D-08 OVMax= 2.69D-05

 Cycle  10  Pass 1  IDiag  1:
 E= -706.371376249321     Delta-E=       -0.000000004079 Rises=F Damp=F
 DIIS: error= 1.63D-06 at cycle  10 NSaved=  10.
 NSaved=10 IEnMin=10 EnMin= -706.371376249321     IErMin=10 ErrMin= 1.63D-06
 ErrMax= 1.63D-06  0.00D+00 EMaxC= 1.00D-01 BMatC= 4.93D-10 BMatP= 3.93D-09
 IDIUse=1 WtCom= 1.00D+00 WtEn= 0.00D+00
 Coeff-Com:  0.372D-04-0.320D-03-0.522D-03-0.183D-02-0.183D-02-0.117D-01
 Coeff-Com:  0.226D-01 0.683D-01 0.265D+00 0.660D+00
 Coeff:      0.372D-04-0.320D-03-0.522D-03-0.183D-02-0.183D-02-0.117D-01
 Coeff:      0.226D-01 0.683D-01 0.265D+00 0.660D+00
 Gap=     0.122 Goal=   None    Shift=    0.000
 RMSDP=1.90D-07 MaxDP=4.66D-06 DE=-4.08D-09 OVMax= 7.35D-06

 Cycle  11  Pass 1  IDiag  1:
 E= -706.371376249810     Delta-E=       -0.000000000489 Rises=F Damp=F
 DIIS: error= 2.85D-07 at cycle  11 NSaved=  11.
 NSaved=11 IEnMin=11 EnMin= -706.371376249810     IErMin=11 ErrMin= 2.85D-07
 ErrMax= 2.85D-07  0.00D+00 EMaxC= 1.00D-01 BMatC= 1.04D-11 BMatP= 4.93D-10
 IDIUse=1 WtCom= 1.00D+00 WtEn= 0.00D+00
 Coeff-Com:  0.781D-05-0.239D-04-0.107D-03-0.482D-03-0.106D-02-0.456D-02
 Coeff-Com: -0.258D-02 0.854D-02 0.681D-01 0.238D+00 0.694D+00
 Coeff:      0.781D-05-0.239D-04-0.107D-03-0.482D-03-0.106D-02-0.456D-02
 Coeff:     -0.258D-02 0.854D-02 0.681D-01 0.238D+00 0.694D+00
 Gap=     0.122 Goal=   None    Shift=    0.000
 RMSDP=6.38D-08 MaxDP=1.73D-06 DE=-4.89D-10 OVMax= 2.36D-06

 Cycle  12  Pass 1  IDiag  1:
 E= -706.371376249820     Delta-E=       -0.000000000010 Rises=F Damp=F
 DIIS: error= 8.46D-08 at cycle  12 NSaved=  12.
 NSaved=12 IEnMin=12 EnMin= -706.371376249820     IErMin=12 ErrMin= 8.46D-08
 ErrMax= 8.46D-08  0.00D+00 EMaxC= 1.00D-01 BMatC= 1.81D-12 BMatP= 1.04D-11
 IDIUse=1 WtCom= 1.00D+00 WtEn= 0.00D+00
 Coeff-Com:  0.476D-06 0.164D-04 0.412D-05-0.597D-04-0.280D-03-0.885D-03
 Coeff-Com: -0.344D-02-0.105D-02 0.492D-02 0.443D-01 0.317D+00 0.640D+00
 Coeff:      0.476D-06 0.164D-04 0.412D-05-0.597D-04-0.280D-03-0.885D-03
 Coeff:     -0.344D-02-0.105D-02 0.492D-02 0.443D-01 0.317D+00 0.640D+00
 Gap=     0.122 Goal=   None    Shift=    0.000
 RMSDP=1.46D-08 MaxDP=3.79D-07 DE=-9.89D-12 OVMax= 5.31D-07

 Cycle  13  Pass 1  IDiag  1:
 E= -706.371376249822     Delta-E=       -0.000000000002 Rises=F Damp=F
 DIIS: error= 2.46D-08 at cycle  13 NSaved=  13.
 NSaved=13 IEnMin=13 EnMin= -706.371376249822     IErMin=13 ErrMin= 2.46D-08
 ErrMax= 2.46D-08  0.00D+00 EMaxC= 1.00D-01 BMatC= 7.85D-14 BMatP= 1.81D-12
 IDIUse=1 WtCom= 1.00D+00 WtEn= 0.00D+00
 Coeff-Com: -0.563D-06 0.634D-05 0.118D-04 0.206D-04 0.115D-04 0.158D-03
 Coeff-Com: -0.851D-03-0.500D-03-0.490D-02-0.947D-02 0.349D-01 0.183D+00
 Coeff-Com:  0.798D+00
 Coeff:     -0.563D-06 0.634D-05 0.118D-04 0.206D-04 0.115D-04 0.158D-03
 Coeff:     -0.851D-03-0.500D-03-0.490D-02-0.947D-02 0.349D-01 0.183D+00
 Coeff:      0.798D+00
 Gap=     0.122 Goal=   None    Shift=    0.000
 RMSDP=7.03D-09 MaxDP=2.66D-07 DE=-2.39D-12 OVMax= 2.65D-07

 Error on total polarization charges =  0.02602
 SCF Done:  E(RB3LYP) =  -706.371376250     A.U. after   13 cycles
            NFock= 13  Conv=0.70D-08     -V/T= 2.0061
 KE= 7.021115512849D+02 PE=-2.100191844635D+03 EE= 4.799599452912D+02
 SMD-CDS (non-electrostatic) energy       (kcal/mol) =       0.57
 (included in total energy above)
 Leave Link  502 at Wed Jan  8 01:56:46 2020, MaxMem=  4294967296 cpu:             509.5 elap:              38.1
 (Enter /home/cwagen/sw/g16/g16/l701.exe)
 ... and contract with generalized density number  0.
 Compute integral first derivatives.
 D1PCM: PCM CHGder 1st derivatives, ID1Alg=3 FixD1E=F DoIter=F DoCFld=F I1PDM=0.
 GePol: Maximum number of non-zero 1st derivatives   =     403
 Leave Link  701 at Wed Jan  8 01:56:51 2020, MaxMem=  4294967296 cpu:              70.4 elap:               4.8
 (Enter /home/cwagen/sw/g16/g16/l702.exe)
 L702 exits ... SP integral derivatives will be done elsewhere.
 Leave Link  702 at Wed Jan  8 01:56:51 2020, MaxMem=  4294967296 cpu:               2.0 elap:               0.2
 (Enter /home/cwagen/sw/g16/g16/l703.exe)
 Integral derivatives from FoFJK, PRISM(SPDF).
 Compute integral first derivatives, UseDBF=F ICtDFT=           0.
 Calling FoFJK, ICntrl=      2127 FMM=F ISym2X=0 I1Cent= 0 IOpClX= 0 NMat=1 NMatS=1 NMatT=0.
 FoFJK:  IHMeth= 1 ICntrl=    2127 DoSepK=F KAlg= 0 I1Cent=           0 FoldK=F
 IRaf=         0 NMat=       1 IRICut=       1 DoRegI=T DoRafI=F ISym2E= 0 IDoP0=0 IntGTp=1.
 FoFCou: FMM=F IPFlag=           0 FMFlag=      100000 FMFlg1=         800
         NFxFlg=           0 DoJE=F BraDBF=F KetDBF=F FulRan=T
         wScrn=  0.000000 ICntrl=      2127 IOpCl=  0 I1Cent=           0 NGrid=           0
         NMat0=    1 NMatS0=      1 NMatT0=    0 NMatD0=    1 NMtDS0=    0 NMtDT0=    0
 Symmetry not used in FoFCou.
 Leave Link  703 at Wed Jan  8 01:56:53 2020, MaxMem=  4294967296 cpu:              24.9 elap:               1.6
 (Enter /home/cwagen/sw/g16/g16/l716.exe)
 Dipole        =-1.40847971D+00 4.05723724D+00-8.26404195D-01
 ***** Axes restored to original set *****
 -------------------------------------------------------------------
 Center     Atomic                   Forces (Hartrees/Bohr)
 Number     Number              X              Y              Z
 -------------------------------------------------------------------
      1        6          -0.005422091   -0.045236048   -0.058189641
      2        8           0.003717212    0.037944951    0.056705391
      3        6           0.000736633    0.022686536    0.013729298
      4        1          -0.000188438    0.000081933   -0.002271927
      5        1          -0.000424878    0.001935223   -0.001349486
      6        1           0.001820328    0.002011471   -0.002317582
      7       17           0.012626860   -0.015726436   -0.004609402
      8        6          -0.016726653   -0.004862018   -0.002274198
      9        7           0.003861028    0.001164388    0.000577546
 -------------------------------------------------------------------
 Cartesian Forces:  Max     0.058189641 RMS     0.020737747
 Leave Link  716 at Wed Jan  8 01:56:53 2020, MaxMem=  4294967296 cpu:               1.5 elap:               0.1
 (Enter /home/cwagen/sw/g16/g16/l103.exe)

 GradGradGradGradGradGradGradGradGradGradGradGradGradGradGradGradGradGrad
 Berny optimization.
 Using GEDIIS/GDIIS optimizer.
 FormGI is forming the generalized inverse of G from B-inverse, IUseBI=4.
 Internal  Forces:  Max     0.062488253 RMS     0.015818692
 Search for a local minimum.
 Step number   2 out of a maximum of   41
 All quantities printed in internal units (Hartrees-Bohrs-Radians)
 RMS Force = .15702D-01 SwitMx=.10000D-02 MixMth= 1
 Mixed Optimization -- RFO/linear search
 Update second derivatives using D2CorX and points    1    2
 DE= -3.92D-02 DEPred=-3.02D-02 R= 1.30D+00
 TightC=F SS=  1.41D+00  RLast= 3.13D-01 DXNew= 5.0454D-01 9.3967D-01
 Trust test= 1.30D+00 RLast= 3.13D-01 DXMaxT set to 5.05D-01
 ITU=  1  0
 Use linear search instead of GDIIS.
     Eigenvalues ---    0.00230   0.04746   0.04747   0.05539   0.05824
     Eigenvalues ---    0.06207   0.09497   0.15626   0.16000   0.16016
     Eigenvalues ---    0.17297   0.25000   0.25092   0.26953   0.33922
     Eigenvalues ---    0.34000   0.34279   0.65866   1.221071000.00000
     Eigenvalues --- 1000.000001000.000001000.000001000.000001000.00000
     Eigenvalues --- 1000.000001000.000001000.000001000.000001000.00000
     Eigenvalues --- 1000.00000
 RFO step:  Lambda=-3.57757383D-03 EMin= 2.30006826D-03
 Quartic linear search produced a step of  0.62070.
 Iteration  1 RMS(Cart)=  0.07446612 RMS(Int)=  0.00455338
 Iteration  2 RMS(Cart)=  0.00510882 RMS(Int)=  0.00136124
 Iteration  3 RMS(Cart)=  0.00001282 RMS(Int)=  0.00136122
 Iteration  4 RMS(Cart)=  0.00000006 RMS(Int)=  0.00136122
 Iteration  1 RMS(Cart)=  0.00000000 RMS(Int)=  0.00000000
 ITry= 1 IFail=0 DXMaxC= 2.03D-01 DCOld= 1.00D+10 DXMaxT= 5.05D-01 DXLimC= 3.00D+00 Rises=F
 Variable       Old X    -DE/DX   Delta X   Delta X   Delta X     New X
                                 (Linear)    (Quad)   (Total)
    R1        2.25316  -0.06249  -0.12359   0.01085  -0.11274   2.14042
    R2        2.87976  -0.01348  -0.04051  -0.00733  -0.04784   2.83192
    R3        5.29123  -0.02066   0.00000   0.00000   0.00000   5.29123
    R4        5.10226  -0.01341   0.00000   0.00000   0.00000   5.10226
    R5        2.06310  -0.00206  -0.00634   0.00054  -0.00580   2.05730
    R6        2.07077  -0.00021  -0.00243   0.00293   0.00050   2.07127
    R7        2.06645   0.00027  -0.00139   0.00352   0.00213   2.06858
    R8        2.21958   0.00406   0.00642  -0.00195   0.00448   2.22406
    A1        2.17689   0.04639   0.11186   0.09735   0.20790   2.38479
    A2        1.96336  -0.01641  -0.03459  -0.03632  -0.07061   1.89275
    A3        1.85992  -0.01059  -0.02015  -0.01421  -0.03760   1.82233
    A4        1.87416  -0.01626  -0.03105  -0.05045  -0.08209   1.79207
    A5        1.74568  -0.00843  -0.01630  -0.02298  -0.04299   1.70269
    A6        1.79308  -0.00133  -0.02589   0.01994  -0.01049   1.78259
    A7        1.96525  -0.00012  -0.00542   0.01230   0.00677   1.97202
    A8        1.85449  -0.00258  -0.01548   0.01146  -0.00423   1.85026
    A9        1.86096  -0.00450  -0.02510   0.01473  -0.01063   1.85033
   A10        1.92253   0.00159   0.01177  -0.01079   0.00090   1.92343
   A11        1.93144   0.00218   0.01432  -0.01168   0.00247   1.93391
   A12        1.92698   0.00318   0.01951  -0.01485   0.00425   1.93124
   A13        3.09022   0.00007  -0.00098   0.00762   0.00664   3.09686
   A14        2.87263   0.00053   0.00475  -0.00905  -0.00430   2.86833
    D1        3.04120   0.00011  -0.00242  -0.00786  -0.00956   3.03164
    D2       -1.13591   0.00031  -0.00145  -0.00642  -0.00727  -1.14318
    D3        0.91979   0.00051   0.00040  -0.01072  -0.00954   0.91025
    D4       -0.88918   0.00434   0.02338  -0.02317  -0.00126  -0.89045
    D5        1.21690   0.00453   0.02435  -0.02172   0.00103   1.21792
    D6       -3.01059   0.00474   0.02620  -0.02602  -0.00124  -3.01183
    D7        0.97572  -0.00485  -0.02203  -0.02439  -0.04559   0.93014
    D8        3.08180  -0.00466  -0.02105  -0.02294  -0.04330   3.03850
    D9       -1.14568  -0.00446  -0.01920  -0.02724  -0.04557  -1.19125
         Item               Value     Threshold  Converged?
 Maximum Force            0.062488     0.000450     NO 
 RMS     Force            0.015702     0.000300     NO 
 Maximum Displacement     0.203124     0.001800     NO 
 RMS     Displacement     0.075096     0.001200     NO 
 Predicted change in Energy=-1.493857D-02
 Lowest energy point so far.  Saving SCF results.
 GradGradGradGradGradGradGradGradGradGradGradGradGradGradGradGradGradGrad

 Leave Link  103 at Wed Jan  8 01:56:57 2020, MaxMem=  4294967296 cpu:              57.0 elap:               4.0
 (Enter /home/cwagen/sw/g16/g16/l202.exe)
                          Input orientation:                          
 ---------------------------------------------------------------------
 Center     Atomic      Atomic             Coordinates (Angstroms)
 Number     Number       Type             X           Y           Z
 ---------------------------------------------------------------------
      1          6           0       -0.204892   -0.438765   -0.311834
      2          8           0       -0.225346   -0.478547   -1.443613
      3          6           0       -0.318455   -1.420052    0.815086
      4          1           0       -0.135510   -0.971100    1.789862
      5          1           0       -1.338367   -1.818629    0.767293
      6          1           0        0.413592   -2.206500    0.605669
      7         17           0       -1.857142    1.658799    0.530955
      8          6           0        2.254926    0.502130    0.283153
      9          7           0        3.388443    0.807966    0.365275
 ---------------------------------------------------------------------
                    Distance matrix (angstroms):
                    1          2          3          4          5
     1  C    0.000000
     2  O    1.132663   0.000000
     3  C    1.498589   2.448841   0.000000
     4  H    2.169176   3.272009   1.088676   0.000000
     5  H    2.086458   2.814737   1.096069   1.791875   0.000000
     6  H    2.085478   2.755653   1.094645   1.797230   1.801645
     7  Cl   2.800000   3.336154   3.453637   3.386035   3.523845
     8  C    2.700000   3.177295   3.255769   3.186654   4.304889
     9  N    3.863272   4.241069   4.348275   4.196757   5.422486
                    6          7          8          9
     6  H    0.000000
     7  Cl   4.483564   0.000000
     8  C    3.291080   4.278831   0.000000
     9  N    4.241997   5.316722   1.176920   0.000000
 Stoichiometry    C3H3ClNO(1-)
 Framework group  C1[X(C3H3ClNO)]
 Deg. of freedom    21
 Full point group                 C1      NOp   1
 RotChk:  IX=0 Diff= 4.09D-02
 Largest Abelian subgroup         C1      NOp   1
 Largest concise Abelian subgroup C1      NOp   1
                         Standard orientation:                         
 ---------------------------------------------------------------------
 Center     Atomic      Atomic             Coordinates (Angstroms)
 Number     Number       Type             X           Y           Z
 ---------------------------------------------------------------------
      1          6           0       -0.029016    0.867071    0.270693
      2          8           0        0.003036    1.168886    1.361933
      3          6           0        0.006867    1.565860   -1.054515
      4          1           0        0.060431    0.877949   -1.896610
      5          1           0       -0.913086    2.159283   -1.108407
      6          1           0        0.885836    2.217768   -1.028493
      7         17           0       -2.090262   -0.996582   -0.072909
      8          6           0        2.174900   -0.654857   -0.070607
      9          7           0        3.222926   -1.190377   -0.070845
 ---------------------------------------------------------------------
 Rotational constants (GHZ):           2.8067958           1.2445517           1.0372571
 Leave Link  202 at Wed Jan  8 01:56:57 2020, MaxMem=  4294967296 cpu:               0.1 elap:               0.0
 (Enter /home/cwagen/sw/g16/g16/l301.exe)
 Standard basis: 6-31+G(d) (6D, 7F)
 Ernie: Thresh=  0.10000D-02 Tol=  0.10000D-05 Strict=F.
 There are   124 symmetry adapted cartesian basis functions of A   symmetry.
 There are   124 symmetry adapted basis functions of A   symmetry.
   124 basis functions,   228 primitive gaussians,   124 cartesian basis functions
    27 alpha electrons       27 beta electrons
       nuclear repulsion energy       214.8776416733 Hartrees.
 IExCor=  402 DFT=T Ex+Corr=B3LYP ExCW=0 ScaHFX=  0.200000
 ScaDFX=  0.800000  0.720000  1.000000  0.810000 ScalE2=  1.000000  1.000000
 IRadAn=      5 IRanWt=     -1 IRanGd=            0 ICorTp=0 IEmpDi=  4
 NAtoms=    9 NActive=    9 NUniq=    9 SFac= 1.00D+00 NAtFMM=   60 NAOKFM=F Big=F
 Integral buffers will be    131072 words long.
 Raffenetti 2 integral format.
 Two-electron integral symmetry is turned on.
 ------------------------------------------------------------------------------
 Polarizable Continuum Model (PCM)
 =================================
 Model                : PCM.
 Atomic radii         : SMD-Coulomb.
 Polarization charges : Total charges.
 Charge compensation  : None.
 Solution method      : On-the-fly selection.
 Cavity type          : VdW (van der Waals Surface) (Alpha=1.000).
 Cavity algorithm     : GePol (No added spheres)
                        Default sphere list used, NSphG=    9.
                        Lebedev-Laikov grids with approx.  5.0 points / Ang**2.
                        Smoothing algorithm: York/Karplus (Gamma=1.0000).
                        Polarization charges: spherical gaussians, with
                                              point-specific exponents (IZeta= 3).
                        Self-potential: point-specific (ISelfS= 7).
                        Self-field    : sphere-specific E.n sum rule (ISelfD= 2).
 1st derivatives      : Analytical E(r).r(x)/FMM algorithm (CHGder, D1EAlg=3).
                        Cavity 1st derivative terms included.
 Solvent              : TetraHydroFuran, Eps=   7.425700 Eps(inf)=   1.974025
 ------------------------------------------------------------------------------
 Spheres list:
 ISph  on   Nord     Re0    Alpha      Xe            Ye            Ze
    1   C      1    1.8500  1.000     -0.029016      0.867071      0.270693
    2   O      2    2.2940  1.000      0.003036      1.168886      1.361933
    3   C      3    1.8500  1.000      0.006867      1.565860     -1.054515
    4   H      4    1.2000  1.000      0.060431      0.877949     -1.896610
    5   H      5    1.2000  1.000     -0.913086      2.159283     -1.108407
    6   H      6    1.2000  1.000      0.885836      2.217768     -1.028493
    7  Cl      7    2.3800  1.000     -2.090262     -0.996582     -0.072909
    8   C      8    1.8500  1.000      2.174900     -0.654857     -0.070607
    9   N      9    1.8900  1.000      3.222926     -1.190377     -0.070845
 ------------------------------------------------------------------------------
 GePol: Number of generator spheres                  =       9
 GePol: Total number of spheres                      =       9
 GePol: Number of exposed spheres                    =       9 (100.00%)
[...]
                                                      8    9   10   11   12
                                                     13   14   15
 DE= -7.79D-07 DEPred=-4.74D-08 R= 1.64D+01
 Trust test= 1.64D+01 RLast= 2.78D-03 DXMaxT set to 8.48D-01
 ITU=  0  1  1  1  1  1  1  1  1  1  1  1  1  1  0
     Eigenvalues ---    0.00270   0.00734   0.01267   0.01491   0.05810
     Eigenvalues ---    0.06011   0.06143   0.08133   0.13708   0.15997
     Eigenvalues ---    0.16334   0.17103   0.20722   0.31492   0.33843
     Eigenvalues ---    0.34027   0.34512   1.20335   1.220581000.00000
     Eigenvalues --- 1000.000001000.000001000.000001000.000001000.00000
     Eigenvalues --- 1000.000001000.000001000.000001000.000001000.00000
     Eigenvalues --- 1000.00000
 En-DIIS/RFO-DIIS/Sim-DIIS IScMMF=       -3 using points:    15   14   13   12   11   10    9    8    7    6
 RFO step:  Lambda=-1.17448290D-07.
 NNeg= 0 NGDIIS=10 SimSw=  2.50D-01 Rises=F DC= -7.79D-07 SmlDif=  1.00D-05
 NRisDI= 0 DoIntr=F SqrtH=F CThrHd= 10.0 CDAdj=  3.0
 RMS Error=  0.2013826694D-03 NUsed=10 OKEnD=F EnDIS=F
 InvSVX:  RCond= 2.69D-10 Info=           0 Equed=N FErr=  1.95D-10 BErr=  5.16D-17
 DIIS inversion failure, remove point  10.
 InvSVX:  RCond= 3.47D-10 Info=           0 Equed=N FErr=  7.19D-11 BErr=  8.22D-17
 DIIS inversion failure, remove point   9.
 InvSVX:  RCond= 4.08D-10 Info=           0 Equed=N FErr=  8.52D-11 BErr=  8.08D-17
 DIIS inversion failure, remove point   8.
 InvSVX:  RCond= 5.81D-10 Info=           0 Equed=N FErr=  6.72D-11 BErr=  1.10D-16
 DIIS inversion failure, remove point   7.
 InvSVX:  RCond= 8.93D-09 Info=           0 Equed=N FErr=  7.09D-13 BErr=  6.26D-17
 DIIS inversion failure, remove point   6.
 InvSVX:  RCond= 1.55D-08 Info=           0 Equed=N FErr=  4.83D-13 BErr=  8.69D-17
 DIIS inversion failure, remove point   5.
 InvSVX:  RCond= 8.81D-08 Info=           0 Equed=N FErr=  2.52D-14 BErr=  3.77D-17
 DIIS inversion failure, remove point   4.
 InvSVX:  RCond= 1.18D-07 Info=           0 Equed=N FErr=  2.30D-14 BErr=  7.63D-17
 RFO-DIIS uses    3 points instead of   10
 DidBck=F Rises=F RFO-DIIS coefs:    1.65896   -0.76303    0.10407    0.00000    0.00000
                  RFO-DIIS coefs:    0.00000    0.00000    0.00000    0.00000    0.00000
 Iteration  1 RMS(Cart)=  0.00044831 RMS(Int)=  0.00000007
 Iteration  2 RMS(Cart)=  0.00000009 RMS(Int)=  0.00000002
 Iteration  1 RMS(Cart)=  0.00000000 RMS(Int)=  0.00000000
 ITry= 1 IFail=0 DXMaxC= 1.04D-03 DCOld= 1.00D+10 DXMaxT= 8.48D-01 DXLimC= 3.00D+00 Rises=F
 Variable       Old X    -DE/DX   Delta X   Delta X   Delta X     New X
                                 (Linear)    (Quad)   (Total)
    R1        2.15608  -0.00002  -0.00001   0.00001  -0.00001   2.15607
    R2        2.74331  -0.00001   0.00002   0.00000   0.00002   2.74333
    R3        5.29123  -0.00711   0.00000   0.00000   0.00000   5.29123
    R4        5.10226  -0.00523   0.00000   0.00000   0.00000   5.10226
    R5        2.05561  -0.00001  -0.00001  -0.00002  -0.00002   2.05558
    R6        2.07337   0.00000   0.00000   0.00000   0.00000   2.07337
    R7        2.07421   0.00000   0.00000   0.00000   0.00000   2.07421
    R8        2.22552   0.00000   0.00000   0.00000   0.00000   2.22552
    A1        2.74121  -0.00001  -0.00001  -0.00002  -0.00003   2.74118
    A2        1.78502   0.00002  -0.00002   0.00013   0.00010   1.78513
    A3        1.75983   0.00004   0.00032   0.00017   0.00049   1.76032
    A4        1.62358  -0.00002  -0.00007  -0.00013  -0.00020   1.62338
    A5        1.59085  -0.00004  -0.00024  -0.00015  -0.00039   1.59046
    A6        1.84637   0.00000   0.00007  -0.00003   0.00005   1.84642
    A7        1.93035   0.00001   0.00003   0.00001   0.00004   1.93039
    A8        1.86355  -0.00001  -0.00003  -0.00002  -0.00005   1.86350
    A9        1.86000   0.00000   0.00000  -0.00001  -0.00001   1.85999
   A10        1.93186   0.00000   0.00002   0.00001   0.00002   1.93189
   A11        1.93353   0.00000  -0.00001   0.00001   0.00000   1.93353
   A12        1.94211   0.00000   0.00000   0.00000  -0.00001   1.94210
   A13        3.12783   0.00000  -0.00062   0.00029  -0.00033   3.12751
   A14        3.03790   0.00000   0.00015   0.00005   0.00020   3.03810
    D1        3.06983   0.00000   0.00036   0.00009   0.00045   3.07028
    D2       -1.11030   0.00000   0.00038   0.00009   0.00047  -1.10983
    D3        0.96693   0.00000   0.00037   0.00007   0.00044   0.96737
    D4       -0.90699   0.00000   0.00004   0.00006   0.00010  -0.90689
    D5        1.19606   0.00000   0.00006   0.00007   0.00013   1.19618
    D6       -3.00989   0.00000   0.00004   0.00005   0.00009  -3.00980
    D7        0.94093   0.00000   0.00010   0.00002   0.00012   0.94105
    D8        3.04398   0.00000   0.00012   0.00003   0.00014   3.04412
    D9       -1.16197   0.00000   0.00010   0.00001   0.00011  -1.16186
         Item               Value     Threshold  Converged?
 Maximum Force            0.000043     0.000450     YES
 RMS     Force            0.000013     0.000300     YES
 Maximum Displacement     0.001039     0.001800     YES
 RMS     Displacement     0.000448     0.001200     YES
 Predicted change in Energy=-1.945416D-08
 Optimization completed.
    -- Stationary point found.
                           ----------------------------
                           !   Optimized Parameters   !
                           ! (Angstroms and Degrees)  !
 --------------------------                            --------------------------
 ! Name  Definition              Value          Derivative Info.                !
 --------------------------------------------------------------------------------
 ! R1    R(1,2)                  1.1409         -DE/DX =    0.0                 !
 ! R2    R(1,3)                  1.4517         -DE/DX =    0.0                 !
 ! R3    R(1,7)                  2.8            -DE/DX =   -0.0071              !
 ! R4    R(1,8)                  2.7            -DE/DX =   -0.0052              !
 ! R5    R(3,4)                  1.0878         -DE/DX =    0.0                 !
 ! R6    R(3,5)                  1.0972         -DE/DX =    0.0                 !
 ! R7    R(3,6)                  1.0976         -DE/DX =    0.0                 !
 ! R8    R(8,9)                  1.1777         -DE/DX =    0.0                 !
 ! A1    A(2,1,3)              157.0597         -DE/DX =    0.0                 !
 ! A2    A(2,1,7)              102.2742         -DE/DX =    0.0                 !
 ! A3    A(2,1,8)              100.8308         -DE/DX =    0.0                 !
 ! A4    A(3,1,7)               93.0241         -DE/DX =    0.0                 !
 ! A5    A(3,1,8)               91.1489         -DE/DX =    0.0                 !
 ! A6    A(7,1,8)              105.7893         -DE/DX =    0.0                 !
 ! A7    A(1,3,4)              110.6011         -DE/DX =    0.0                 !
 ! A8    A(1,3,5)              106.7734         -DE/DX =    0.0                 !
 ! A9    A(1,3,6)              106.5703         -DE/DX =    0.0                 !
 ! A10   A(4,3,5)              110.6876         -DE/DX =    0.0                 !
 ! A11   A(4,3,6)              110.7832         -DE/DX =    0.0                 !
 ! A12   A(5,3,6)              111.2746         -DE/DX =    0.0                 !
 ! A13   L(1,8,9,6,-1)         179.2115         -DE/DX =    0.0                 !
 ! A14   L(1,8,9,6,-2)         174.0589         -DE/DX =    0.0                 !
 ! D1    D(2,1,3,4)            175.8885         -DE/DX =    0.0                 !
 ! D2    D(2,1,3,5)            -63.6157         -DE/DX =    0.0                 !
 ! D3    D(2,1,3,6)             55.4012         -DE/DX =    0.0                 !
 ! D4    D(7,1,3,4)            -51.9669         -DE/DX =    0.0                 !
 ! D5    D(7,1,3,5)             68.529          -DE/DX =    0.0                 !
 ! D6    D(7,1,3,6)           -172.4541         -DE/DX =    0.0                 !
 ! D7    D(8,1,3,4)             53.9114         -DE/DX =    0.0                 !
 ! D8    D(8,1,3,5)            174.4073         -DE/DX =    0.0                 !
 ! D9    D(8,1,3,6)            -66.5759         -DE/DX =    0.0                 !
 --------------------------------------------------------------------------------
 Lowest energy point so far.  Saving SCF results.
 Largest change from initial coordinates is atom    4       0.214 Angstoms.
 GradGradGradGradGradGradGradGradGradGradGradGradGradGradGradGradGradGrad

 Leave Link  103 at Wed Jan  8 02:05:51 2020, MaxMem=  4294967296 cpu:              58.8 elap:               4.6
 (Enter /home/cwagen/sw/g16/g16/l202.exe)
                          Input orientation:                          
 ---------------------------------------------------------------------
 Center     Atomic      Atomic             Coordinates (Angstroms)
 Number     Number       Type             X           Y           Z
 ---------------------------------------------------------------------
      1          6           0       -0.219319   -0.523725   -0.404988
      2          8           0       -0.236215   -0.300249   -1.523708
      3          6           0       -0.285860   -1.334199    0.797563
      4          1           0       -0.082688   -0.729306    1.678523
      5          1           0       -1.298613   -1.754035    0.840803
      6          1           0        0.468149   -2.123864    0.684969
      7         17           0       -1.986746    1.395067    0.612084
      8          6           0        2.255071    0.337724    0.247161
      9          7           0        3.363471    0.667887    0.469440
 ---------------------------------------------------------------------
                    Distance matrix (angstroms):
                    1          2          3          4          5
     1  C    0.000000
     2  O    1.140948   0.000000
     3  C    1.451697   2.541617   0.000000
     4  H    2.098082   3.234493   1.087780   0.000000
     5  H    2.056826   2.972053   1.097179   1.797309   0.000000
     6  H    2.054523   2.949569   1.097624   1.798712   1.811769
     7  Cl   2.800000   3.240381   3.221228   3.045601   3.231514
     8  C    2.700000   3.122418   3.091051   2.941508   4.166118
     9  N    3.875687   4.227016   4.175359   3.910248   5.266749
                    6          7          8          9
     6  H    0.000000
     7  Cl   4.291235   0.000000
     8  C    3.073139   4.386816   0.000000
     9  N    4.027806   5.401292   1.177695   0.000000
 Stoichiometry    C3H3ClNO(1-)
 Framework group  C1[X(C3H3ClNO)]
 Deg. of freedom    21
 Full point group                 C1      NOp   1
 RotChk:  IX=2 Diff= 1.45D-15
 Largest Abelian subgroup         C1      NOp   1
 Largest concise Abelian subgroup C1      NOp   1
                         Standard orientation:                         
 ---------------------------------------------------------------------
 Center     Atomic      Atomic             Coordinates (Angstroms)
 Number     Number       Type             X           Y           Z
 ---------------------------------------------------------------------
      1          6           0       -0.019156    0.930644    0.231652
      2          8           0       -0.026142    1.154455    1.350411
      3          6           0        0.000096    1.223140   -1.190143
      4          1           0        0.062295    0.304342   -1.769114
      5          1           0       -0.929285    1.761033   -1.415361
      6          1           0        0.879383    1.855671   -1.367728
      7         17           0       -2.123168   -0.899263   -0.022466
      8          6           0        2.247153   -0.521449    0.018882
      9          7           0        3.274576   -1.094746   -0.033072
 ---------------------------------------------------------------------
 Rotational constants (GHZ):           3.1954082           1.1944879           1.0637079
 Leave Link  202 at Wed Jan  8 02:05:51 2020, MaxMem=  4294967296 cpu:               2.1 elap:               0.2
 (Enter /home/cwagen/sw/g16/g16/l601.exe)
 Copying SCF densities to generalized density rwf, IOpCl= 0 IROHF=0.

 **********************************************************************

            Population analysis using the SCF density.

 **********************************************************************

 Orbital symmetries:
       Occupied  (A) (A) (A) (A) (A) (A) (A) (A) (A) (A) (A) (A)
                 (A) (A) (A) (A) (A) (A) (A) (A) (A) (A) (A) (A)
                 (A) (A) (A)
       Virtual   (A) (A) (A) (A) (A) (A) (A) (A) (A) (A) (A) (A)
                 (A) (A) (A) (A) (A) (A) (A) (A) (A) (A) (A) (A)
                 (A) (A) (A) (A) (A) (A) (A) (A) (A) (A) (A) (A)
                 (A) (A) (A) (A) (A) (A) (A) (A) (A) (A) (A) (A)
                 (A) (A) (A) (A) (A) (A) (A) (A) (A) (A) (A) (A)
                 (A) (A) (A) (A) (A) (A) (A) (A) (A) (A) (A) (A)
                 (A) (A) (A) (A) (A) (A) (A) (A) (A) (A) (A) (A)
                 (A) (A) (A) (A) (A) (A) (A) (A) (A) (A) (A) (A)
                 (A)
 The electronic state is 1-A.
 Alpha  occ. eigenvalues -- -101.43566 -19.27509 -14.27324 -10.39242 -10.23575
 Alpha  occ. eigenvalues --  -10.14120  -9.34906  -7.10806  -7.10627  -7.10617
 Alpha  occ. eigenvalues --   -1.18071  -0.82961  -0.80761  -0.68790  -0.58273
 Alpha  occ. eigenvalues --   -0.51466  -0.51061  -0.50474  -0.43021  -0.42739
 Alpha  occ. eigenvalues --   -0.36338  -0.27831  -0.27812  -0.25184  -0.23640
 Alpha  occ. eigenvalues --   -0.22966  -0.22928
 Alpha virt. eigenvalues --   -0.07049  -0.04714   0.02125   0.04661   0.04916
 Alpha virt. eigenvalues --    0.05118   0.07343   0.07677   0.08602   0.09654
 Alpha virt. eigenvalues --    0.09868   0.10893   0.11195   0.12457   0.13234
 Alpha virt. eigenvalues --    0.13656   0.13676   0.15911   0.16707   0.18010
 Alpha virt. eigenvalues --    0.21207   0.21858   0.23577   0.24757   0.25315
 Alpha virt. eigenvalues --    0.25426   0.27555   0.28006   0.31318   0.32205
 Alpha virt. eigenvalues --    0.35344   0.39298   0.48563   0.52777   0.61987
 Alpha virt. eigenvalues --    0.63839   0.65786   0.67970   0.69192   0.71547
 Alpha virt. eigenvalues --    0.73435   0.74403   0.76483   0.80147   0.80948
 Alpha virt. eigenvalues --    0.83507   0.87257   0.93988   0.96334   0.97098
 Alpha virt. eigenvalues --    0.97608   0.98023   0.99338   0.99958   1.02434
 Alpha virt. eigenvalues --    1.02597   1.04972   1.14212   1.16962   1.18752
 Alpha virt. eigenvalues --    1.23210   1.23916   1.25663   1.37864   1.38843
 Alpha virt. eigenvalues --    1.42557   1.48029   1.50121   1.60074   1.60487
 Alpha virt. eigenvalues --    1.61890   1.62742   1.67101   1.81434   1.82942
 Alpha virt. eigenvalues --    1.84414   1.95620   2.02267   2.02418   2.03491
 Alpha virt. eigenvalues --    2.21150   2.23230   2.30405   2.50761   2.65650
 Alpha virt. eigenvalues --    2.65870   2.68680   2.72086   2.95235   3.08411
 Alpha virt. eigenvalues --    3.23167   4.01349   4.17623   4.28870   4.31605
 Alpha virt. eigenvalues --    4.40950   4.53603
          Condensed to atoms (all electrons):
               1          2          3          4          5          6
     1  C    5.163950   0.461749  -0.192614  -0.068189  -0.057589  -0.037362
     2  O    0.461749   7.770286   0.009447   0.005451  -0.000524  -0.002306
     3  C   -0.192614   0.009447   5.898676   0.405183   0.365730   0.362888
     4  H   -0.068189   0.005451   0.405183   0.369665  -0.016845  -0.017919
     5  H   -0.057589  -0.000524   0.365730  -0.016845   0.410275  -0.020022
     6  H   -0.037362  -0.002306   0.362888  -0.017919  -0.020022   0.412730
     7  Cl   0.103566  -0.041279  -0.041298  -0.006301  -0.006394   0.005297
     8  C    0.069641  -0.055929  -0.158751  -0.009605   0.014971  -0.013762
     9  N   -0.004202   0.000698  -0.000481  -0.000181  -0.000074  -0.000246
               7          8          9
     1  C    0.103566   0.069641  -0.004202
     2  O   -0.041279  -0.055929   0.000698
     3  C   -0.041298  -0.158751  -0.000481
     4  H   -0.006301  -0.009605  -0.000181
     5  H   -0.006394   0.014971  -0.000074
     6  H    0.005297  -0.013762  -0.000246
     7  Cl  17.838909  -0.048120  -0.000669
     8  C   -0.048120   5.813572   0.654902
     9  N   -0.000669   0.654902   7.004221
 Mulliken charges:
               1
     1  C    0.561051
     2  O   -0.147592
     3  C   -0.648780
     4  H    0.338742
     5  H    0.310475
     6  H    0.310702
     7  Cl  -0.803711
     8  C   -0.266919
     9  N   -0.653968
 Sum of Mulliken charges =  -1.00000
 Mulliken charges with hydrogens summed into heavy atoms:
               1
     1  C    0.561051
     2  O   -0.147592
     3  C    0.311138
     7  Cl  -0.803711
     8  C   -0.266919
     9  N   -0.653968
 Electronic spatial extent (au):  <R**2>=           1105.7786
 Charge=             -1.0000 electrons
 Dipole moment (field-independent basis, Debye):
    X=             -3.2499    Y=             10.6249    Z=             -2.8249  Tot=             11.4643
 Quadrupole moment (field-independent basis, Debye-Ang):
   XX=           -100.6240   YY=            -49.0156   ZZ=            -44.1094
   XY=              3.9673   XZ=              0.1438   YZ=             -3.8607
 Traceless Quadrupole moment (field-independent basis, Debye-Ang):
   XX=            -36.0410   YY=             15.5674   ZZ=             20.4736
   XY=              3.9673   XZ=              0.1438   YZ=             -3.8607
 Octapole moment (field-independent basis, Debye-Ang**2):
  XXX=            -92.4339  YYY=             36.4159  ZZZ=             -3.9894  XYY=            -10.7921
  XXY=             64.4438  XXZ=              1.5504  XZZ=             -3.7043  YZZ=              9.4944
  YYZ=             -4.6219  XYZ=             -0.2521
 Hexadecapole moment (field-independent basis, Debye-Ang**3):
 XXXX=          -1654.8850 YYYY=           -332.6940 ZZZZ=           -180.4425 XXXY=            111.7807
 XXXZ=              4.1540 YYYX=             19.8829 YYYZ=             -6.6136 ZZZX=             -0.1349
 ZZZY=             -3.2396 XXYY=           -305.5823 XXZZ=           -225.6105 YYZZ=            -82.4805
 XXYZ=             -4.1205 YYXZ=              0.3164 ZZXY=              2.4482
 N-N= 2.175162386894D+02 E-N=-2.111784103181D+03  KE= 7.023899599814D+02
 No NMR shielding tensors so no spin-rotation constants.
 Leave Link  601 at Wed Jan  8 02:05:52 2020, MaxMem=  4294967296 cpu:              14.5 elap:               1.1
 (Enter /home/cwagen/sw/g16/g16/l9999.exe)
 1\1\GINC-NODE042\FOpt\RB3LYP\6-31+G(d)\C3H3Cl1N1O1(1-)\CWAGEN\08-Jan-2
 020\0\\#p opt=modredundant b3lyp/6-31+g(d) scrf=(smd, solvent=tetrahyd
 rofuran)\\title\\-1,1\C,-0.2193188827,-0.5237254097,-0.4049881878\O,-0
 .2362150246,-0.3002492037,-1.5237083244\C,-0.2858596662,-1.3341986682,
 0.797562964\H,-0.0826880965,-0.7293055951,1.6785228248\H,-1.2986129977
 ,-1.7540352882,0.8408028791\H,0.4681491766,-2.1238643086,0.6849687973\
 Cl,-1.9867461911,1.3950670672,0.6120841321\C,2.2550710788,0.3377244547
 ,0.2471609119\N,3.3634708033,0.6678874416,0.469439893\\Version=AS64L-G
 16RevA.03\State=1-A\HF=-706.3928771\RMSD=7.963e-09\RMSF=2.240e-03\Dipo
 le=-1.9991844,-4.0116178,-0.504012\Quadrupole=-26.6163551,13.9031151,1
 2.71324,4.0759728,-0.1006606,-3.2371273\PG=C01 [X(C3H3Cl1N1O1)]\\@


 THEORY:  SUPPOSITION WHICH HAS SCIENTIFIC BASIS,
          BUT NOT EXPERIMENTALLY PROVEN.
 FACT:    A THEORY WHICH HAS BEEN PROVEN BY ENOUGH 
          MONEY TO PAY FOR THE EXPERIMENTS.

                          --  THE WIZARD OF ID
 Job cpu time:       0 days  2 hours 24 minutes 24.6 seconds.
 Elapsed time:       0 days  0 hours 10 minutes 43.2 seconds.
 File lengths (MBytes):  RWF=     43 Int=      0 D2E=      0 Chk=      3 Scr=      1
 Normal termination of Gaussian 16 at Wed Jan  8 02:05:53 2020.
