 Entering Gaussian System, Link 0=g16
 Input=scan_290_120.gjf
 Output=scan_290_120.out
 Initial command:
 /home/cwagen/sw/g16/g16/l1.exe "/scratch/users/cwagen/cwagen_scan_290_120/Gau-48573.inp" -scrdir="/scratch/users/cwagen/cwagen_scan_290_120/"
 Entering Link 1 = /home/cwagen/sw/g16/g16/l1.exe PID=     48574.
  
 Copyright (c) 1988,1990,1992,1993,1995,1998,2003,2009,2016,
            Gaussian, Inc.  All Rights Reserved.
  
 This is part of the Gaussian(R) 16 program.  It is based on
 the Gaussian(R) 09 system (copyright 2009, Gaussian, Inc.),
 the Gaussian(R) 03 system (copyright 2003, Gaussian, Inc.),
 the Gaussian(R) 98 system (copyright 1998, Gaussian, Inc.),
 the Gaussian(R) 94 system (copyright 1995, Gaussian, Inc.),
 the Gaussian 92(TM) system (copyright 1992, Gaussian, Inc.),
 the Gaussian 90(TM) system (copyright 1990, Gaussian, Inc.),
 the Gaussian 88(TM) system (copyright 1988, Gaussian, Inc.),
 the Gaussian 86(TM) system (copyright 1986, Carnegie Mellon
 University), and the Gaussian 82(TM) system (copyright 1983,
 Carnegie Mellon University). Gaussian is a federally registered
 trademark of Gaussian, Inc.
  
 This software contains proprietary and confidential information,
 including trade secrets, belonging to Gaussian, Inc.
  
 This software is provided under written license and may be
 used, copied, transmitted, or stored only in accord with that
 written license.
  
 The following legend is applicable only to US Government
 contracts under FAR:
  
                    RESTRICTED RIGHTS LEGEND
  
 Use, reproduction and disclosure by the US Government is
 subject to restrictions as set forth in subparagraphs (a)
 and (c) of the Commercial Computer Software - Restricted
 Rights clause in FAR 52.227-19.
  
 Gaussian, Inc.
 340 Quinnipiac St., Bldg. 40, Wallingford CT 06492
  
  
 ---------------------------------------------------------------
 Warning -- This program may not be used in any manner that
 competes with the business of Gaussian, Inc. or will provide
 assistance to any competitor of Gaussian, Inc.  The licensee
 of this program is prohibited from giving any competitor of
 Gaussian, Inc. access to this program.  By using this program,
 the user acknowledges that Gaussian, Inc. is engaged in the
 business of creating and licensing software in the field of
 computational chemistry and represents and warrants to the
 licensee that it is not a competitor of Gaussian, Inc. and that
 it will not use this program in any manner prohibited above.
 ---------------------------------------------------------------
  

 Cite this work as:
 Gaussian 16, Revision A.03,
 M. J. Frisch, G. W. Trucks, H. B. Schlegel, G. E. Scuseria, 
 M. A. Robb, J. R. Cheeseman, G. Scalmani, V. Barone, 
 G. A. Petersson, H. Nakatsuji, X. Li, M. Caricato, A. V. Marenich, 
 J. Bloino, B. G. Janesko, R. Gomperts, B. Mennucci, H. P. Hratchian, 
 J. V. Ortiz, A. F. Izmaylov, J. L. Sonnenberg, D. Williams-Young, 
 F. Ding, F. Lipparini, F. Egidi, J. Goings, B. Peng, A. Petrone, 
 T. Henderson, D. Ranasinghe, V. G. Zakrzewski, J. Gao, N. Rega, 
 G. Zheng, W. Liang, M. Hada, M. Ehara, K. Toyota, R. Fukuda, 
 J. Hasegawa, M. Ishida, T. Nakajima, Y. Honda, O. Kitao, H. Nakai, 
 T. Vreven, K. Throssell, J. A. Montgomery, Jr., J. E. Peralta, 
 F. Ogliaro, M. J. Bearpark, J. J. Heyd, E. N. Brothers, K. N. Kudin, 
 V. N. Staroverov, T. A. Keith, R. Kobayashi, J. Normand, 
 K. Raghavachari, A. P. Rendell, J. C. Burant, S. S. Iyengar, 
 J. Tomasi, M. Cossi, J. M. Millam, M. Klene, C. Adamo, R. Cammi, 
 J. W. Ochterski, R. L. Martin, K. Morokuma, O. Farkas, 
 J. B. Foresman, and D. J. Fox, Gaussian, Inc., Wallingford CT, 2016.
 
 ******************************************
 Gaussian 16:  AS64L-G16RevA.03 25-Dec-2016
                 8-Jan-2020 
 ******************************************
 %nprocshared=16
 Will use up to   16 processors via shared memory.
 %mem=32GB
 ----------------------------------------------------------------------
 #p opt=modredundant b3lyp/6-31+g(d) scrf=(smd, solvent=tetrahydrofuran
 )
 ----------------------------------------------------------------------
 1/18=120,19=15,26=3,38=1/1,3;
 2/9=110,12=2,17=6,18=5,40=1/2;
 3/5=1,6=6,7=11,11=2,25=1,30=1,70=32201,71=1,72=20,74=-5/1,2,3;
 4//1;
 5/5=2,38=5,53=20/2;
 6/7=2,8=2,9=2,10=2,28=1/1;
 7//1,2,3,16;
 1/18=20,19=15,26=3/3(2);
 2/9=110/2;
 99//99;
 2/9=110/2;
 3/5=1,6=6,7=11,11=2,25=1,30=1,70=32205,71=1,72=20,74=-5/1,2,3;
 4/5=5,16=3,69=1/1;
 5/5=2,38=5,53=20/2;
 7//1,2,3,16;
 1/18=20,19=15,26=3/3(-5);
 2/9=110/2;
 6/7=2,8=2,9=2,10=2,19=2,28=1/1;
 99/9=1/99;
 Leave Link    1 at Wed Jan  8 01:55:54 2020, MaxMem=  4294967296 cpu:               7.6 elap:               2.4
 (Enter /home/cwagen/sw/g16/g16/l101.exe)
 -----
 title
 -----
 Symbolic Z-matrix:
 Charge = -1 Multiplicity = 1
 6                    -0.19426  -0.292    -0.21291 
 8                    -0.25532  -0.66526  -1.45426 
 6                    -0.33095  -1.45422   0.81632 
 1                    -0.18039  -1.13044   1.85373 
 1                    -1.34067  -1.87301   0.71427 
 1                     0.39707  -2.23395   0.57058 
 17                   -1.93061   1.9107    0.52413 
 6                     0.91828   0.09759   0.01174 
 7                     2.05285   0.37788   0.04204 
 
 Add virtual bond connecting atoms Cl7        and C1         Dist= 5.48D+00.
 The following ModRedundant input section has been read:
 B       1       7 F                                                           
 B       1       8 F                                                           
 
 ITRead=  0  0  0  0  0  0  0  0  0
 MicOpt= -1 -1 -1 -1 -1 -1 -1 -1 -1
 NAtoms=      9 NQM=        9 NQMF=       0 NMMI=      0 NMMIF=      0
                NMic=       0 NMicF=      0.
                    Isotopes and Nuclear Properties:
 (Nuclear quadrupole moments (NQMom) in fm**2, nuclear magnetic moments (NMagM)
  in nuclear magnetons)

  Atom         1           2           3           4           5           6           7           8           9
 IAtWgt=          12          16          12           1           1           1          35          12          14
 AtmWgt=  12.0000000  15.9949146  12.0000000   1.0078250   1.0078250   1.0078250  34.9688527  12.0000000  14.0030740
 NucSpn=           0           0           0           1           1           1           3           0           2
 AtZEff=   0.0000000   0.0000000   0.0000000   0.0000000   0.0000000   0.0000000   0.0000000   0.0000000   0.0000000
 NQMom=    0.0000000   0.0000000   0.0000000   0.0000000   0.0000000   0.0000000  -8.1650000   0.0000000   2.0440000
 NMagM=    0.0000000   0.0000000   0.0000000   2.7928460   2.7928460   2.7928460   0.8218740   0.0000000   0.4037610
 AtZNuc=   6.0000000   8.0000000   6.0000000   1.0000000   1.0000000   1.0000000  17.0000000   6.0000000   7.0000000
 Leave Link  101 at Wed Jan  8 01:55:55 2020, MaxMem=  4294967296 cpu:               6.5 elap:               1.7
 (Enter /home/cwagen/sw/g16/g16/l103.exe)

 GradGradGradGradGradGradGradGradGradGradGradGradGradGradGradGradGradGrad
 Berny optimization.
 Initialization pass.
                           ----------------------------
                           !    Initial Parameters    !
                           ! (Angstroms and Degrees)  !
 --------------------------                            --------------------------
 ! Name  Definition              Value          Derivative Info.                !
 --------------------------------------------------------------------------------
 ! R1    R(1,2)                  1.2977         estimate D2E/DX2                !
 ! R2    R(1,3)                  1.5584         estimate D2E/DX2                !
 ! R3    R(1,7)                  2.9            Frozen                          !
 ! R4    R(1,8)                  1.2            Frozen                          !
 ! R5    R(3,4)                  1.0971         estimate D2E/DX2                !
 ! R6    R(3,5)                  1.0979         estimate D2E/DX2                !
 ! R7    R(3,6)                  1.0947         estimate D2E/DX2                !
 ! R8    R(8,9)                  1.1691         estimate D2E/DX2                !
 ! A1    A(2,1,3)              114.4006         estimate D2E/DX2                !
 ! A2    A(2,1,7)              115.6846         estimate D2E/DX2                !
 ! A3    A(2,1,8)              108.426          estimate D2E/DX2                !
 ! A4    A(3,1,7)              110.248          estimate D2E/DX2                !
 ! A5    A(3,1,8)              101.5248         estimate D2E/DX2                !
 ! A6    A(7,1,8)              105.1256         estimate D2E/DX2                !
 ! A7    A(1,3,4)              113.1005         estimate D2E/DX2                !
 ! A8    A(1,3,5)              107.683          estimate D2E/DX2                !
 ! A9    A(1,3,6)              108.9421         estimate D2E/DX2                !
 ! A10   A(4,3,5)              109.0662         estimate D2E/DX2                !
 ! A11   A(4,3,6)              109.3417         estimate D2E/DX2                !
 ! A12   A(5,3,6)              108.6067         estimate D2E/DX2                !
 ! A13   L(1,8,9,6,-1)         177.7776         estimate D2E/DX2                !
 ! A14   L(1,8,9,6,-2)         168.2463         estimate D2E/DX2                !
 ! D1    D(2,1,3,4)            174.4714         estimate D2E/DX2                !
 ! D2    D(2,1,3,5)            -64.9488         estimate D2E/DX2                !
 ! D3    D(2,1,3,6)             52.6633         estimate D2E/DX2                !
 ! D4    D(7,1,3,4)            -53.1046         estimate D2E/DX2                !
 ! D5    D(7,1,3,5)             67.4752         estimate D2E/DX2                !
 ! D6    D(7,1,3,6)           -174.9127         estimate D2E/DX2                !
 ! D7    D(8,1,3,4)             57.938          estimate D2E/DX2                !
 ! D8    D(8,1,3,5)            178.5177         estimate D2E/DX2                !
 ! D9    D(8,1,3,6)            -63.8702         estimate D2E/DX2                !
 --------------------------------------------------------------------------------
 Trust Radius=3.00D-01 FncErr=1.00D-07 GrdErr=1.00D-06 EigMax=2.50D+02 EigMin=1.00D-04
 Number of steps in this run=     41 maximum allowed number of steps=    100.
 GradGradGradGradGradGradGradGradGradGradGradGradGradGradGradGradGradGrad

 Leave Link  103 at Wed Jan  8 01:55:56 2020, MaxMem=  4294967296 cpu:               2.2 elap:               0.6
 (Enter /home/cwagen/sw/g16/g16/l202.exe)
                          Input orientation:                          
 ---------------------------------------------------------------------
 Center     Atomic      Atomic             Coordinates (Angstroms)
 Number     Number       Type             X           Y           Z
 ---------------------------------------------------------------------
      1          6           0       -0.194263   -0.291999   -0.212908
      2          8           0       -0.255321   -0.665256   -1.454255
      3          6           0       -0.330945   -1.454221    0.816316
      4          1           0       -0.180394   -1.130438    1.853734
      5          1           0       -1.340665   -1.873010    0.714272
      6          1           0        0.397068   -2.233949    0.570583
      7         17           0       -1.930607    1.910701    0.524130
      8          6           0        0.918283    0.097585    0.011737
      9          7           0        2.052854    0.377883    0.042040
 ---------------------------------------------------------------------
                    Distance matrix (angstroms):
                    1          2          3          4          5
     1  C    0.000000
     2  O    1.297687   0.000000
     3  C    1.558443   2.404928   0.000000
     4  H    2.230287   3.341377   1.097150   0.000000
     5  H    2.161827   2.709087   1.097876   1.787740   0.000000
     6  H    2.175937   2.643176   1.094698   1.788205   1.780629
     7  Cl   2.900000   3.654606   3.737243   3.752281   3.834143
     8  C    1.200000   2.026920   2.148493   2.471454   3.078904
     9  N    2.358660   2.941889   3.104611   3.247255   4.127274
                    6          7          8          9
     6  H    0.000000
     7  Cl   4.753772   0.000000
     8  C    2.453574   3.415568   0.000000
     9  N    3.137300   4.295335   1.169075   0.000000
 Stoichiometry    C3H3ClNO(1-)
 Framework group  C1[X(C3H3ClNO)]
 Deg. of freedom    21
 Full point group                 C1      NOp   1
 Largest Abelian subgroup         C1      NOp   1
 Largest concise Abelian subgroup C1      NOp   1
                         Standard orientation:                         
 ---------------------------------------------------------------------
 Center     Atomic      Atomic             Coordinates (Angstroms)
 Number     Number       Type             X           Y           Z
 ---------------------------------------------------------------------
      1          6           0       -0.550342   -0.301024    0.215234
      2          8           0       -0.964976   -0.577749    1.413354
      3          6           0       -1.042945   -1.292545   -0.881567
      4          1           0       -0.761284   -0.986133   -1.896711
      5          1           0       -0.599866   -2.273910   -0.667243
      6          1           0       -2.132323   -1.379823   -0.818317
      7         17           0        2.300528    0.157515   -0.053619
      8          6           0       -1.066856    0.722969   -0.137825
      9          7           0       -1.704978    1.686814   -0.312583
 ---------------------------------------------------------------------
 Rotational constants (GHZ):           3.9074397           1.5604407           1.4104621
 Leave Link  202 at Wed Jan  8 01:55:57 2020, MaxMem=  4294967296 cpu:               3.8 elap:               1.0
 (Enter /home/cwagen/sw/g16/g16/l301.exe)
 Standard basis: 6-31+G(d) (6D, 7F)
 Ernie: Thresh=  0.10000D-02 Tol=  0.10000D-05 Strict=F.
 There are   124 symmetry adapted cartesian basis functions of A   symmetry.
 There are   124 symmetry adapted basis functions of A   symmetry.
   124 basis functions,   228 primitive gaussians,   124 cartesian basis functions
    27 alpha electrons       27 beta electrons
       nuclear repulsion energy       240.3337163552 Hartrees.
 IExCor=  402 DFT=T Ex+Corr=B3LYP ExCW=0 ScaHFX=  0.200000
 ScaDFX=  0.800000  0.720000  1.000000  0.810000 ScalE2=  1.000000  1.000000
 IRadAn=      5 IRanWt=     -1 IRanGd=            0 ICorTp=0 IEmpDi=  4
 NAtoms=    9 NActive=    9 NUniq=    9 SFac= 1.00D+00 NAtFMM=   60 NAOKFM=F Big=F
 Integral buffers will be    131072 words long.
 Raffenetti 2 integral format.
 Two-electron integral symmetry is turned on.
 ------------------------------------------------------------------------------
 Polarizable Continuum Model (PCM)
 =================================
 Model                : PCM.
 Atomic radii         : SMD-Coulomb.
 Polarization charges : Total charges.
 Charge compensation  : None.
 Solution method      : On-the-fly selection.
 Cavity type          : VdW (van der Waals Surface) (Alpha=1.000).
 Cavity algorithm     : GePol (No added spheres)
                        Default sphere list used, NSphG=    9.
                        Lebedev-Laikov grids with approx.  5.0 points / Ang**2.
                        Smoothing algorithm: York/Karplus (Gamma=1.0000).
                        Polarization charges: spherical gaussians, with
                                              point-specific exponents (IZeta= 3).
                        Self-potential: point-specific (ISelfS= 7).
                        Self-field    : sphere-specific E.n sum rule (ISelfD= 2).
 1st derivatives      : Analytical E(r).r(x)/FMM algorithm (CHGder, D1EAlg=3).
                        Cavity 1st derivative terms included.
 Solvent              : TetraHydroFuran, Eps=   7.425700 Eps(inf)=   1.974025
 ------------------------------------------------------------------------------
 Spheres list:
 ISph  on   Nord     Re0    Alpha      Xe            Ye            Ze
    1   C      1    1.8500  1.000     -0.550342     -0.301024      0.215234
    2   O      2    2.2940  1.000     -0.964976     -0.577749      1.413354
    3   C      3    1.8500  1.000     -1.042945     -1.292545     -0.881567
    4   H      4    1.2000  1.000     -0.761284     -0.986133     -1.896711
    5   H      5    1.2000  1.000     -0.599866     -2.273910     -0.667243
    6   H      6    1.2000  1.000     -2.132323     -1.379823     -0.818317
    7  Cl      7    2.3800  1.000      2.300528      0.157515     -0.053619
    8   C      8    1.8500  1.000     -1.066856      0.722969     -0.137825
    9   N      9    1.8900  1.000     -1.704978      1.686814     -0.312583
 ------------------------------------------------------------------------------
 GePol: Number of generator spheres                  =       9
 GePol: Total number of spheres                      =       9
 GePol: Number of exposed spheres                    =       9 (100.00%)
 GePol: Number of points                             =    1195
 GePol: Average weight of points                     =       0.14
 GePol: Minimum weight of points                     =   0.67D-08
 GePol: Maximum weight of points                     =    0.18138
 GePol: Number of points with low weight             =      32
 GePol: Fraction of low-weight points (<1% of avg)   =       2.68%
 GePol: Cavity surface area                          =    166.224 Ang**2
 GePol: Cavity volume                                =    149.412 Ang**3
 ------------------------------------------------------------------------------
 Atomic radii for non-electrostatic terms: SMD-CDS.
 ------------------------------------------------------------------------------
 PCM non-electrostatic energy =        -0.0014254100 Hartrees.
 Nuclear repulsion after PCM non-electrostatic terms =      240.3322909452 Hartrees.
 Leave Link  301 at Wed Jan  8 01:55:58 2020, MaxMem=  4294967296 cpu:               2.7 elap:               0.7
 (Enter /home/cwagen/sw/g16/g16/l302.exe)
 NPDir=0 NMtPBC=     1 NCelOv=     1 NCel=       1 NClECP=     1 NCelD=      1
         NCelK=      1 NCelE2=     1 NClLst=     1 CellRange=     0.0.
 One-electron integrals computed using PRISM.
 One-electron integral symmetry used in STVInt
 NBasis=   124 RedAO= T EigKep=  1.71D-05  NBF=   124
 NBsUse=   124 1.00D-06 EigRej= -1.00D+00 NBFU=   124
 Precomputing XC quadrature grid using
 IXCGrd= 4 IRadAn=           5 IRanWt=          -1 IRanGd=           0 AccXCQ= 0.00D+00.
 Generated NRdTot=       0 NPtTot=           0 NUsed=           0 NTot=          32
 NSgBfM=   123   123   123   123   123 MxSgAt=     9 MxSgA2=     9.
 Leave Link  302 at Wed Jan  8 01:56:12 2020, MaxMem=  4294967296 cpu:              56.5 elap:              14.1
 (Enter /home/cwagen/sw/g16/g16/l303.exe)
 DipDrv:  MaxL=1.
 Leave Link  303 at Wed Jan  8 01:56:14 2020, MaxMem=  4294967296 cpu:               6.1 elap:               2.2
 (Enter /home/cwagen/sw/g16/g16/l401.exe)
 ExpMin= 4.38D-02 ExpMax= 2.52D+04 ExpMxC= 3.78D+03 IAcc=3 IRadAn=         5 AccDes= 0.00D+00
 Harris functional with IExCor=  402 and IRadAn=       5 diagonalized for initial guess.
 HarFok:  IExCor=  402 AccDes= 0.00D+00 IRadAn=         5 IDoV= 1 UseB2=F ITyADJ=14
 ICtDFT=  3500011 ScaDFX=  1.000000  1.000000  1.000000  1.000000
 FoFCou: FMM=F IPFlag=           0 FMFlag=      100000 FMFlg1=           0
         NFxFlg=           0 DoJE=T BraDBF=F KetDBF=T FulRan=T
         wScrn=  0.000000 ICntrl=       500 IOpCl=  0 I1Cent=   200000004 NGrid=           0
         NMat0=    1 NMatS0=      1 NMatT0=    0 NMatD0=    1 NMtDS0=    0 NMtDT0=    0
 Petite list used in FoFCou.
 Harris En= -706.301973092559    
 JPrj=0 DoOrth=F DoCkMO=F.
 Leave Link  401 at Wed Jan  8 01:56:26 2020, MaxMem=  4294967296 cpu:              49.2 elap:              12.3
 (Enter /home/cwagen/sw/g16/g16/l502.exe)
 Keep R1 ints in memory in canonical form, NReq=45236517.
 FoFCou: FMM=F IPFlag=           0 FMFlag=           0 FMFlg1=           0
         NFxFlg=           0 DoJE=F BraDBF=F KetDBF=F FulRan=T
         wScrn=  0.000000 ICntrl=       600 IOpCl=  0 I1Cent=           0 NGrid=           0
         NMat0=    1 NMatS0=   7750 NMatT0=    0 NMatD0=    1 NMtDS0=    0 NMtDT0=    0
 Symmetry not used in FoFCou.
 Two-electron integral symmetry not used.
 Closed shell SCF:
 Using DIIS extrapolation, IDIIS=  1040.
 NGot=  4294967296 LenX=  4264898079 LenY=  4264882262
 Requested convergence on RMS density matrix=1.00D-08 within 128 cycles.
 Requested convergence on MAX density matrix=1.00D-06.
 Requested convergence on             energy=1.00D-06.
 No special actions if energy rises.

 Cycle   1  Pass 1  IDiag  1:
 Inv3:  Mode=1 IEnd=     4284075.
 Iteration    1 A*A^-1 deviation from unit magnitude is 4.44D-15 for   1192.
 Iteration    1 A*A^-1 deviation from orthogonality  is 1.79D-15 for   1186    874.
 Iteration    1 A^-1*A deviation from unit magnitude is 4.44D-15 for   1192.
 Iteration    1 A^-1*A deviation from orthogonality  is 1.57D-15 for   1186    874.
 E= -706.185257334984    
 DIIS: error= 2.32D-02 at cycle   1 NSaved=   1.
 NSaved= 1 IEnMin= 1 EnMin= -706.185257334984     IErMin= 1 ErrMin= 2.32D-02
 ErrMax= 2.32D-02  0.00D+00 EMaxC= 1.00D-01 BMatC= 1.42D-01 BMatP= 1.42D-01
 IDIUse=3 WtCom= 7.68D-01 WtEn= 2.32D-01
 Coeff-Com:  0.100D+01
 Coeff-En:   0.100D+01
 Coeff:      0.100D+01
 Gap=     0.208 Goal=   None    Shift=    0.000
 GapD=    0.208 DampG=1.000 DampE=0.500 DampFc=0.5000 IDamp=-1.
 Damping current iteration by 5.00D-01
 RMSDP=3.39D-02 MaxDP=1.79D+00              OVMax= 3.79D-01

 Cycle   2  Pass 1  IDiag  1:
 E= -706.210661145040     Delta-E=       -0.025403810056 Rises=F Damp=T
 DIIS: error= 1.29D-02 at cycle   2 NSaved=   2.
 NSaved= 2 IEnMin= 2 EnMin= -706.210661145040     IErMin= 2 ErrMin= 1.29D-02
 ErrMax= 1.29D-02  0.00D+00 EMaxC= 1.00D-01 BMatC= 3.99D-02 BMatP= 1.42D-01
 IDIUse=3 WtCom= 8.71D-01 WtEn= 1.29D-01
 Coeff-Com:  0.277D+00 0.723D+00
 Coeff-En:   0.407D+00 0.593D+00
 Coeff:      0.294D+00 0.706D+00
 Gap=     0.153 Goal=   None    Shift=    0.000
 RMSDP=2.17D-02 MaxDP=1.35D+00 DE=-2.54D-02 OVMax= 2.29D-01

 Cycle   3  Pass 1  IDiag  1:
 E= -706.275021973071     Delta-E=       -0.064360828030 Rises=F Damp=F
 DIIS: error= 1.39D-02 at cycle   3 NSaved=   3.
 NSaved= 3 IEnMin= 3 EnMin= -706.275021973071     IErMin= 2 ErrMin= 1.29D-02
 ErrMax= 1.39D-02  0.00D+00 EMaxC= 1.00D-01 BMatC= 5.69D-02 BMatP= 3.99D-02
 IDIUse=2 WtCom= 0.00D+00 WtEn= 1.00D+00
 Coeff-En:   0.000D+00 0.207D+00 0.793D+00
 Coeff:      0.000D+00 0.207D+00 0.793D+00
 Gap=     0.132 Goal=   None    Shift=    0.000
 RMSDP=7.53D-03 MaxDP=1.66D-01 DE=-6.44D-02 OVMax= 2.44D-01

 Cycle   4  Pass 1  IDiag  1:
 E= -706.134764732309     Delta-E=        0.140257240762 Rises=F Damp=F
 DIIS: error= 3.42D-02 at cycle   4 NSaved=   4.
 NSaved= 4 IEnMin= 3 EnMin= -706.275021973071     IErMin= 2 ErrMin= 1.29D-02
 ErrMax= 3.42D-02  0.00D+00 EMaxC= 1.00D-01 BMatC= 2.18D-01 BMatP= 3.99D-02
 IDIUse=2 WtCom= 0.00D+00 WtEn= 1.00D+00
 Coeff-En:   0.000D+00 0.000D+00 0.718D+00 0.282D+00
 Coeff:      0.000D+00 0.000D+00 0.718D+00 0.282D+00
 Gap=     0.132 Goal=   None    Shift=    0.000
 RMSDP=4.72D-03 MaxDP=1.57D-01 DE= 1.40D-01 OVMax= 1.43D-01

 Cycle   5  Pass 1  IDiag  1:
 E= -706.317940078855     Delta-E=       -0.183175346546 Rises=F Damp=F
 DIIS: error= 5.82D-03 at cycle   5 NSaved=   5.
 NSaved= 5 IEnMin= 5 EnMin= -706.317940078855     IErMin= 5 ErrMin= 5.82D-03
 ErrMax= 5.82D-03  0.00D+00 EMaxC= 1.00D-01 BMatC= 9.38D-03 BMatP= 3.99D-02
 IDIUse=3 WtCom= 9.42D-01 WtEn= 5.82D-02
 Coeff-Com: -0.105D-01 0.255D-01 0.259D+00-0.364D-01 0.763D+00
 Coeff-En:   0.000D+00 0.000D+00 0.195D+00 0.000D+00 0.805D+00
 Coeff:     -0.989D-02 0.241D-01 0.255D+00-0.343D-01 0.765D+00
 Gap=     0.124 Goal=   None    Shift=    0.000
 RMSDP=1.22D-03 MaxDP=2.16D-02 DE=-1.83D-01 OVMax= 3.13D-02

 Cycle   6  Pass 1  IDiag  1:
 E= -706.325848961415     Delta-E=       -0.007908882560 Rises=F Damp=F
 DIIS: error= 1.01D-03 at cycle   6 NSaved=   6.
 NSaved= 6 IEnMin= 6 EnMin= -706.325848961415     IErMin= 6 ErrMin= 1.01D-03
 ErrMax= 1.01D-03  0.00D+00 EMaxC= 1.00D-01 BMatC= 3.77D-04 BMatP= 9.38D-03
 IDIUse=3 WtCom= 9.90D-01 WtEn= 1.01D-02
 Coeff-Com: -0.137D-01 0.316D-01 0.129D+00-0.606D-01 0.549D+00 0.364D+00
 Coeff-En:   0.000D+00 0.000D+00 0.000D+00 0.000D+00 0.000D+00 0.100D+01
 Coeff:     -0.135D-01 0.312D-01 0.128D+00-0.600D-01 0.544D+00 0.371D+00
 Gap=     0.124 Goal=   None    Shift=    0.000
 RMSDP=2.75D-04 MaxDP=1.14D-02 DE=-7.91D-03 OVMax= 5.92D-03

 Cycle   7  Pass 1  IDiag  1:
 E= -706.326167842505     Delta-E=       -0.000318881090 Rises=F Damp=F
 DIIS: error= 1.90D-04 at cycle   7 NSaved=   7.
 NSaved= 7 IEnMin= 7 EnMin= -706.326167842505     IErMin= 7 ErrMin= 1.90D-04
 ErrMax= 1.90D-04  0.00D+00 EMaxC= 1.00D-01 BMatC= 9.72D-06 BMatP= 3.77D-04
 IDIUse=3 WtCom= 9.98D-01 WtEn= 1.90D-03
 Coeff-Com: -0.260D-02 0.610D-02 0.277D-01-0.177D-01 0.126D+00 0.140D+00
 Coeff-Com:  0.721D+00
 Coeff-En:   0.000D+00 0.000D+00 0.000D+00 0.000D+00 0.000D+00 0.000D+00
 Coeff-En:   0.100D+01
 Coeff:     -0.259D-02 0.609D-02 0.277D-01-0.177D-01 0.125D+00 0.140D+00
 Coeff:      0.722D+00
 Gap=     0.125 Goal=   None    Shift=    0.000
 RMSDP=5.69D-05 MaxDP=2.27D-03 DE=-3.19D-04 OVMax= 9.79D-04

 Cycle   8  Pass 1  IDiag  1:
 E= -706.326175444474     Delta-E=       -0.000007601969 Rises=F Damp=F
 DIIS: error= 6.20D-05 at cycle   8 NSaved=   8.
 NSaved= 8 IEnMin= 8 EnMin= -706.326175444474     IErMin= 8 ErrMin= 6.20D-05
 ErrMax= 6.20D-05  0.00D+00 EMaxC= 1.00D-01 BMatC= 1.11D-06 BMatP= 9.72D-06
 IDIUse=1 WtCom= 1.00D+00 WtEn= 0.00D+00
 Coeff-Com:  0.638D-03-0.220D-02 0.188D-02-0.151D-02 0.390D-02 0.272D-01
 Coeff-Com:  0.342D+00 0.628D+00
 Coeff:      0.638D-03-0.220D-02 0.188D-02-0.151D-02 0.390D-02 0.272D-01
 Coeff:      0.342D+00 0.628D+00
 Gap=     0.124 Goal=   None    Shift=    0.000
 RMSDP=3.69D-05 MaxDP=1.37D-03 DE=-7.60D-06 OVMax= 5.91D-04

 Cycle   9  Pass 1  IDiag  1:
 E= -706.326176634690     Delta-E=       -0.000001190216 Rises=F Damp=F
 DIIS: error= 1.63D-05 at cycle   9 NSaved=   9.
 NSaved= 9 IEnMin= 9 EnMin= -706.326176634690     IErMin= 9 ErrMin= 1.63D-05
 ErrMax= 1.63D-05  0.00D+00 EMaxC= 1.00D-01 BMatC= 6.07D-08 BMatP= 1.11D-06
 IDIUse=1 WtCom= 1.00D+00 WtEn= 0.00D+00
 Coeff-Com:  0.500D-03-0.144D-02-0.767D-03 0.328D-03-0.557D-02 0.423D-02
 Coeff-Com:  0.112D+00 0.311D+00 0.580D+00
 Coeff:      0.500D-03-0.144D-02-0.767D-03 0.328D-03-0.557D-02 0.423D-02
 Coeff:      0.112D+00 0.311D+00 0.580D+00
 Gap=     0.124 Goal=   None    Shift=    0.000
 RMSDP=9.46D-06 MaxDP=5.23D-04 DE=-1.19D-06 OVMax= 2.73D-04

 Cycle  10  Pass 1  IDiag  1:
 E= -706.326176711122     Delta-E=       -0.000000076432 Rises=F Damp=F
 DIIS: error= 4.01D-06 at cycle  10 NSaved=  10.
 NSaved=10 IEnMin=10 EnMin= -706.326176711122     IErMin=10 ErrMin= 4.01D-06
 ErrMax= 4.01D-06  0.00D+00 EMaxC= 1.00D-01 BMatC= 7.47D-09 BMatP= 6.07D-08
 IDIUse=1 WtCom= 1.00D+00 WtEn= 0.00D+00
 Coeff-Com:  0.176D-03-0.384D-03-0.111D-02 0.529D-03-0.470D-02-0.300D-02
 Coeff-Com: -0.487D-02 0.400D-01 0.270D+00 0.703D+00
 Coeff:      0.176D-03-0.384D-03-0.111D-02 0.529D-03-0.470D-02-0.300D-02
 Coeff:     -0.487D-02 0.400D-01 0.270D+00 0.703D+00
 Gap=     0.124 Goal=   None    Shift=    0.000
 RMSDP=3.01D-06 MaxDP=1.44D-04 DE=-7.64D-08 OVMax= 6.27D-05

 Cycle  11  Pass 1  IDiag  1:
 E= -706.326176721443     Delta-E=       -0.000000010320 Rises=F Damp=F
 DIIS: error= 1.53D-06 at cycle  11 NSaved=  11.
 NSaved=11 IEnMin=11 EnMin= -706.326176721443     IErMin=11 ErrMin= 1.53D-06
 ErrMax= 1.53D-06  0.00D+00 EMaxC= 1.00D-01 BMatC= 6.86D-10 BMatP= 7.47D-09
 IDIUse=1 WtCom= 1.00D+00 WtEn= 0.00D+00
 Coeff-Com: -0.230D-04 0.660D-04-0.816D-04 0.303D-04 0.328D-04-0.821D-04
 Coeff-Com: -0.852D-02-0.156D-01 0.270D-02 0.146D+00 0.876D+00
 Coeff:     -0.230D-04 0.660D-04-0.816D-04 0.303D-04 0.328D-04-0.821D-04
 Coeff:     -0.852D-02-0.156D-01 0.270D-02 0.146D+00 0.876D+00
 Gap=     0.124 Goal=   None    Shift=    0.000
 RMSDP=6.54D-07 MaxDP=1.60D-05 DE=-1.03D-08 OVMax= 2.39D-05

 Cycle  12  Pass 1  IDiag  1:
 E= -706.326176722381     Delta-E=       -0.000000000938 Rises=F Damp=F
 DIIS: error= 2.75D-07 at cycle  12 NSaved=  12.
 NSaved=12 IEnMin=12 EnMin= -706.326176722381     IErMin=12 ErrMin= 2.75D-07
 ErrMax= 2.75D-07  0.00D+00 EMaxC= 1.00D-01 BMatC= 1.37D-11 BMatP= 6.86D-10
 IDIUse=1 WtCom= 1.00D+00 WtEn= 0.00D+00
 Coeff-Com: -0.927D-05 0.152D-04 0.462D-04-0.171D-04 0.195D-03 0.183D-03
 Coeff-Com:  0.303D-03-0.218D-02-0.141D-01-0.394D-01-0.128D-01 0.107D+01
 Coeff:     -0.927D-05 0.152D-04 0.462D-04-0.171D-04 0.195D-03 0.183D-03
 Coeff:      0.303D-03-0.218D-02-0.141D-01-0.394D-01-0.128D-01 0.107D+01
 Gap=     0.124 Goal=   None    Shift=    0.000
 RMSDP=2.43D-07 MaxDP=6.91D-06 DE=-9.38D-10 OVMax= 1.14D-05

 Cycle  13  Pass 1  IDiag  1:
 E= -706.326176722437     Delta-E=       -0.000000000056 Rises=F Damp=F
 DIIS: error= 7.52D-08 at cycle  13 NSaved=  13.
 NSaved=13 IEnMin=13 EnMin= -706.326176722437     IErMin=13 ErrMin= 7.52D-08
 ErrMax= 7.52D-08  0.00D+00 EMaxC= 1.00D-01 BMatC= 1.82D-12 BMatP= 1.37D-11
 IDIUse=1 WtCom= 1.00D+00 WtEn= 0.00D+00
 Coeff-Com: -0.242D-06-0.138D-05 0.131D-04-0.430D-05 0.236D-04 0.202D-04
 Coeff-Com:  0.654D-03 0.627D-03-0.461D-02-0.217D-01-0.774D-01 0.344D+00
 Coeff-Com:  0.759D+00
 Coeff:     -0.242D-06-0.138D-05 0.131D-04-0.430D-05 0.236D-04 0.202D-04
 Coeff:      0.654D-03 0.627D-03-0.461D-02-0.217D-01-0.774D-01 0.344D+00
 Coeff:      0.759D+00
 Gap=     0.124 Goal=   None    Shift=    0.000
 RMSDP=5.48D-08 MaxDP=2.56D-06 DE=-5.58D-11 OVMax= 2.93D-06

 Cycle  14  Pass 1  IDiag  1:
 E= -706.326176722442     Delta-E=       -0.000000000005 Rises=F Damp=F
 DIIS: error= 2.85D-08 at cycle  14 NSaved=  14.
 NSaved=14 IEnMin=14 EnMin= -706.326176722442     IErMin=14 ErrMin= 2.85D-08
 ErrMax= 2.85D-08  0.00D+00 EMaxC= 1.00D-01 BMatC= 3.19D-13 BMatP= 1.82D-12
 IDIUse=1 WtCom= 1.00D+00 WtEn= 0.00D+00
 Coeff-Com:  0.137D-05-0.324D-05 0.131D-05-0.150D-06-0.109D-04-0.109D-04
 Coeff-Com:  0.302D-03 0.726D-03-0.219D-03-0.397D-02-0.355D-01-0.153D-02
 Coeff-Com:  0.315D+00 0.726D+00
 Coeff:      0.137D-05-0.324D-05 0.131D-05-0.150D-06-0.109D-04-0.109D-04
 Coeff:      0.302D-03 0.726D-03-0.219D-03-0.397D-02-0.355D-01-0.153D-02
 Coeff:      0.315D+00 0.726D+00
 Gap=     0.124 Goal=   None    Shift=    0.000
 RMSDP=2.29D-08 MaxDP=5.73D-07 DE=-5.46D-12 OVMax= 8.59D-07

 Cycle  15  Pass 1  IDiag  1:
 E= -706.326176722443     Delta-E=        0.000000000000 Rises=F Damp=F
 DIIS: error= 7.36D-09 at cycle  15 NSaved=  15.
 NSaved=15 IEnMin=15 EnMin= -706.326176722443     IErMin=15 ErrMin= 7.36D-09
 ErrMax= 7.36D-09  0.00D+00 EMaxC= 1.00D-01 BMatC= 1.05D-14 BMatP= 3.19D-13
 IDIUse=1 WtCom= 1.00D+00 WtEn= 0.00D+00
 Coeff-Com:  0.308D-06-0.515D-06-0.394D-06 0.125D-06-0.284D-05-0.334D-05
 Coeff-Com:  0.175D-04 0.144D-03 0.148D-03 0.662D-03-0.289D-02-0.192D-01
 Coeff-Com:  0.146D-01 0.160D+00 0.847D+00
 Coeff:      0.308D-06-0.515D-06-0.394D-06 0.125D-06-0.284D-05-0.334D-05
 Coeff:      0.175D-04 0.144D-03 0.148D-03 0.662D-03-0.289D-02-0.192D-01
 Coeff:      0.146D-01 0.160D+00 0.847D+00
 Gap=     0.124 Goal=   None    Shift=    0.000
 RMSDP=4.31D-09 MaxDP=1.04D-07 DE=-4.55D-13 OVMax= 1.14D-07

 Error on total polarization charges =  0.02306
 SCF Done:  E(RB3LYP) =  -706.326176722     A.U. after   15 cycles
            NFock= 15  Conv=0.43D-08     -V/T= 2.0045
 KE= 7.031589543479D+02 PE=-2.158867697568D+03 EE= 5.090502755529D+02
 SMD-CDS (non-electrostatic) energy       (kcal/mol) =      -0.89
 (included in total energy above)
 Leave Link  502 at Wed Jan  8 02:01:11 2020, MaxMem=  4294967296 cpu:            1131.2 elap:             284.7
 (Enter /home/cwagen/sw/g16/g16/l601.exe)
 Copying SCF densities to generalized density rwf, IOpCl= 0 IROHF=0.

 **********************************************************************

            Population analysis using the SCF density.

 **********************************************************************

 Orbital symmetries:
       Occupied  (A) (A) (A) (A) (A) (A) (A) (A) (A) (A) (A) (A)
                 (A) (A) (A) (A) (A) (A) (A) (A) (A) (A) (A) (A)
                 (A) (A) (A)
       Virtual   (A) (A) (A) (A) (A) (A) (A) (A) (A) (A) (A) (A)
                 (A) (A) (A) (A) (A) (A) (A) (A) (A) (A) (A) (A)
                 (A) (A) (A) (A) (A) (A) (A) (A) (A) (A) (A) (A)
                 (A) (A) (A) (A) (A) (A) (A) (A) (A) (A) (A) (A)
                 (A) (A) (A) (A) (A) (A) (A) (A) (A) (A) (A) (A)
                 (A) (A) (A) (A) (A) (A) (A) (A) (A) (A) (A) (A)
                 (A) (A) (A) (A) (A) (A) (A) (A) (A) (A) (A) (A)
                 (A) (A) (A) (A) (A) (A) (A) (A) (A) (A) (A) (A)
                 (A)
 The electronic state is 1-A.
 Alpha  occ. eigenvalues -- -101.44089 -19.15230 -14.33899 -10.28170 -10.22078
 Alpha  occ. eigenvalues --  -10.18548  -9.35363  -7.11321  -7.11058  -7.11056
 Alpha  occ. eigenvalues --   -1.03448  -0.90570  -0.78570  -0.68861  -0.67474
 Alpha  occ. eigenvalues --   -0.47266  -0.45661  -0.45286  -0.38995  -0.37572
 Alpha  occ. eigenvalues --   -0.37464  -0.31393  -0.30528  -0.25339  -0.23499
 Alpha  occ. eigenvalues --   -0.23043  -0.22993
 Alpha virt. eigenvalues --   -0.10565   0.02509   0.02774   0.04704   0.05386
 Alpha virt. eigenvalues --    0.06734   0.08035   0.09207   0.09652   0.09975
 Alpha virt. eigenvalues --    0.10256   0.10893   0.12057   0.13266   0.13752
 Alpha virt. eigenvalues --    0.14922   0.16139   0.16806   0.20768   0.21532
 Alpha virt. eigenvalues --    0.23464   0.24790   0.25584   0.26143   0.26920
 Alpha virt. eigenvalues --    0.28162   0.30538   0.32689   0.34835   0.36382
 Alpha virt. eigenvalues --    0.37514   0.39960   0.46300   0.55661   0.64522
 Alpha virt. eigenvalues --    0.66504   0.66846   0.68579   0.70246   0.71460
 Alpha virt. eigenvalues --    0.73323   0.76090   0.79235   0.82571   0.85926
 Alpha virt. eigenvalues --    0.86826   0.90075   0.95990   0.97158   0.97506
 Alpha virt. eigenvalues --    0.97799   0.99412   1.00666   1.02339   1.05574
 Alpha virt. eigenvalues --    1.07507   1.12609   1.14257   1.16760   1.21660
 Alpha virt. eigenvalues --    1.26593   1.30894   1.31625   1.34140   1.40446
 Alpha virt. eigenvalues --    1.48445   1.54583   1.59014   1.62278   1.69643
 Alpha virt. eigenvalues --    1.77300   1.78742   1.85228   1.89124   1.92749
 Alpha virt. eigenvalues --    1.96436   2.04622   2.09820   2.16899   2.22023
 Alpha virt. eigenvalues --    2.24651   2.34053   2.40223   2.51347   2.57289
 Alpha virt. eigenvalues --    2.73111   2.89880   2.98944   3.02027   3.20755
 Alpha virt. eigenvalues --    3.50611   4.14945   4.23066   4.35473   4.38425
 Alpha virt. eigenvalues --    4.52687   4.81747
          Condensed to atoms (all electrons):
               1          2          3          4          5          6
     1  C    8.562852   0.540520  -0.192589  -0.137047  -0.149390   0.082530
     2  O    0.540520   8.246799  -0.153149   0.009195   0.004870  -0.013859
     3  C   -0.192589  -0.153149   5.973145   0.376075   0.397062   0.361182
     4  H   -0.137047   0.009195   0.376075   0.468346  -0.019283  -0.029054
     5  H   -0.149390   0.004870   0.397062  -0.019283   0.465030  -0.022190
     6  H    0.082530  -0.013859   0.361182  -0.029054  -0.022190   0.451390
     7  Cl   0.202466  -0.022908  -0.095583   0.003538  -0.000169   0.000201
     8  C   -3.209494  -0.163548   0.027332   0.083297   0.081721  -0.089732
     9  N   -0.074372  -0.039921   0.043188  -0.001911  -0.001065  -0.001466
               7          8          9
     1  C    0.202466  -3.209494  -0.074372
     2  O   -0.022908  -0.163548  -0.039921
     3  C   -0.095583   0.027332   0.043188
     4  H    0.003538   0.083297  -0.001911
     5  H   -0.000169   0.081721  -0.001065
     6  H    0.000201  -0.089732  -0.001466
     7  Cl  17.754208  -0.064413  -0.016370
     8  C   -0.064413   8.733353   0.244245
     9  N   -0.016370   0.244245   7.425058
 Mulliken charges:
               1
     1  C    0.374525
     2  O   -0.408000
     3  C   -0.736661
     4  H    0.246843
     5  H    0.243414
     6  H    0.260998
     7  Cl  -0.760971
     8  C    0.357239
     9  N   -0.577387
 Sum of Mulliken charges =  -1.00000
 Mulliken charges with hydrogens summed into heavy atoms:
               1
     1  C    0.374525
     2  O   -0.408000
     3  C    0.014594
     7  Cl  -0.760971
     8  C    0.357239
     9  N   -0.577387
 Electronic spatial extent (au):  <R**2>=            876.7156
 Charge=             -1.0000 electrons
 Dipole moment (field-independent basis, Debye):
    X=             -5.7508    Y=             -3.6114    Z=             -2.5868  Tot=              7.2667
 Quadrupole moment (field-independent basis, Debye-Ang):
   XX=            -70.5253   YY=            -51.8354   ZZ=            -49.7667
   XY=              5.0858   XZ=              2.9398   YZ=              3.9922
 Traceless Quadrupole moment (field-independent basis, Debye-Ang):
   XX=            -13.1495   YY=              5.5404   ZZ=              7.6091
   XY=              5.0858   XZ=              2.9398   YZ=              3.9922
 Octapole moment (field-independent basis, Debye-Ang**2):
  XXX=            -50.4742  YYY=            -20.0571  ZZZ=             -5.2053  XYY=              7.7188
  XXY=            -17.9089  XXZ=              1.2155  XZZ=             -0.3279  YZZ=             -0.1896
  YYZ=              1.7786  XYZ=             -5.3379
 Hexadecapole moment (field-independent basis, Debye-Ang**3):
 XXXX=           -916.0371 YYYY=           -310.5351 ZZZZ=           -187.1836 XXXY=             28.3755
 XXXZ=             -0.5220 YYYX=             29.7936 YYYZ=              7.8684 ZZZX=              4.3948
 ZZZY=              4.8573 XXYY=           -208.3404 XXZZ=           -171.4507 YYZZ=            -82.8221
 XXYZ=              8.3517 YYXZ=             -3.5477 ZZXY=              0.8623
 N-N= 2.403322909452D+02 E-N=-2.158867699235D+03  KE= 7.031589543479D+02
 No NMR shielding tensors so no spin-rotation constants.
 Leave Link  601 at Wed Jan  8 02:01:19 2020, MaxMem=  4294967296 cpu:              27.6 elap:               7.6
 (Enter /home/cwagen/sw/g16/g16/l701.exe)
 ... and contract with generalized density number  0.
 Compute integral first derivatives.
 D1PCM: PCM CHGder 1st derivatives, ID1Alg=3 FixD1E=F DoIter=F DoCFld=F I1PDM=0.
 GePol: Maximum number of non-zero 1st derivatives   =     402
 Leave Link  701 at Wed Jan  8 02:01:45 2020, MaxMem=  4294967296 cpu:             103.3 elap:              25.9
 (Enter /home/cwagen/sw/g16/g16/l702.exe)
 L702 exits ... SP integral derivatives will be done elsewhere.
 Leave Link  702 at Wed Jan  8 02:01:46 2020, MaxMem=  4294967296 cpu:               2.6 elap:               1.5
 (Enter /home/cwagen/sw/g16/g16/l703.exe)
 Integral derivatives from FoFJK, PRISM(SPDF).
 Compute integral first derivatives, UseDBF=F ICtDFT=           0.
 Calling FoFJK, ICntrl=      2127 FMM=F ISym2X=0 I1Cent= 0 IOpClX= 0 NMat=1 NMatS=1 NMatT=0.
 FoFJK:  IHMeth= 1 ICntrl=    2127 DoSepK=F KAlg= 0 I1Cent=           0 FoldK=F
 IRaf=         0 NMat=       1 IRICut=       1 DoRegI=T DoRafI=F ISym2E= 0 IDoP0=0 IntGTp=1.
 FoFCou: FMM=F IPFlag=           0 FMFlag=      100000 FMFlg1=         800
         NFxFlg=           0 DoJE=F BraDBF=F KetDBF=F FulRan=T
         wScrn=  0.000000 ICntrl=      2127 IOpCl=  0 I1Cent=           0 NGrid=           0
         NMat0=    1 NMatS0=      1 NMatT0=    0 NMatD0=    1 NMtDS0=    0 NMtDT0=    0
 Symmetry not used in FoFCou.
 Leave Link  703 at Wed Jan  8 02:01:59 2020, MaxMem=  4294967296 cpu:              51.4 elap:              12.9
 (Enter /home/cwagen/sw/g16/g16/l716.exe)
 Dipole        =-2.26252773D+00-1.42082222D+00-1.01772139D+00
 ***** Axes restored to original set *****
 -------------------------------------------------------------------
 Center     Atomic                   Forces (Hartrees/Bohr)
 Number     Number              X              Y              Z
 -------------------------------------------------------------------
      1        6          -0.232864699   -0.186659100   -0.089495865
      2        8          -0.040443948    0.023845597    0.018466012
      3        6          -0.048877969    0.002081735    0.013167589
      4        1          -0.001204915    0.000638071   -0.002408446
      5        1           0.000513342   -0.003841131    0.003678489
      6        1           0.000626218    0.004050998   -0.003532234
      7       17           0.007545434   -0.009452351   -0.001516788
      8        6           0.310931813    0.168791163    0.050455834
      9        7           0.003774724    0.000545018    0.011185409
 -------------------------------------------------------------------
 Cartesian Forces:  Max     0.310931813 RMS     0.092347524
 Leave Link  716 at Wed Jan  8 02:02:00 2020, MaxMem=  4294967296 cpu:               2.1 elap:               0.5
 (Enter /home/cwagen/sw/g16/g16/l103.exe)

 GradGradGradGradGradGradGradGradGradGradGradGradGradGradGradGradGradGrad
 Berny optimization.
 FormGI is forming the generalized inverse of G from B-inverse, IUseBI=4.
 Internal  Forces:  Max     0.358641407 RMS     0.067463635
 Search for a local minimum.
 Step number   1 out of a maximum of   41
 All quantities printed in internal units (Hartrees-Bohrs-Radians)
 RMS Force = .20613D-01 SwitMx=.10000D-02 MixMth= 1
 Mixed Optimization -- RFO/linear search
 Second derivative matrix not updated -- first step.
 ITU=  0
     Eigenvalues ---    0.00230   0.04746   0.04746   0.05330   0.05908
     Eigenvalues ---    0.07453   0.10176   0.16000   0.16000   0.16000
     Eigenvalues ---    0.25000   0.25000   0.25000   0.26946   0.33918
     Eigenvalues ---    0.33999   0.34275   0.67840   1.220341000.00000
     Eigenvalues --- 1000.000001000.000001000.000001000.000001000.00000
     Eigenvalues --- 1000.000001000.000001000.000001000.000001000.00000
     Eigenvalues --- 1000.00000
 RFO step:  Lambda=-6.26851774D-02 EMin= 2.30000000D-03
 Linear search not attempted -- first point.
 Maximum step size (   0.300) exceeded in Quadratic search.
    -- Step size scaled by   0.686
 Iteration  1 RMS(Cart)=  0.10762254 RMS(Int)=  0.00811052
 Iteration  2 RMS(Cart)=  0.00837550 RMS(Int)=  0.00496686
 Iteration  3 RMS(Cart)=  0.00004910 RMS(Int)=  0.00496680
 Iteration  4 RMS(Cart)=  0.00000053 RMS(Int)=  0.00496680
 Iteration  1 RMS(Cart)=  0.00000000 RMS(Int)=  0.00000000
 ITry= 1 IFail=0 DXMaxC= 3.31D-01 DCOld= 1.00D+10 DXMaxT= 3.00D-01 DXLimC= 3.00D+00 Rises=F
 Variable       Old X    -DE/DX   Delta X   Delta X   Delta X     New X
                                 (Linear)    (Quad)   (Total)
    R1        2.45227  -0.02261   0.00000  -0.02094  -0.02094   2.43133
    R2        2.94503   0.00947   0.00000   0.01957   0.01957   2.96460
    R3        5.48021  -0.01209   0.00000   0.00000   0.00000   5.48021
    R4        2.26767   0.35864   0.00000   0.00000   0.00000   2.26767
    R5        2.07331  -0.00225   0.00000  -0.00383  -0.00383   2.06948
    R6        2.07468   0.00063   0.00000   0.00108   0.00108   2.07577
    R7        2.06868  -0.00227   0.00000  -0.00384  -0.00384   2.06484
    R8        2.20923   0.00407   0.00000   0.00218   0.00218   2.21141
    A1        1.99667   0.02036   0.00000   0.04765   0.03542   2.03209
    A2        2.01908  -0.01660   0.00000  -0.08095  -0.08325   1.93583
    A3        1.89239   0.00094   0.00000   0.08429   0.06694   1.95933
    A4        1.92419  -0.02915   0.00000  -0.10080  -0.09909   1.82510
    A5        1.77194   0.06598   0.00000   0.17748   0.16826   1.94020
    A6        1.83479  -0.03416   0.00000  -0.09741  -0.09017   1.74462
    A7        1.97398  -0.00187   0.00000  -0.00616  -0.00628   1.96769
    A8        1.87942   0.00936   0.00000   0.03091   0.03100   1.91042
    A9        1.90140  -0.00799   0.00000  -0.02631  -0.02632   1.87508
   A10        1.90356  -0.00278   0.00000  -0.00548  -0.00552   1.89804
   A11        1.90837   0.00373   0.00000   0.00782   0.00760   1.91598
   A12        1.89554  -0.00038   0.00000  -0.00036  -0.00012   1.89542
   A13        3.10280  -0.00714   0.00000  -0.04451  -0.04451   3.05830
   A14        2.93645   0.02120   0.00000   0.13211   0.13211   3.06856
    D1        3.04510   0.02678   0.00000   0.12803   0.13146  -3.10662
    D2       -1.13357   0.02854   0.00000   0.13847   0.14194  -0.99163
    D3        0.91915   0.02897   0.00000   0.14098   0.14424   1.06339
    D4       -0.92685  -0.00607   0.00000  -0.04000  -0.03724  -0.96409
    D5        1.17766  -0.00431   0.00000  -0.02956  -0.02676   1.15090
    D6       -3.05280  -0.00388   0.00000  -0.02705  -0.02446  -3.07726
    D7        1.01121  -0.02376   0.00000  -0.10186  -0.10791   0.90330
    D8        3.11572  -0.02200   0.00000  -0.09142  -0.09744   3.01829
    D9       -1.11475  -0.02157   0.00000  -0.08891  -0.09514  -1.20988
         Item               Value     Threshold  Converged?
 Maximum Force            0.065975     0.000450     NO 
 RMS     Force            0.020613     0.000300     NO 
 Maximum Displacement     0.331443     0.001800     NO 
 RMS     Displacement     0.105340     0.001200     NO 
 Predicted change in Energy=-3.426135D-02
 Lowest energy point so far.  Saving SCF results.
 GradGradGradGradGradGradGradGradGradGradGradGradGradGradGradGradGradGrad

 Leave Link  103 at Wed Jan  8 02:02:46 2020, MaxMem=  4294967296 cpu:             185.2 elap:              46.9
 (Enter /home/cwagen/sw/g16/g16/l202.exe)
                          Input orientation:                          
 ---------------------------------------------------------------------
 Center     Atomic      Atomic             Coordinates (Angstroms)
 Number     Number       Type             X           Y           Z
 ---------------------------------------------------------------------
      1          6           0       -0.101691   -0.357984   -0.238239
      2          8           0       -0.299551   -0.678570   -1.468453
      3          6           0       -0.364437   -1.479669    0.826618
      4          1           0       -0.211591   -1.132319    1.853885
      5          1           0       -1.395748   -1.844447    0.727008
      6          1           0        0.319261   -2.303869    0.609437
      7         17           0       -1.840092    1.823236    0.555637
      8          6           0        0.968634    0.157643   -0.069317
      9          7           0        2.061226    0.553275    0.069073
 ---------------------------------------------------------------------
                    Distance matrix (angstroms):
                    1          2          3          4          5
     1  C    0.000000
     2  O    1.286604   0.000000
     3  C    1.568800   2.431733   0.000000
     4  H    2.233530   3.354335   1.095122   0.000000
     5  H    2.194507   2.716794   1.098448   1.783033   0.000000
     6  H    2.163845   2.709641   1.092665   1.789689   1.779367
     7  Cl   2.900000   3.567806   3.627694   3.615629   3.698474
     8  C    1.200000   2.065218   2.293592   2.599161   3.198875
     9  N    2.367074   3.074848   3.254317   3.345517   4.258242
                    6          7          8          9
     6  H    0.000000
     7  Cl   4.658186   0.000000
     8  C    2.634660   3.324712   0.000000
     9  N    3.389648   4.131565   1.170228   0.000000
 Stoichiometry    C3H3ClNO(1-)
 Framework group  C1[X(C3H3ClNO)]
 Deg. of freedom    21
 Full point group                 C1      NOp   1
 RotChk:  IX=0 Diff= 4.36D-02
 Largest Abelian subgroup         C1      NOp   1
 Largest concise Abelian subgroup C1      NOp   1
                         Standard orientation:                         
 ---------------------------------------------------------------------
 Center     Atomic      Atomic             Coordinates (Angstroms)
 Number     Number       Type             X           Y           Z
 ---------------------------------------------------------------------
      1          6           0       -0.637972   -0.309377    0.206980
      2          8           0       -0.944231   -0.658934    1.406716
      3          6           0       -0.968449   -1.341810   -0.927040
      4          1           0       -0.651677   -0.998501   -1.917538
      5          1           0       -0.471450   -2.296750   -0.708706
      6          1           0       -2.049324   -1.501710   -0.919365
      7         17           0        2.213657    0.157008   -0.039391
      8          6           0       -1.051444    0.783121   -0.067769
      9          7           0       -1.565525    1.801099   -0.330213
 ---------------------------------------------------------------------
 Rotational constants (GHZ):           3.5951592           1.6704485           1.4591930
 Leave Link  202 at Wed Jan  8 02:02:48 2020, MaxMem=  4294967296 cpu:               3.5 elap:               1.1
 (Enter /home/cwagen/sw/g16/g16/l301.exe)
 Standard basis: 6-31+G(d) (6D, 7F)
 Ernie: Thresh=  0.10000D-02 Tol=  0.10000D-05 Strict=F.
 There are   124 symmetry adapted cartesian basis functions of A   symmetry.
 There are   124 symmetry adapted basis functions of A   symmetry.
   124 basis functions,   228 primitive gaussians,   124 cartesian basis functions
    27 alpha electrons       27 beta electrons
       nuclear repulsion energy       240.4443073997 Hartrees.
 IExCor=  402 DFT=T Ex+Corr=B3LYP ExCW=0 ScaHFX=  0.200000
 ScaDFX=  0.800000  0.720000  1.000000  0.810000 ScalE2=  1.000000  1.000000
 IRadAn=      5 IRanWt=     -1 IRanGd=            0 ICorTp=0 IEmpDi=  4
 NAtoms=    9 NActive=    9 NUniq=    9 SFac= 1.00D+00 NAtFMM=   60 NAOKFM=F Big=F
 Integral buffers will be    131072 words long.
 Raffenetti 2 integral format.
 Two-electron integral symmetry is turned on.
 ------------------------------------------------------------------------------
 Polarizable Continuum Model (PCM)
 =================================
 Model                : PCM.
 Atomic radii         : SMD-Coulomb.
 Polarization charges : Total charges.
 Charge compensation  : None.
 Solution method      : On-the-fly selection.
 Cavity type          : VdW (van der Waals Surface) (Alpha=1.000).
 Cavity algorithm     : GePol (No added spheres)
                        Default sphere list used, NSphG=    9.
                        Lebedev-Laikov grids with approx.  5.0 points / Ang**2.
                        Smoothing algorithm: York/Karplus (Gamma=1.0000).
                        Polarization charges: spherical gaussians, with
                                              point-specific exponents (IZeta= 3).
                        Self-potential: point-specific (ISelfS= 7).
                        Self-field    : sphere-specific E.n sum rule (ISelfD= 2).
 1st derivatives      : Analytical E(r).r(x)/FMM algorithm (CHGder, D1EAlg=3).
                        Cavity 1st derivative terms included.
 Solvent              : TetraHydroFuran, Eps=   7.425700 Eps(inf)=   1.974025
 ------------------------------------------------------------------------------
 Spheres list:
 ISph  on   Nord     Re0    Alpha      Xe            Ye            Ze
    1   C      1    1.8500  1.000     -0.637972     -0.309377      0.206980
    2   O      2    2.2940  1.000     -0.944231     -0.658934      1.406716
    3   C      3    1.8500  1.000     -0.968449     -1.341810     -0.927040
    4   H      4    1.2000  1.000     -0.651677     -0.998501     -1.917538
    5   H      5    1.2000  1.000     -0.471450     -2.296750     -0.708706
    6   H      6    1.2000  1.000     -2.049324     -1.501710     -0.919365
    7  Cl      7    2.3800  1.000      2.213657      0.157008     -0.039391
    8   C      8    1.8500  1.000     -1.051444      0.783121     -0.067769
    9   N      9    1.8900  1.000     -1.565525      1.801099     -0.330213
 ------------------------------------------------------------------------------
 GePol: Number of generator spheres                  =       9
 GePol: Total number of spheres                      =       9
 GePol: Number of exposed spheres                    =       9 (100.00%)
 GePol: Number of points                             =    1206
 GePol: Average weight of points                     =       0.14
 GePol: Minimum weight of points                     =   0.20D-07
 GePol: Maximum weight of points                     =    0.18138
 GePol: Number of points with low weight             =      30
 GePol: Fraction of low-weight points (<1% of avg)   =       2.49%
 GePol: Cavity surface area                          =    165.550 Ang**2
 GePol: Cavity volume                                =    149.301 Ang**3
 ------------------------------------------------------------------------------
 Atomic radii for non-electrostatic terms: SMD-CDS.
 ------------------------------------------------------------------------------
 PCM non-electrostatic energy =        -0.0014741812 Hartrees.
 Nuclear repulsion after PCM non-electrostatic terms =      240.4428332185 Hartrees.
 Leave Link  301 at Wed Jan  8 02:02:48 2020, MaxMem=  4294967296 cpu:               2.5 elap:               0.6
 (Enter /home/cwagen/sw/g16/g16/l302.exe)
 NPDir=0 NMtPBC=     1 NCelOv=     1 NCel=       1 NClECP=     1 NCelD=      1
         NCelK=      1 NCelE2=     1 NClLst=     1 CellRange=     0.0.
 One-electron integrals computed using PRISM.
 One-electron integral symmetry used in STVInt
 NBasis=   124 RedAO= T EigKep=  1.67D-05  NBF=   124
 NBsUse=   124 1.00D-06 EigRej= -1.00D+00 NBFU=   124
 Precomputing XC quadrature grid using
 IXCGrd= 4 IRadAn=           5 IRanWt=          -1 IRanGd=           0 AccXCQ= 0.00D+00.
 Generated NRdTot=       0 NPtTot=           0 NUsed=           0 NTot=          32
 NSgBfM=   123   123   123   123   123 MxSgAt=     9 MxSgA2=     9.
 Leave Link  302 at Wed Jan  8 02:03:05 2020, MaxMem=  4294967296 cpu:              65.7 elap:              16.5
 (Enter /home/cwagen/sw/g16/g16/l303.exe)
 DipDrv:  MaxL=1.
 Leave Link  303 at Wed Jan  8 02:03:07 2020, MaxMem=  4294967296 cpu:               6.7 elap:               2.3
 (Enter /home/cwagen/sw/g16/g16/l401.exe)
 Initial guess from the checkpoint file:  "/scratch/users/cwagen/cwagen_scan_290_120/Gau-48574.chk"
 B after Tr=     0.000000    0.000000    0.000000
         Rot=    0.999921   -0.010894    0.005682    0.002703 Ang=  -1.44 deg.
 Guess basis will be translated and rotated to current coordinates.
 JPrj=2 DoOrth=T DoCkMO=T.
 Generating alternative initial guess.
 ExpMin= 4.38D-02 ExpMax= 2.52D+04 ExpMxC= 3.78D+03 IAcc=2 IRadAn=         4 AccDes= 0.00D+00
 Harris functional with IExCor=  402 and IRadAn=       4 diagonalized for initial guess.
 HarFok:  IExCor=  402 AccDes= 0.00D+00 IRadAn=         4 IDoV= 1 UseB2=F ITyADJ=14
 ICtDFT=  3500011 ScaDFX=  1.000000  1.000000  1.000000  1.000000
 FoFCou: FMM=F IPFlag=           0 FMFlag=      100000 FMFlg1=           0
         NFxFlg=           0 DoJE=T BraDBF=F KetDBF=T FulRan=T
         wScrn=  0.000000 ICntrl=       500 IOpCl=  0 I1Cent=   200000004 NGrid=           0
         NMat0=    1 NMatS0=      1 NMatT0=    0 NMatD0=    1 NMtDS0=    0 NMtDT0=    0
 Petite list used in FoFCou.
 Harris En= -706.331920341639    
 Leave Link  401 at Wed Jan  8 02:03:30 2020, MaxMem=  4294967296 cpu:              90.2 elap:              22.6
 (Enter /home/cwagen/sw/g16/g16/l502.exe)
 Keep R1 ints in memory in canonical form, NReq=45236517.
 FoFCou: FMM=F IPFlag=           0 FMFlag=           0 FMFlg1=           0
         NFxFlg=           0 DoJE=F BraDBF=F KetDBF=F FulRan=T
         wScrn=  0.000000 ICntrl=       600 IOpCl=  0 I1Cent=           0 NGrid=           0
         NMat0=    1 NMatS0=   7750 NMatT0=    0 NMatD0=    1 NMtDS0=    0 NMtDT0=    0
 Symmetry not used in FoFCou.
 Two-electron integral symmetry not used.
 Closed shell SCF:
 Using DIIS extrapolation, IDIIS=  1040.
 NGot=  4294967296 LenX=  4264898079 LenY=  4264882262
 Requested convergence on RMS density matrix=1.00D-08 within 128 cycles.
 Requested convergence on MAX density matrix=1.00D-06.
 Requested convergence on             energy=1.00D-06.
 No special actions if energy rises.

 Cycle   1  Pass 1  IDiag  1:
 Inv3:  Mode=1 IEnd=     4363308.
 Iteration    1 A*A^-1 deviation from unit magnitude is 3.33D-15 for   1188.
 Iteration    1 A*A^-1 deviation from orthogonality  is 1.51D-15 for   1182   1016.
 Iteration    1 A^-1*A deviation from unit magnitude is 3.77D-15 for   1188.
 Iteration    1 A^-1*A deviation from orthogonality  is 2.10D-15 for   1202   1201.
 E= -706.327896252937    
 DIIS: error= 7.04D-03 at cycle   1 NSaved=   1.
 NSaved= 1 IEnMin= 1 EnMin= -706.327896252937     IErMin= 1 ErrMin= 7.04D-03
 ErrMax= 7.04D-03  0.00D+00 EMaxC= 1.00D-01 BMatC= 1.89D-02 BMatP= 1.89D-02
 IDIUse=3 WtCom= 9.30D-01 WtEn= 7.04D-02
 Coeff-Com:  0.100D+01
 Coeff-En:   0.100D+01
 Coeff:      0.100D+01
 Gap=     0.523 Goal=   None    Shift=    0.000
 GapD=    0.523 DampG=2.000 DampE=1.000 DampFc=2.0000 IDamp=-1.
 RMSDP=5.00D-03 MaxDP=1.68D-01              OVMax= 6.28D-02

 Cycle   2  Pass 1  IDiag  1:
 E= -706.357494694050     Delta-E=       -0.029598441113 Rises=F Damp=F
 DIIS: error= 1.45D-03 at cycle   2 NSaved=   2.
 NSaved= 2 IEnMin= 2 EnMin= -706.357494694050     IErMin= 2 ErrMin= 1.45D-03
 ErrMax= 1.45D-03  0.00D+00 EMaxC= 1.00D-01 BMatC= 6.38D-04 BMatP= 1.89D-02
 IDIUse=3 WtCom= 9.86D-01 WtEn= 1.45D-02
 Coeff-Com: -0.172D-01 0.102D+01
 Coeff-En:   0.000D+00 0.100D+01
 Coeff:     -0.169D-01 0.102D+01
 Gap=     0.129 Goal=   None    Shift=    0.000
 RMSDP=1.10D-03 MaxDP=4.64D-02 DE=-2.96D-02 OVMax= 2.30D-02

 Cycle   3  Pass 1  IDiag  1:
 E= -706.355697890837     Delta-E=        0.001796803213 Rises=F Damp=F
 DIIS: error= 3.19D-03 at cycle   3 NSaved=   3.
 NSaved= 3 IEnMin= 2 EnMin= -706.357494694050     IErMin= 2 ErrMin= 1.45D-03
 ErrMax= 3.19D-03  0.00D+00 EMaxC= 1.00D-01 BMatC= 2.81D-03 BMatP= 6.38D-04
 IDIUse=3 WtCom= 1.50D-01 WtEn= 8.50D-01
 Coeff-Com: -0.384D-01 0.726D+00 0.313D+00
 Coeff-En:   0.000D+00 0.759D+00 0.241D+00
 Coeff:     -0.577D-02 0.754D+00 0.252D+00
 Gap=     0.127 Goal=   None    Shift=    0.000
 RMSDP=6.07D-04 MaxDP=2.42D-02 DE= 1.80D-03 OVMax= 1.77D-02

 Cycle   4  Pass 1  IDiag  1:
 E= -706.358232572617     Delta-E=       -0.002534681780 Rises=F Damp=F
 DIIS: error= 3.42D-04 at cycle   4 NSaved=   4.
 NSaved= 4 IEnMin= 4 EnMin= -706.358232572617     IErMin= 4 ErrMin= 3.42D-04
 ErrMax= 3.42D-04  0.00D+00 EMaxC= 1.00D-01 BMatC= 3.22D-05 BMatP= 6.38D-04
 IDIUse=3 WtCom= 9.97D-01 WtEn= 3.42D-03
 Coeff-Com: -0.176D-01 0.224D+00 0.516D-01 0.742D+00
 Coeff-En:   0.000D+00 0.000D+00 0.000D+00 0.100D+01
 Coeff:     -0.176D-01 0.223D+00 0.514D-01 0.743D+00
 Gap=     0.127 Goal=   None    Shift=    0.000
 RMSDP=1.65D-04 MaxDP=3.61D-03 DE=-2.53D-03 OVMax= 2.65D-03

 Cycle   5  Pass 1  IDiag  1:
 E= -706.358245393986     Delta-E=       -0.000012821370 Rises=F Damp=F
 DIIS: error= 2.83D-04 at cycle   5 NSaved=   5.
 NSaved= 5 IEnMin= 5 EnMin= -706.358245393986     IErMin= 5 ErrMin= 2.83D-04
 ErrMax= 2.83D-04  0.00D+00 EMaxC= 1.00D-01 BMatC= 2.64D-05 BMatP= 3.22D-05
 IDIUse=3 WtCom= 9.97D-01 WtEn= 2.83D-03
 Coeff-Com: -0.816D-02 0.856D-01 0.840D-02 0.519D+00 0.395D+00
 Coeff-En:   0.000D+00 0.000D+00 0.000D+00 0.378D+00 0.622D+00
 Coeff:     -0.814D-02 0.853D-01 0.837D-02 0.518D+00 0.396D+00
 Gap=     0.126 Goal=   None    Shift=    0.000
 RMSDP=7.65D-05 MaxDP=2.57D-03 DE=-1.28D-05 OVMax= 1.94D-03

 Cycle   6  Pass 1  IDiag  1:
 E= -706.358264926845     Delta-E=       -0.000019532859 Rises=F Damp=F
 DIIS: error= 9.28D-05 at cycle   6 NSaved=   6.
 NSaved= 6 IEnMin= 6 EnMin= -706.358264926845     IErMin= 6 ErrMin= 9.28D-05
 ErrMax= 9.28D-05  0.00D+00 EMaxC= 1.00D-01 BMatC= 2.67D-06 BMatP= 2.64D-05
 IDIUse=1 WtCom= 1.00D+00 WtEn= 0.00D+00
 Coeff-Com: -0.884D-03-0.209D-02-0.697D-02 0.166D+00 0.262D+00 0.582D+00
 Coeff:     -0.884D-03-0.209D-02-0.697D-02 0.166D+00 0.262D+00 0.582D+00
 Gap=     0.126 Goal=   None    Shift=    0.000
 RMSDP=3.02D-05 MaxDP=1.17D-03 DE=-1.95D-05 OVMax= 5.86D-04

 Cycle   7  Pass 1  IDiag  1:
 E= -706.358267128709     Delta-E=       -0.000002201864 Rises=F Damp=F
 DIIS: error= 1.83D-05 at cycle   7 NSaved=   7.
 NSaved= 7 IEnMin= 7 EnMin= -706.358267128709     IErMin= 7 ErrMin= 1.83D-05
 ErrMax= 1.83D-05  0.00D+00 EMaxC= 1.00D-01 BMatC= 1.16D-07 BMatP= 2.67D-06
 IDIUse=1 WtCom= 1.00D+00 WtEn= 0.00D+00
 Coeff-Com:  0.516D-03-0.125D-01-0.472D-02 0.197D-01 0.785D-01 0.262D+00
 Coeff-Com:  0.657D+00
 Coeff:      0.516D-03-0.125D-01-0.472D-02 0.197D-01 0.785D-01 0.262D+00
 Coeff:      0.657D+00
 Gap=     0.126 Goal=   None    Shift=    0.000
 RMSDP=1.50D-05 MaxDP=6.69D-04 DE=-2.20D-06 OVMax= 1.91D-04

 Cycle   8  Pass 1  IDiag  1:
 E= -706.358267247621     Delta-E=       -0.000000118911 Rises=F Damp=F
 DIIS: error= 4.81D-06 at cycle   8 NSaved=   8.
 NSaved= 8 IEnMin= 8 EnMin= -706.358267247621     IErMin= 8 ErrMin= 4.81D-06
 ErrMax= 4.81D-06  0.00D+00 EMaxC= 1.00D-01 BMatC= 6.20D-09 BMatP= 1.16D-07
 IDIUse=1 WtCom= 1.00D+00 WtEn= 0.00D+00
 Coeff-Com:  0.252D-03-0.479D-02-0.124D-02-0.550D-03 0.189D-01 0.685D-01
 Coeff-Com:  0.248D+00 0.671D+00
 Coeff:      0.252D-03-0.479D-02-0.124D-02-0.550D-03 0.189D-01 0.685D-01
 Coeff:      0.248D+00 0.671D+00
 Gap=     0.126 Goal=   None    Shift=    0.000
 RMSDP=3.39D-06 MaxDP=1.98D-04 DE=-1.19D-07 OVMax= 9.46D-05

 Cycle   9  Pass 1  IDiag  1:
 E= -706.358267255979     Delta-E=       -0.000000008359 Rises=F Damp=F
 DIIS: error= 3.11D-06 at cycle   9 NSaved=   9.
 NSaved= 9 IEnMin= 9 EnMin= -706.358267255979     IErMin= 9 ErrMin= 3.11D-06
 ErrMax= 3.11D-06  0.00D+00 EMaxC= 1.00D-01 BMatC= 1.72D-09 BMatP= 6.20D-09
 IDIUse=1 WtCom= 1.00D+00 WtEn= 0.00D+00
 Coeff-Com:  0.327D-04-0.147D-03 0.341D-03-0.423D-02-0.487D-02-0.140D-01
 Coeff-Com:  0.485D-02 0.364D+00 0.654D+00
 Coeff:      0.327D-04-0.147D-03 0.341D-03-0.423D-02-0.487D-02-0.140D-01
 Coeff:      0.485D-02 0.364D+00 0.654D+00
 Gap=     0.126 Goal=   None    Shift=    0.000
 RMSDP=1.09D-06 MaxDP=3.67D-05 DE=-8.36D-09 OVMax= 3.94D-05

 Cycle  10  Pass 1  IDiag  1:
 E= -706.358267258903     Delta-E=       -0.000000002923 Rises=F Damp=F
 DIIS: error= 5.98D-07 at cycle  10 NSaved=  10.
 NSaved=10 IEnMin=10 EnMin= -706.358267258903     IErMin=10 ErrMin= 5.98D-07
 ErrMax= 5.98D-07  0.00D+00 EMaxC= 1.00D-01 BMatC= 6.57D-11 BMatP= 1.72D-09
 IDIUse=1 WtCom= 1.00D+00 WtEn= 0.00D+00
 Coeff-Com: -0.185D-04 0.506D-03 0.248D-03-0.925D-03-0.313D-02-0.106D-01
 Coeff-Com: -0.240D-01 0.110D-01 0.171D+00 0.855D+00
 Coeff:     -0.185D-04 0.506D-03 0.248D-03-0.925D-03-0.313D-02-0.106D-01
 Coeff:     -0.240D-01 0.110D-01 0.171D+00 0.855D+00
 Gap=     0.126 Goal=   None    Shift=    0.000
 RMSDP=4.01D-07 MaxDP=1.16D-05 DE=-2.92D-09 OVMax= 1.80D-05

 Cycle  11  Pass 1  IDiag  1:
 E= -706.358267259097     Delta-E=       -0.000000000194 Rises=F Damp=F
 DIIS: error= 1.49D-07 at cycle  11 NSaved=  11.
 NSaved=11 IEnMin=11 EnMin= -706.358267259097     IErMin=11 ErrMin= 1.49D-07
 ErrMax= 1.49D-07  0.00D+00 EMaxC= 1.00D-01 BMatC= 8.67D-12 BMatP= 6.57D-11
 IDIUse=1 WtCom= 1.00D+00 WtEn= 0.00D+00
 Coeff-Com: -0.817D-05 0.164D-03 0.489D-04 0.541D-04-0.555D-03-0.191D-02
 Coeff-Com: -0.727D-02-0.320D-01-0.266D-02 0.290D+00 0.755D+00
 Coeff:     -0.817D-05 0.164D-03 0.489D-04 0.541D-04-0.555D-03-0.191D-02
 Coeff:     -0.727D-02-0.320D-01-0.266D-02 0.290D+00 0.755D+00
 Gap=     0.126 Goal=   None    Shift=    0.000
 RMSDP=1.00D-07 MaxDP=4.37D-06 DE=-1.94D-10 OVMax= 5.08D-06

 Cycle  12  Pass 1  IDiag  1:
 E= -706.358267259115     Delta-E=       -0.000000000018 Rises=F Damp=F
 DIIS: error= 6.40D-08 at cycle  12 NSaved=  12.
 NSaved=12 IEnMin=12 EnMin= -706.358267259115     IErMin=12 ErrMin= 6.40D-08
 ErrMax= 6.40D-08  0.00D+00 EMaxC= 1.00D-01 BMatC= 1.38D-12 BMatP= 8.67D-12
 IDIUse=1 WtCom= 1.00D+00 WtEn= 0.00D+00
 Coeff-Com: -0.831D-06-0.374D-05-0.108D-04 0.119D-03 0.192D-03 0.610D-03
 Coeff-Com:  0.476D-03-0.152D-01-0.236D-01 0.835D-02 0.314D+00 0.715D+00
 Coeff:     -0.831D-06-0.374D-05-0.108D-04 0.119D-03 0.192D-03 0.610D-03
 Coeff:      0.476D-03-0.152D-01-0.236D-01 0.835D-02 0.314D+00 0.715D+00
 Gap=     0.126 Goal=   None    Shift=    0.000
 RMSDP=3.65D-08 MaxDP=7.17D-07 DE=-1.84D-11 OVMax= 1.63D-06

 Cycle  13  Pass 1  IDiag  1:
 E= -706.358267259117     Delta-E=       -0.000000000002 Rises=F Damp=F
 DIIS: error= 1.70D-08 at cycle  13 NSaved=  13.
 NSaved=13 IEnMin=13 EnMin= -706.358267259117     IErMin=13 ErrMin= 1.70D-08
 ErrMax= 1.70D-08  0.00D+00 EMaxC= 1.00D-01 BMatC= 1.00D-13 BMatP= 1.38D-12
 IDIUse=1 WtCom= 1.00D+00 WtEn= 0.00D+00
 Coeff-Com:  0.289D-06-0.138D-04-0.804D-05 0.463D-04 0.124D-03 0.394D-03
 Coeff-Com:  0.781D-03-0.420D-02-0.102D-01-0.194D-01 0.678D-01 0.285D+00
 Coeff-Com:  0.680D+00
 Coeff:      0.289D-06-0.138D-04-0.804D-05 0.463D-04 0.124D-03 0.394D-03
 Coeff:      0.781D-03-0.420D-02-0.102D-01-0.194D-01 0.678D-01 0.285D+00
 Coeff:      0.680D+00
 Gap=     0.126 Goal=   None    Shift=    0.000
 RMSDP=1.15D-08 MaxDP=4.92D-07 DE=-2.05D-12 OVMax= 3.41D-07

 Cycle  14  Pass 1  IDiag  1:
 E= -706.358267259118     Delta-E=       -0.000000000001 Rises=F Damp=F
 DIIS: error= 4.11D-09 at cycle  14 NSaved=  14.
 NSaved=14 IEnMin=14 EnMin= -706.358267259118     IErMin=14 ErrMin= 4.11D-09
 ErrMax= 4.11D-09  0.00D+00 EMaxC= 1.00D-01 BMatC= 5.28D-15 BMatP= 1.00D-13
 IDIUse=1 WtCom= 1.00D+00 WtEn= 0.00D+00
 Coeff-Com:  0.162D-06-0.399D-05-0.164D-05 0.554D-05 0.214D-04 0.775D-04
 Coeff-Com:  0.225D-03-0.812D-04-0.127D-02-0.660D-02-0.524D-02 0.310D-01
 Coeff-Com:  0.215D+00 0.767D+00
 Coeff:      0.162D-06-0.399D-05-0.164D-05 0.554D-05 0.214D-04 0.775D-04
 Coeff:      0.225D-03-0.812D-04-0.127D-02-0.660D-02-0.524D-02 0.310D-01
 Coeff:      0.215D+00 0.767D+00
 Gap=     0.126 Goal=   None    Shift=    0.000
 RMSDP=3.08D-09 MaxDP=7.20D-08 DE=-6.82D-13 OVMax= 6.43D-08

 Error on total polarization charges =  0.02306
 SCF Done:  E(RB3LYP) =  -706.358267259     A.U. after   14 cycles
            NFock= 14  Conv=0.31D-08     -V/T= 2.0046
 KE= 7.031098559070D+02 PE=-2.159164715617D+03 EE= 5.092537592328D+02
 SMD-CDS (non-electrostatic) energy       (kcal/mol) =      -0.93
 (included in total energy above)
 Leave Link  502 at Wed Jan  8 02:07:42 2020, MaxMem=  4294967296 cpu:            1007.6 elap:             252.8
 (Enter /home/cwagen/sw/g16/g16/l701.exe)
 ... and contract with generalized density number  0.
 Compute integral first derivatives.
 D1PCM: PCM CHGder 1st derivatives, ID1Alg=3 FixD1E=F DoIter=F DoCFld=F I1PDM=0.
 GePol: Maximum number of non-zero 1st derivatives   =     392
 Leave Link  701 at Wed Jan  8 02:08:12 2020, MaxMem=  4294967296 cpu:             118.1 elap:              30.0
 (Enter /home/cwagen/sw/g16/g16/l702.exe)
 L702 exits ... SP integral derivatives will be done elsewhere.
 Leave Link  702 at Wed Jan  8 02:08:13 2020, MaxMem=  4294967296 cpu:               1.9 elap:               0.6
 (Enter /home/cwagen/sw/g16/g16/l703.exe)
 Integral derivatives from FoFJK, PRISM(SPDF).
 Compute integral first derivatives, UseDBF=F ICtDFT=           0.
 Calling FoFJK, ICntrl=      2127 FMM=F ISym2X=0 I1Cent= 0 IOpClX= 0 NMat=1 NMatS=1 NMatT=0.
 FoFJK:  IHMeth= 1 ICntrl=    2127 DoSepK=F KAlg= 0 I1Cent=           0 FoldK=F
 IRaf=         0 NMat=       1 IRICut=       1 DoRegI=T DoRafI=F ISym2E= 0 IDoP0=0 IntGTp=1.
 FoFCou: FMM=F IPFlag=           0 FMFlag=      100000 FMFlg1=         800
         NFxFlg=           0 DoJE=F BraDBF=F KetDBF=F FulRan=T
         wScrn=  0.000000 ICntrl=      2127 IOpCl=  0 I1Cent=           0 NGrid=           0
         NMat0=    1 NMatS0=      1 NMatT0=    0 NMatD0=    1 NMtDS0=    0 NMtDT0=    0
 Symmetry not used in FoFCou.
 Leave Link  703 at Wed Jan  8 02:08:25 2020, MaxMem=  4294967296 cpu:              48.7 elap:              12.2
 (Enter /home/cwagen/sw/g16/g16/l716.exe)
 Dipole        =-2.53415555D+00-1.35063149D+00-1.03127207D+00
 ***** Axes restored to original set *****
 -------------------------------------------------------------------
 Center     Atomic                   Forces (Hartrees/Bohr)
 Number     Number              X              Y              Z
 -------------------------------------------------------------------
      1        6          -0.253373588   -0.210338461   -0.077845342
      2        8          -0.022734254    0.017809119    0.023072499
      3        6          -0.028363575    0.017346807    0.002231265
      4        1           0.000616101    0.000498757   -0.001304430
      5        1           0.001961361    0.000298492   -0.000013114
      6        1           0.002757062    0.001488477   -0.002444608
      7       17           0.004835399   -0.005656189   -0.000402242
      8        6           0.296997706    0.179566974    0.055590047
      9        7          -0.002696212   -0.001013977    0.001115925
 -------------------------------------------------------------------
 Cartesian Forces:  Max     0.296997706 RMS     0.094399937
 Leave Link  716 at Wed Jan  8 02:08:26 2020, MaxMem=  4294967296 cpu:               2.3 elap:               0.6
 (Enter /home/cwagen/sw/g16/g16/l103.exe)

 GradGradGradGradGradGradGradGradGradGradGradGradGradGradGradGradGradGrad
 Berny optimization.
 Using GEDIIS/GDIIS optimizer.
 FormGI is forming the generalized inverse of G from B-inverse, IUseBI=4.
 Internal  Forces:  Max     0.347215838 RMS     0.063387243
 Search for a local minimum.
 Step number   2 out of a maximum of   41
 All quantities printed in internal units (Hartrees-Bohrs-Radians)
 RMS Force = .11663D-01 SwitMx=.10000D-02 MixMth= 1
 Mixed Optimization -- RFO/linear search
 Update second derivatives using D2CorX and points    1    2
 DE= -3.21D-02 DEPred=-3.43D-02 R= 9.37D-01
 TightC=F SS=  1.41D+00  RLast= 4.15D-01 DXNew= 5.0454D-01 1.2446D+00
 Trust test= 9.37D-01 RLast= 4.15D-01 DXMaxT set to 5.05D-01
 ITU=  1  0
 Use linear search instead of GDIIS.
     Eigenvalues ---    0.00230   0.04681   0.04749   0.05363   0.05893
     Eigenvalues ---    0.08014   0.09566   0.15914   0.16000   0.16221
     Eigenvalues ---    0.23904   0.25000   0.25433   0.31413   0.33985
     Eigenvalues ---    0.34021   0.34463   0.66948   1.222401000.00000
     Eigenvalues --- 1000.000001000.000001000.000001000.000001000.00000
     Eigenvalues --- 1000.000001000.000001000.000001000.000001000.00000
     Eigenvalues --- 1000.00000
 RFO step:  Lambda=-2.03814388D-02 EMin= 2.30053579D-03
 Quartic linear search produced a step of  1.38242.
 Iteration  1 RMS(Cart)=  0.14001930 RMS(Int)=  0.04394241
 Iteration  2 RMS(Cart)=  0.03852872 RMS(Int)=  0.02566528
 Iteration  3 RMS(Cart)=  0.00303115 RMS(Int)=  0.02560059
 Iteration  4 RMS(Cart)=  0.00015663 RMS(Int)=  0.02560046
 Iteration  5 RMS(Cart)=  0.00000847 RMS(Int)=  0.02560046
 Iteration  6 RMS(Cart)=  0.00000046 RMS(Int)=  0.02560046
 Iteration  1 RMS(Cart)=  0.00000000 RMS(Int)=  0.00000000
 ITry= 1 IFail=0 DXMaxC= 4.26D-01 DCOld= 1.00D+10 DXMaxT= 5.05D-01 DXLimC= 3.00D+00 Rises=F
 Variable       Old X    -DE/DX   Delta X   Delta X   Delta X     New X
                                 (Linear)    (Quad)   (Total)
    R1        2.43133  -0.02300  -0.02895  -0.04146  -0.07041   2.36092
    R2        2.96460  -0.01119   0.02706  -0.12771  -0.10065   2.86395
    R3        5.48021  -0.00726   0.00000   0.00000   0.00000   5.48021
    R4        2.26767   0.34722   0.00000   0.00000   0.00000   2.26767
    R5        2.06948  -0.00098  -0.00530   0.00054  -0.00476   2.06472
    R6        2.07577  -0.00193   0.00149  -0.01468  -0.01319   2.06258
    R7        2.06484   0.00102  -0.00531   0.01361   0.00830   2.07314
    R8        2.21141  -0.00273   0.00301  -0.00892  -0.00590   2.20551
    A1        2.03209   0.00732   0.04897   0.02608  -0.00092   2.03117
    A2        1.93583  -0.00772  -0.11508  -0.03756  -0.16220   1.77363
    A3        1.95933   0.00250   0.09254   0.13739   0.15210   2.11143
    A4        1.82510  -0.01767  -0.13699  -0.08935  -0.21147   1.61363
    A5        1.94020   0.02556   0.23260   0.00162   0.16217   2.10237
    A6        1.74462  -0.01592  -0.12465  -0.07291  -0.15959   1.58503
    A7        1.96769  -0.00076  -0.00869   0.00216  -0.00715   1.96055
    A8        1.91042   0.00145   0.04285  -0.03502   0.00788   1.91830
    A9        1.87508  -0.00538  -0.03638  -0.02566  -0.06256   1.81252
   A10        1.89804   0.00066  -0.00764   0.03229   0.02454   1.92257
   A11        1.91598   0.00215   0.01051   0.00007   0.00929   1.92526
   A12        1.89542   0.00196  -0.00017   0.02648   0.02659   1.92201
   A13        3.05830  -0.00133  -0.06153   0.06497   0.00345   3.06174
   A14        3.06856   0.00246   0.18263  -0.24508  -0.06245   3.00611
    D1       -3.10662   0.01731   0.18173   0.10405   0.28999  -2.81663
    D2       -0.99163   0.01867   0.19622   0.12194   0.32214  -0.66949
    D3        1.06339   0.01874   0.19940   0.12005   0.32288   1.38626
    D4       -0.96409  -0.00138  -0.05148   0.00456  -0.03287  -0.99696
    D5        1.15090  -0.00002  -0.03700   0.02245  -0.00072   1.15018
    D6       -3.07726   0.00005  -0.03382   0.02056   0.00002  -3.07725
    D7        0.90330  -0.01813  -0.14918  -0.12128  -0.28772   0.61558
    D8        3.01829  -0.01677  -0.13470  -0.10339  -0.25557   2.76272
    D9       -1.20988  -0.01670  -0.13152  -0.10529  -0.25484  -1.46472
         Item               Value     Threshold  Converged?
 Maximum Force            0.025562     0.000450     NO 
 RMS     Force            0.011663     0.000300     NO 
 Maximum Displacement     0.425829     0.001800     NO 
 RMS     Displacement     0.166057     0.001200     NO 
 Predicted change in Energy=-2.523443D-02
 Lowest energy point so far.  Saving SCF results.
 GradGradGradGradGradGradGradGradGradGradGradGradGradGradGradGradGradGrad

 Leave Link  103 at Wed Jan  8 02:09:30 2020, MaxMem=  4294967296 cpu:             254.4 elap:              64.0
 (Enter /home/cwagen/sw/g16/g16/l202.exe)
                          Input orientation:                          
 ---------------------------------------------------------------------
 Center     Atomic      Atomic             Coordinates (Angstroms)
 Number     Number       Type             X           Y           Z
 ---------------------------------------------------------------------
      1          6           0        0.063992   -0.508675   -0.267956
      2          8           0       -0.369733   -0.716928   -1.420942
      3          6           0       -0.406457   -1.463293    0.811041
      4          1           0       -0.268860   -1.055197    1.815187
      5          1           0       -1.455145   -1.719162    0.649514
      6          1           0        0.224313   -2.349823    0.670583
      7         17           0       -1.705082    1.597897    0.650049
      8          6           0        1.020991    0.191877   -0.085261
      9          7           0        2.031993    0.760600    0.043433
 ---------------------------------------------------------------------
                    Distance matrix (angstroms):
                    1          2          3          4          5
     1  C    0.000000
     2  O    1.249345   0.000000
     3  C    1.515537   2.353754   0.000000
     4  H    2.179212   3.255324   1.092604   0.000000
     5  H    2.148210   2.543498   1.091470   1.790786   0.000000
     6  H    2.072772   2.719138   1.097058   1.797052   1.794090
     7  Cl   2.900000   3.380913   3.329148   3.234067   3.326461
     8  C    1.200000   2.131686   2.362320   2.613544   3.212976
     9  N    2.362425   3.177384   3.388356   3.424931   4.321653
                    6          7          8          9
     6  H    0.000000
     7  Cl   4.394028   0.000000
     8  C    2.768797   3.154210   0.000000
     9  N    3.651815   3.877470   1.167104   0.000000
 Stoichiometry    C3H3ClNO(1-)
 Framework group  C1[X(C3H3ClNO)]
 Deg. of freedom    21
 Full point group                 C1      NOp   1
 RotChk:  IX=0 Diff= 1.31D-01
 Largest Abelian subgroup         C1      NOp   1
 Largest concise Abelian subgroup C1      NOp   1
                         Standard orientation:                         
 ---------------------------------------------------------------------
 Center     Atomic      Atomic             Coordinates (Angstroms)
 Number     Number       Type             X           Y           Z
 ---------------------------------------------------------------------
      1          6           0       -0.793983   -0.345186    0.166749
      2          8           0       -0.897058   -0.806305    1.323299
      3          6           0       -0.727968   -1.358150   -0.958594
      4          1           0       -0.320804   -0.931118   -1.878183
      5          1           0       -0.133828   -2.219730   -0.648779
      6          1           0       -1.773784   -1.654506   -1.106850
      7         17           0        2.049330    0.202747    0.007554
      8          6           0       -1.046001    0.805084   -0.064263
      9          7           0       -1.432287    1.885515   -0.277765
 ---------------------------------------------------------------------
 Rotational constants (GHZ):           3.4431015           1.9155213           1.5769299
 Leave Link  202 at Wed Jan  8 02:09:33 2020, MaxMem=  4294967296 cpu:               5.2 elap:               2.0
 (Enter /home/cwagen/sw/g16/g16/l301.exe)
 Standard basis: 6-31+G(d) (6D, 7F)
 Ernie: Thresh=  0.10000D-02 Tol=  0.10000D-05 Strict=F.
 There are   124 symmetry adapted cartesian basis functions of A   symmetry.
 There are   124 symmetry adapted basis functions of A   symmetry.
   124 basis functions,   228 primitive gaussians,   124 cartesian basis functions
    27 alpha electrons       27 beta electrons
       nuclear repulsion energy       245.7687366300 Hartrees.
 IExCor=  402 DFT=T Ex+Corr=B3LYP ExCW=0 ScaHFX=  0.200000
 ScaDFX=  0.800000  0.720000  1.000000  0.810000 ScalE2=  1.000000  1.000000
 IRadAn=      5 IRanWt=     -1 IRanGd=            0 ICorTp=0 IEmpDi=  4
 NAtoms=    9 NActive=    9 NUniq=    9 SFac= 1.00D+00 NAtFMM=   60 NAOKFM=F Big=F
 Integral buffers will be    131072 words long.
 Raffenetti 2 integral format.
 Two-electron integral symmetry is turned on.
 ------------------------------------------------------------------------------
 Polarizable Continuum Model (PCM)
 =================================
 Model                : PCM.
 Atomic radii         : SMD-Coulomb.
 Polarization charges : Total charges.
 Charge compensation  : None.
 Solution method      : On-the-fly selection.
 Cavity type          : VdW (van der Waals Surface) (Alpha=1.000).
 Cavity algorithm     : GePol (No added spheres)
                        Default sphere list used, NSphG=    9.
                        Lebedev-Laikov grids with approx.  5.0 points / Ang**2.
                        Smoothing algorithm: York/Karplus (Gamma=1.0000).
                        Polarization charges: spherical gaussians, with
                                              point-specific exponents (IZeta= 3).
                        Self-potential: point-specific (ISelfS= 7).
                        Self-field    : sphere-specific E.n sum rule (ISelfD= 2).
 1st derivatives      : Analytical E(r).r(x)/FMM algorithm (CHGder, D1EAlg=3).
                        Cavity 1st derivative terms included.
 Solvent              : TetraHydroFuran, Eps=   7.425700 Eps(inf)=   1.974025
 ------------------------------------------------------------------------------
 Spheres list:
 ISph  on   Nord     Re0    Alpha      Xe            Ye            Ze
    1   C      1    1.8500  1.000     -0.793983     -0.345186      0.166749
    2   O      2    2.2940  1.000     -0.897058     -0.806305      1.323299
    3   C      3    1.8500  1.000     -0.727968     -1.358150     -0.958594
[...]
 (Enter /home/cwagen/sw/g16/g16/l103.exe)

 GradGradGradGradGradGradGradGradGradGradGradGradGradGradGradGradGradGrad
 Berny optimization.
 Using GEDIIS/GDIIS optimizer.
 FormGI is forming the generalized inverse of G from B-inverse, IUseBI=4.
 Internal  Forces:  Max     0.345747269 RMS     0.062101270
 Search for a local minimum.
 Step number  12 out of a maximum of   41
 All quantities printed in internal units (Hartrees-Bohrs-Radians)
 RMS Force = .18320D-04 SwitMx=.10000D-02 MixMth= 2
 Mixed Optimization -- En-DIIS/RFO-DIIS
 Swapping is turned off.
 Update second derivatives using D2CorX and points    3    4    5    7    8
                                                      9   10   11   12
 DE= -2.36D-06 DEPred=-3.24D-07 R= 7.29D+00
 TightC=F SS=  1.41D+00  RLast= 3.75D-03 DXNew= 1.3080D+00 1.1249D-02
 Trust test= 7.29D+00 RLast= 3.75D-03 DXMaxT set to 7.78D-01
 ITU=  1  1  1  0  1  1 -1  1  1  1  1  0
     Eigenvalues ---    0.00121   0.02696   0.05049   0.05504   0.06019
     Eigenvalues ---    0.06509   0.07919   0.11316   0.16048   0.16518
     Eigenvalues ---    0.17306   0.26656   0.27564   0.31557   0.33981
     Eigenvalues ---    0.34407   0.34609   0.73329   1.224591000.00000
     Eigenvalues --- 1000.000001000.000001000.000001000.000001000.00000
     Eigenvalues --- 1000.000001000.000001000.000001000.000001000.00000
     Eigenvalues --- 1000.00000
 En-DIIS/RFO-DIIS/Sim-DIIS IScMMF=       -3 using points:    12   11   10    9    8    7    6    5
 RFO step:  Lambda=-1.19631485D-04.
 NNeg= 0 NGDIIS= 8 SimSw=  2.50D-01 Rises=F DC= -2.36D-06 SmlDif=  1.00D-05
 NRisDI= 0 DoIntr=F SqrtH=F CThrHd= 10.0 CDAdj=  3.0
 RMS Error=  0.5309626088D-03 NUsed= 8 OKEnD=F EnDIS=F
 InvSVX:  RCond= 1.14D-08 Info=           0 Equed=N FErr=  2.16D-12 BErr=  7.37D-17
 DIIS inversion failure, remove point   8.
 InvSVX:  RCond= 3.29D-08 Info=           0 Equed=N FErr=  6.15D-13 BErr=  5.59D-17
 DIIS inversion failure, remove point   7.
 InvSVX:  RCond= 4.70D-08 Info=           0 Equed=N FErr=  3.05D-13 BErr=  1.04D-16
 DIIS inversion failure, remove point   6.
 InvSVX:  RCond= 1.24D-07 Info=           0 Equed=N FErr=  1.03D-13 BErr=  8.86D-17
 RFO-DIIS uses    5 points instead of    8
 DidBck=F Rises=F RFO-DIIS coefs:    1.25374   -0.23943   -0.06269    0.04144    0.00694
                  RFO-DIIS coefs:    0.00000    0.00000    0.00000
 Iteration  1 RMS(Cart)=  0.00065530 RMS(Int)=  0.00000022
 Iteration  2 RMS(Cart)=  0.00000022 RMS(Int)=  0.00000007
 Iteration  1 RMS(Cart)=  0.00000000 RMS(Int)=  0.00000000
 ITry= 1 IFail=0 DXMaxC= 1.57D-03 DCOld= 1.00D+10 DXMaxT= 7.78D-01 DXLimC= 3.00D+00 Rises=F
 Variable       Old X    -DE/DX   Delta X   Delta X   Delta X     New X
                                 (Linear)    (Quad)   (Total)
    R1        2.36473  -0.00002   0.00002  -0.00002  -0.00001   2.36472
    R2        2.88405  -0.00003  -0.00001  -0.00008  -0.00009   2.88397
    R3        5.48021   0.00352   0.00000   0.00000   0.00000   5.48021
    R4        2.26767   0.34575   0.00000   0.00000   0.00000   2.26767
    R5        2.06326   0.00000  -0.00003   0.00001  -0.00002   2.06324
    R6        2.06398   0.00000   0.00001  -0.00002  -0.00001   2.06396
    R7        2.07823   0.00000   0.00001   0.00001   0.00002   2.07825
    R8        2.20738  -0.00001  -0.00001   0.00000  -0.00001   2.20737
    A1        2.08874   0.00005   0.00004   0.00014   0.00018   2.08893
    A2        1.84166   0.00002   0.00039  -0.00001   0.00038   1.84204
    A3        2.09650  -0.00002  -0.00009   0.00000  -0.00009   2.09641
    A4        1.58228  -0.00004  -0.00043  -0.00009  -0.00052   1.58176
    A5        2.07735  -0.00004   0.00000  -0.00012  -0.00012   2.07723
    A6        1.47461   0.00002   0.00027  -0.00003   0.00024   1.47485
    A7        1.96652  -0.00003   0.00002  -0.00015  -0.00013   1.96639
    A8        1.89986   0.00001   0.00000   0.00013   0.00013   1.89998
    A9        1.87303   0.00001  -0.00007   0.00004  -0.00003   1.87300
   A10        1.92284   0.00001   0.00006   0.00007   0.00013   1.92297
   A11        1.89907   0.00000  -0.00001  -0.00005  -0.00006   1.89901
   A12        1.90097  -0.00001   0.00000  -0.00004  -0.00004   1.90092
   A13        3.04743  -0.00001  -0.00003  -0.00001  -0.00004   3.04739
   A14        3.00424   0.00001   0.00018   0.00007   0.00025   3.00449
    D1       -2.78780  -0.00001  -0.00120  -0.00001  -0.00121  -2.78901
    D2       -0.64949  -0.00001  -0.00111   0.00006  -0.00104  -0.65053
    D3        1.40530   0.00000  -0.00116   0.00011  -0.00104   1.40426
    D4       -0.89706  -0.00001  -0.00100  -0.00005  -0.00105  -0.89810
    D5        1.24126   0.00000  -0.00090   0.00002  -0.00088   1.24038
    D6       -2.98713   0.00000  -0.00095   0.00007  -0.00088  -2.98802
    D7        0.57009   0.00000  -0.00092  -0.00014  -0.00106   0.56903
    D8        2.70840   0.00000  -0.00083  -0.00006  -0.00089   2.70751
    D9       -1.51999   0.00001  -0.00088  -0.00002  -0.00089  -1.52088
         Item               Value     Threshold  Converged?
 Maximum Force            0.000052     0.000450     YES
 RMS     Force            0.000018     0.000300     YES
 Maximum Displacement     0.001569     0.001800     YES
 RMS     Displacement     0.000655     0.001200     YES
 Predicted change in Energy=-3.925244D-08
 Optimization completed.
    -- Stationary point found.
                           ----------------------------
                           !   Optimized Parameters   !
                           ! (Angstroms and Degrees)  !
 --------------------------                            --------------------------
 ! Name  Definition              Value          Derivative Info.                !
 --------------------------------------------------------------------------------
 ! R1    R(1,2)                  1.2514         -DE/DX =    0.0                 !
 ! R2    R(1,3)                  1.5262         -DE/DX =    0.0                 !
 ! R3    R(1,7)                  2.9            -DE/DX =    0.0035              !
 ! R4    R(1,8)                  1.2            -DE/DX =    0.3457              !
 ! R5    R(3,4)                  1.0918         -DE/DX =    0.0                 !
 ! R6    R(3,5)                  1.0922         -DE/DX =    0.0                 !
 ! R7    R(3,6)                  1.0998         -DE/DX =    0.0                 !
 ! R8    R(8,9)                  1.1681         -DE/DX =    0.0                 !
 ! A1    A(2,1,3)              119.676          -DE/DX =    0.0001              !
 ! A2    A(2,1,7)              105.5194         -DE/DX =    0.0                 !
 ! A3    A(2,1,8)              120.1206         -DE/DX =    0.0                 !
 ! A4    A(3,1,7)               90.6579         -DE/DX =    0.0                 !
 ! A5    A(3,1,8)              119.0235         -DE/DX =    0.0                 !
 ! A6    A(7,1,8)               84.4891         -DE/DX =    0.0                 !
 ! A7    A(1,3,4)              112.6735         -DE/DX =    0.0                 !
 ! A8    A(1,3,5)              108.8539         -DE/DX =    0.0                 !
 ! A9    A(1,3,6)              107.3169         -DE/DX =    0.0                 !
 ! A10   A(4,3,5)              110.1705         -DE/DX =    0.0                 !
 ! A11   A(4,3,6)              108.8087         -DE/DX =    0.0                 !
 ! A12   A(5,3,6)              108.9174         -DE/DX =    0.0                 !
 ! A13   L(1,8,9,6,-1)         174.6047         -DE/DX =    0.0                 !
 ! A14   L(1,8,9,6,-2)         172.1305         -DE/DX =    0.0                 !
 ! D1    D(2,1,3,4)           -159.7294         -DE/DX =    0.0                 !
 ! D2    D(2,1,3,5)            -37.213          -DE/DX =    0.0                 !
 ! D3    D(2,1,3,6)             80.518          -DE/DX =    0.0                 !
 ! D4    D(7,1,3,4)            -51.3975         -DE/DX =    0.0                 !
 ! D5    D(7,1,3,5)             71.1188         -DE/DX =    0.0                 !
 ! D6    D(7,1,3,6)           -171.1502         -DE/DX =    0.0                 !
 ! D7    D(8,1,3,4)             32.6638         -DE/DX =    0.0                 !
 ! D8    D(8,1,3,5)            155.1802         -DE/DX =    0.0                 !
 ! D9    D(8,1,3,6)            -87.0889         -DE/DX =    0.0                 !
 --------------------------------------------------------------------------------
 Lowest energy point so far.  Saving SCF results.
 Largest change from initial coordinates is atom    9       0.669 Angstoms.
 GradGradGradGradGradGradGradGradGradGradGradGradGradGradGradGradGradGrad

 Leave Link  103 at Wed Jan  8 03:06:13 2020, MaxMem=  4294967296 cpu:             120.8 elap:              30.4
 (Enter /home/cwagen/sw/g16/g16/l202.exe)
                          Input orientation:                          
 ---------------------------------------------------------------------
 Center     Atomic      Atomic             Coordinates (Angstroms)
 Number     Number       Type             X           Y           Z
 ---------------------------------------------------------------------
      1          6           0        0.063387   -0.544628   -0.315717
      2          8           0       -0.336334   -0.736983   -1.485814
      3          6           0       -0.404662   -1.469645    0.804321
      4          1           0       -0.294126   -1.021761    1.793903
      5          1           0       -1.448312   -1.738526    0.627068
      6          1           0        0.211082   -2.379587    0.756177
      7         17           0       -1.584648    1.603144    0.724023
      8          6           0        0.973965    0.208437   -0.106572
      9          7           0        1.955659    0.816845    0.068260
 ---------------------------------------------------------------------
                    Distance matrix (angstroms):
                    1          2          3          4          5
     1  C    0.000000
     2  O    1.251362   0.000000
     3  C    1.526175   2.405448   0.000000
     4  H    2.192251   3.292328   1.091829   0.000000
     5  H    2.144637   2.589180   1.092209   1.790921   0.000000
     6  H    2.130222   2.832726   1.099751   1.782078   1.783596
     7  Cl   2.900000   3.452226   3.292544   3.114517   3.345855
     8  C    1.200000   2.124385   2.355058   2.594849   3.193167
     9  N    2.362571   3.175337   3.367631   3.379327   4.292925
                    6          7          8          9
     6  H    0.000000
     7  Cl   4.368962   0.000000
     8  C    2.832701   3.030114   0.000000
     9  N    3.705936   3.685385   1.168097   0.000000
 Stoichiometry    C3H3ClNO(1-)
 Framework group  C1[X(C3H3ClNO)]
 Deg. of freedom    21
 Full point group                 C1      NOp   1
 RotChk:  IX=0 Diff= 1.06D-15
 Largest Abelian subgroup         C1      NOp   1
 Largest concise Abelian subgroup C1      NOp   1
                         Standard orientation:                         
 ---------------------------------------------------------------------
 Center     Atomic      Atomic             Coordinates (Angstroms)
 Number     Number       Type             X           Y           Z
 ---------------------------------------------------------------------
      1          6           0       -0.858322   -0.312063    0.166821
      2          8           0       -1.095459   -0.729578    1.322396
      3          6           0       -0.793674   -1.299633   -0.994961
      4          1           0       -0.250443   -0.902825   -1.854923
      5          1           0       -0.325733   -2.223302   -0.647416
      6          1           0       -1.828299   -1.516336   -1.298346
      7         17           0        2.015026    0.062925    0.051695
      8          6           0       -0.904907    0.863384   -0.070146
      9          7           0       -1.106554    1.985604   -0.323942
 ---------------------------------------------------------------------
 Rotational constants (GHZ):           3.3867545           1.9835188           1.6269731
 Leave Link  202 at Wed Jan  8 03:06:14 2020, MaxMem=  4294967296 cpu:               3.9 elap:               1.4
 (Enter /home/cwagen/sw/g16/g16/l601.exe)
 Copying SCF densities to generalized density rwf, IOpCl= 0 IROHF=0.

 **********************************************************************

            Population analysis using the SCF density.

 **********************************************************************

 Orbital symmetries:
       Occupied  (A) (A) (A) (A) (A) (A) (A) (A) (A) (A) (A) (A)
                 (A) (A) (A) (A) (A) (A) (A) (A) (A) (A) (A) (A)
                 (A) (A) (A)
       Virtual   (A) (A) (A) (A) (A) (A) (A) (A) (A) (A) (A) (A)
                 (A) (A) (A) (A) (A) (A) (A) (A) (A) (A) (A) (A)
                 (A) (A) (A) (A) (A) (A) (A) (A) (A) (A) (A) (A)
                 (A) (A) (A) (A) (A) (A) (A) (A) (A) (A) (A) (A)
                 (A) (A) (A) (A) (A) (A) (A) (A) (A) (A) (A) (A)
                 (A) (A) (A) (A) (A) (A) (A) (A) (A) (A) (A) (A)
                 (A) (A) (A) (A) (A) (A) (A) (A) (A) (A) (A) (A)
                 (A) (A) (A) (A) (A) (A) (A) (A) (A) (A) (A) (A)
                 (A)
 The electronic state is 1-A.
 Alpha  occ. eigenvalues -- -101.42003 -19.14739 -14.35576 -10.27672 -10.22542
 Alpha  occ. eigenvalues --  -10.17583  -9.33366  -7.09218  -7.09105  -7.09105
 Alpha  occ. eigenvalues --   -1.04163  -0.91872  -0.78265  -0.69021  -0.67327
 Alpha  occ. eigenvalues --   -0.47789  -0.45502  -0.45378  -0.39201  -0.38227
 Alpha  occ. eigenvalues --   -0.37719  -0.33162  -0.31971  -0.26104  -0.21850
 Alpha  occ. eigenvalues --   -0.21666  -0.21630
 Alpha virt. eigenvalues --   -0.08800   0.01349   0.02506   0.04871   0.05921
 Alpha virt. eigenvalues --    0.06886   0.08929   0.09270   0.09406   0.10426
 Alpha virt. eigenvalues --    0.10712   0.12326   0.13291   0.13660   0.14255
 Alpha virt. eigenvalues --    0.14751   0.16522   0.17812   0.20265   0.21673
 Alpha virt. eigenvalues --    0.24787   0.25211   0.25768   0.26758   0.28066
 Alpha virt. eigenvalues --    0.28704   0.29924   0.32569   0.36038   0.37224
 Alpha virt. eigenvalues --    0.40361   0.45585   0.48048   0.59312   0.62901
 Alpha virt. eigenvalues --    0.65814   0.68110   0.68485   0.69727   0.71666
 Alpha virt. eigenvalues --    0.75092   0.78535   0.80303   0.82183   0.85221
 Alpha virt. eigenvalues --    0.88826   0.91104   0.96354   0.98381   0.99153
 Alpha virt. eigenvalues --    0.99726   1.00410   1.02687   1.03850   1.04658
 Alpha virt. eigenvalues --    1.06469   1.10520   1.13654   1.16260   1.24443
 Alpha virt. eigenvalues --    1.28250   1.33469   1.35874   1.37427   1.42909
 Alpha virt. eigenvalues --    1.46015   1.55680   1.56621   1.66404   1.67856
 Alpha virt. eigenvalues --    1.74939   1.81579   1.85133   1.88608   1.93536
 Alpha virt. eigenvalues --    1.96516   2.02523   2.05736   2.14361   2.24943
 Alpha virt. eigenvalues --    2.28130   2.34012   2.38181   2.52889   2.61227
 Alpha virt. eigenvalues --    2.82379   2.98716   3.01809   3.04867   3.32146
 Alpha virt. eigenvalues --    3.52422   4.19889   4.27481   4.33983   4.43478
 Alpha virt. eigenvalues --    4.53357   4.87569
          Condensed to atoms (all electrons):
               1          2          3          4          5          6
     1  C    8.876987   0.688275   0.383879  -0.154106  -0.098404   0.048310
     2  O    0.688275   8.205596  -0.169489   0.008866   0.000529  -0.005291
     3  C    0.383879  -0.169489   6.350413   0.393192   0.398427   0.328028
     4  H   -0.154106   0.008866   0.393192   0.462865  -0.020308  -0.024928
     5  H   -0.098404   0.000529   0.398427  -0.020308   0.449334  -0.023059
     6  H    0.048310  -0.005291   0.328028  -0.024928  -0.023059   0.470372
     7  Cl   0.270749  -0.043777  -0.111337   0.000772  -0.005701   0.003059
     8  C   -4.179048  -0.232132  -0.963564   0.085275   0.045910  -0.041639
     9  N    0.011473  -0.018569   0.000009   0.002442  -0.000653  -0.002575
               7          8          9
     1  C    0.270749  -4.179048   0.011473
     2  O   -0.043777  -0.232132  -0.018569
     3  C   -0.111337  -0.963564   0.000009
     4  H    0.000772   0.085275   0.002442
     5  H   -0.005701   0.045910  -0.000653
     6  H    0.003059  -0.041639  -0.002575
     7  Cl  17.904968  -0.150499  -0.020137
     8  C   -0.150499  10.753404   0.149773
     9  N   -0.020137   0.149773   7.418559
 Mulliken charges:
               1
     1  C    0.151884
     2  O   -0.434007
     3  C   -0.609557
     4  H    0.245928
     5  H    0.253925
     6  H    0.247724
     7  Cl  -0.848096
     8  C    0.532521
     9  N   -0.540322
 Sum of Mulliken charges =  -1.00000
 Mulliken charges with hydrogens summed into heavy atoms:
               1
     1  C    0.151884
     2  O   -0.434007
     3  C    0.138020
     7  Cl  -0.848096
     8  C    0.532521
     9  N   -0.540322
 Electronic spatial extent (au):  <R**2>=            787.0171
 Charge=             -1.0000 electrons
 Dipole moment (field-independent basis, Debye):
    X=             -6.9844    Y=             -2.9453    Z=             -3.0239  Tot=              8.1609
 Quadrupole moment (field-independent basis, Debye-Ang):
   XX=            -65.4844   YY=            -53.2335   ZZ=            -49.1134
   XY=              2.3781   XZ=              2.6221   YZ=              4.4187
 Traceless Quadrupole moment (field-independent basis, Debye-Ang):
   XX=             -9.5407   YY=              2.7103   ZZ=              6.8304
   XY=              2.3781   XZ=              2.6221   YZ=              4.4187
 Octapole moment (field-independent basis, Debye-Ang**2):
  XXX=            -53.0173  YYY=            -25.6360  ZZZ=             -4.8501  XYY=              4.7452
  XXY=             -6.7000  XXZ=             -3.9385  XZZ=             -1.1822  YZZ=              0.0936
  YYZ=              1.4281  XYZ=             -5.1141
 Hexadecapole moment (field-independent basis, Debye-Ang**3):
 XXXX=           -700.8322 YYYY=           -380.1589 ZZZZ=           -187.3741 XXXY=              8.5355
 XXXZ=              0.0026 YYYX=             25.3778 YYYZ=             10.4010 ZZZX=              2.2545
 ZZZY=              3.5624 XXYY=           -175.0656 XXZZ=           -141.2439 YYZZ=            -91.3920
 XXYZ=              6.3221 YYXZ=             -1.9501 ZZXY=             -0.5848
 N-N= 2.467388517428D+02 E-N=-2.172135821124D+03  KE= 7.032804961334D+02
 No NMR shielding tensors so no spin-rotation constants.
 Leave Link  601 at Wed Jan  8 03:06:22 2020, MaxMem=  4294967296 cpu:              28.1 elap:               7.1
 (Enter /home/cwagen/sw/g16/g16/l9999.exe)
 1\1\GINC-NODE088\FOpt\RB3LYP\6-31+G(d)\C3H3Cl1N1O1(1-)\CWAGEN\08-Jan-2
 020\0\\#p opt=modredundant b3lyp/6-31+g(d) scrf=(smd, solvent=tetrahyd
 rofuran)\\title\\-1,1\C,0.0633869124,-0.5446278758,-0.3157165304\O,-0.
 3363341543,-0.7369833279,-1.485814067\C,-0.4046618872,-1.4696452505,0.
 8043208361\H,-0.2941258934,-1.0217613606,1.7939025942\H,-1.4483118482,
 -1.7385256983,0.6270683878\H,0.2110816315,-2.3795873162,0.7561765427\C
 l,-1.5846475556,1.6031441579,0.724022703\C,0.9739645226,0.2084370609,-
 0.1065715781\N,1.9556590922,0.8168452407,0.0682600818\\Version=AS64L-G
 16RevA.03\State=1-A\HF=-706.3836546\RMSD=7.196e-09\RMSF=9.416e-02\Dipo
 le=1.3149265,-2.9196643,0.2353308\Quadrupole=-4.093091,1.4872671,2.605
 8239,3.2736728,1.978383,-5.5038177\PG=C01 [X(C3H3Cl1N1O1)]\\@


 TO SEE A WORLD IN A GRAIN OF SAND
 AND A HEAVEN IN A WILD FLOWER
 HOLD INFINITY IN THE PALM OF YOUR HAND
 AND ETERNITY IN AN HOUR

                       -- WILLIAM BLAKE
 Job cpu time:       0 days  4 hours 38 minutes 27.6 seconds.
 Elapsed time:       0 days  1 hours 10 minutes 26.1 seconds.
 File lengths (MBytes):  RWF=     61 Int=      0 D2E=      0 Chk=      4 Scr=      1
 Normal termination of Gaussian 16 at Wed Jan  8 03:06:23 2020.
