 Entering Gaussian System, Link 0=g16
 Input=scan_320_220.gjf
 Output=scan_320_220.out
 Initial command:
 /home/cwagen/sw/g16/g16/l1.exe "/scratch/users/cwagen/cwagen_scan_320_220/Gau-29515.inp" -scrdir="/scratch/users/cwagen/cwagen_scan_320_220/"
 Entering Link 1 = /home/cwagen/sw/g16/g16/l1.exe PID=     29516.
  
 Copyright (c) 1988,1990,1992,1993,1995,1998,2003,2009,2016,
            Gaussian, Inc.  All Rights Reserved.
  
 This is part of the Gaussian(R) 16 program.  It is based on
 the Gaussian(R) 09 system (copyright 2009, Gaussian, Inc.),
 the Gaussian(R) 03 system (copyright 2003, Gaussian, Inc.),
 the Gaussian(R) 98 system (copyright 1998, Gaussian, Inc.),
 the Gaussian(R) 94 system (copyright 1995, Gaussian, Inc.),
 the Gaussian 92(TM) system (copyright 1992, Gaussian, Inc.),
 the Gaussian 90(TM) system (copyright 1990, Gaussian, Inc.),
 the Gaussian 88(TM) system (copyright 1988, Gaussian, Inc.),
 the Gaussian 86(TM) system (copyright 1986, Carnegie Mellon
 University), and the Gaussian 82(TM) system (copyright 1983,
 Carnegie Mellon University). Gaussian is a federally registered
 trademark of Gaussian, Inc.
  
 This software contains proprietary and confidential information,
 including trade secrets, belonging to Gaussian, Inc.
  
 This software is provided under written license and may be
 used, copied, transmitted, or stored only in accord with that
 written license.
  
 The following legend is applicable only to US Government
 contracts under FAR:
  
                    RESTRICTED RIGHTS LEGEND
  
 Use, reproduction and disclosure by the US Government is
 subject to restrictions as set forth in subparagraphs (a)
 and (c) of the Commercial Computer Software - Restricted
 Rights clause in FAR 52.227-19.
  
 Gaussian, Inc.
 340 Quinnipiac St., Bldg. 40, Wallingford CT 06492
  
  
 ---------------------------------------------------------------
 Warning -- This program may not be used in any manner that
 competes with the business of Gaussian, Inc. or will provide
 assistance to any competitor of Gaussian, Inc.  The licensee
 of this program is prohibited from giving any competitor of
 Gaussian, Inc. access to this program.  By using this program,
 the user acknowledges that Gaussian, Inc. is engaged in the
 business of creating and licensing software in the field of
 computational chemistry and represents and warrants to the
 licensee that it is not a competitor of Gaussian, Inc. and that
 it will not use this program in any manner prohibited above.
 ---------------------------------------------------------------
  

 Cite this work as:
 Gaussian 16, Revision A.03,
 M. J. Frisch, G. W. Trucks, H. B. Schlegel, G. E. Scuseria, 
 M. A. Robb, J. R. Cheeseman, G. Scalmani, V. Barone, 
 G. A. Petersson, H. Nakatsuji, X. Li, M. Caricato, A. V. Marenich, 
 J. Bloino, B. G. Janesko, R. Gomperts, B. Mennucci, H. P. Hratchian, 
 J. V. Ortiz, A. F. Izmaylov, J. L. Sonnenberg, D. Williams-Young, 
 F. Ding, F. Lipparini, F. Egidi, J. Goings, B. Peng, A. Petrone, 
 T. Henderson, D. Ranasinghe, V. G. Zakrzewski, J. Gao, N. Rega, 
 G. Zheng, W. Liang, M. Hada, M. Ehara, K. Toyota, R. Fukuda, 
 J. Hasegawa, M. Ishida, T. Nakajima, Y. Honda, O. Kitao, H. Nakai, 
 T. Vreven, K. Throssell, J. A. Montgomery, Jr., J. E. Peralta, 
 F. Ogliaro, M. J. Bearpark, J. J. Heyd, E. N. Brothers, K. N. Kudin, 
 V. N. Staroverov, T. A. Keith, R. Kobayashi, J. Normand, 
 K. Raghavachari, A. P. Rendell, J. C. Burant, S. S. Iyengar, 
 J. Tomasi, M. Cossi, J. M. Millam, M. Klene, C. Adamo, R. Cammi, 
 J. W. Ochterski, R. L. Martin, K. Morokuma, O. Farkas, 
 J. B. Foresman, and D. J. Fox, Gaussian, Inc., Wallingford CT, 2016.
 
 ******************************************
 Gaussian 16:  AS64L-G16RevA.03 25-Dec-2016
                 8-Jan-2020 
 ******************************************
 %nprocshared=16
 Will use up to   16 processors via shared memory.
 %mem=32GB
 ----------------------------------------------------------------------
 #p opt=modredundant b3lyp/6-31+g(d) scrf=(smd, solvent=tetrahydrofuran
 )
 ----------------------------------------------------------------------
 1/18=120,19=15,26=3,38=1/1,3;
 2/9=110,12=2,17=6,18=5,40=1/2;
 3/5=1,6=6,7=11,11=2,25=1,30=1,70=32201,71=1,72=20,74=-5/1,2,3;
 4//1;
 5/5=2,38=5,53=20/2;
 6/7=2,8=2,9=2,10=2,28=1/1;
 7//1,2,3,16;
 1/18=20,19=15,26=3/3(2);
 2/9=110/2;
 99//99;
 2/9=110/2;
 3/5=1,6=6,7=11,11=2,25=1,30=1,70=32205,71=1,72=20,74=-5/1,2,3;
 4/5=5,16=3,69=1/1;
 5/5=2,38=5,53=20/2;
 7//1,2,3,16;
 1/18=20,19=15,26=3/3(-5);
 2/9=110/2;
 6/7=2,8=2,9=2,10=2,19=2,28=1/1;
 99/9=1/99;
 Leave Link    1 at Wed Jan  8 02:48:02 2020, MaxMem=  4294967296 cpu:               3.0 elap:               0.2
 (Enter /home/cwagen/sw/g16/g16/l101.exe)
 -----
 title
 -----
 Symbolic Z-matrix:
 Charge = -1 Multiplicity = 1
 6                    -0.19426  -0.292    -0.21291 
 8                    -0.25532  -0.66526  -1.45426 
 6                    -0.33095  -1.45422   0.81632 
 1                    -0.18039  -1.13044   1.85373 
 1                    -1.34067  -1.87301   0.71427 
 1                     0.39707  -2.23395   0.57058 
 17                   -2.11023   2.13857   0.60038 
 6                     1.84541   0.42224   0.19894 
 7                     2.97998   0.70254   0.22924 
 
 Add virtual bond connecting atoms C8         and C1         Dist= 4.16D+00.
 Add virtual bond connecting atoms Cl7        and C1         Dist= 6.05D+00.
 The following ModRedundant input section has been read:
 B       1       7 F                                                           
 B       1       8 F                                                           
 
 ITRead=  0  0  0  0  0  0  0  0  0
 MicOpt= -1 -1 -1 -1 -1 -1 -1 -1 -1
 NAtoms=      9 NQM=        9 NQMF=       0 NMMI=      0 NMMIF=      0
                NMic=       0 NMicF=      0.
                    Isotopes and Nuclear Properties:
 (Nuclear quadrupole moments (NQMom) in fm**2, nuclear magnetic moments (NMagM)
  in nuclear magnetons)

  Atom         1           2           3           4           5           6           7           8           9
 IAtWgt=          12          16          12           1           1           1          35          12          14
 AtmWgt=  12.0000000  15.9949146  12.0000000   1.0078250   1.0078250   1.0078250  34.9688527  12.0000000  14.0030740
 NucSpn=           0           0           0           1           1           1           3           0           2
 AtZEff=   0.0000000   0.0000000   0.0000000   0.0000000   0.0000000   0.0000000   0.0000000   0.0000000   0.0000000
 NQMom=    0.0000000   0.0000000   0.0000000   0.0000000   0.0000000   0.0000000  -8.1650000   0.0000000   2.0440000
 NMagM=    0.0000000   0.0000000   0.0000000   2.7928460   2.7928460   2.7928460   0.8218740   0.0000000   0.4037610
 AtZNuc=   6.0000000   8.0000000   6.0000000   1.0000000   1.0000000   1.0000000  17.0000000   6.0000000   7.0000000
 Leave Link  101 at Wed Jan  8 02:48:03 2020, MaxMem=  4294967296 cpu:               8.1 elap:               0.6
 (Enter /home/cwagen/sw/g16/g16/l103.exe)

 GradGradGradGradGradGradGradGradGradGradGradGradGradGradGradGradGradGrad
 Berny optimization.
 Initialization pass.
                           ----------------------------
                           !    Initial Parameters    !
                           ! (Angstroms and Degrees)  !
 --------------------------                            --------------------------
 ! Name  Definition              Value          Derivative Info.                !
 --------------------------------------------------------------------------------
 ! R1    R(1,2)                  1.2977         estimate D2E/DX2                !
 ! R2    R(1,3)                  1.5584         estimate D2E/DX2                !
 ! R3    R(1,7)                  3.2            Frozen                          !
 ! R4    R(1,8)                  2.2            Frozen                          !
 ! R5    R(3,4)                  1.0971         estimate D2E/DX2                !
 ! R6    R(3,5)                  1.0979         estimate D2E/DX2                !
 ! R7    R(3,6)                  1.0947         estimate D2E/DX2                !
 ! R8    R(8,9)                  1.1691         estimate D2E/DX2                !
 ! A1    A(2,1,3)              114.4006         estimate D2E/DX2                !
 ! A2    A(2,1,7)              115.6846         estimate D2E/DX2                !
 ! A3    A(2,1,8)              108.426          estimate D2E/DX2                !
 ! A4    A(3,1,7)              110.248          estimate D2E/DX2                !
 ! A5    A(3,1,8)              101.5248         estimate D2E/DX2                !
 ! A6    A(7,1,8)              105.1256         estimate D2E/DX2                !
 ! A7    A(1,3,4)              113.1005         estimate D2E/DX2                !
 ! A8    A(1,3,5)              107.683          estimate D2E/DX2                !
 ! A9    A(1,3,6)              108.9421         estimate D2E/DX2                !
 ! A10   A(4,3,5)              109.0662         estimate D2E/DX2                !
 ! A11   A(4,3,6)              109.3417         estimate D2E/DX2                !
 ! A12   A(5,3,6)              108.6067         estimate D2E/DX2                !
 ! A13   L(1,8,9,6,-1)         177.3525         estimate D2E/DX2                !
 ! A14   L(1,8,9,6,-2)         165.6964         estimate D2E/DX2                !
 ! D1    D(2,1,3,4)            174.4714         estimate D2E/DX2                !
 ! D2    D(2,1,3,5)            -64.9488         estimate D2E/DX2                !
 ! D3    D(2,1,3,6)             52.6633         estimate D2E/DX2                !
 ! D4    D(7,1,3,4)            -53.1046         estimate D2E/DX2                !
 ! D5    D(7,1,3,5)             67.4752         estimate D2E/DX2                !
 ! D6    D(7,1,3,6)           -174.9127         estimate D2E/DX2                !
 ! D7    D(8,1,3,4)             57.938          estimate D2E/DX2                !
 ! D8    D(8,1,3,5)            178.5177         estimate D2E/DX2                !
 ! D9    D(8,1,3,6)            -63.8702         estimate D2E/DX2                !
 --------------------------------------------------------------------------------
 Trust Radius=3.00D-01 FncErr=1.00D-07 GrdErr=1.00D-06 EigMax=2.50D+02 EigMin=1.00D-04
 Number of steps in this run=     41 maximum allowed number of steps=    100.
 GradGradGradGradGradGradGradGradGradGradGradGradGradGradGradGradGradGrad

 Leave Link  103 at Wed Jan  8 02:48:03 2020, MaxMem=  4294967296 cpu:               1.0 elap:               0.2
 (Enter /home/cwagen/sw/g16/g16/l202.exe)
                          Input orientation:                          
 ---------------------------------------------------------------------
 Center     Atomic      Atomic             Coordinates (Angstroms)
 Number     Number       Type             X           Y           Z
 ---------------------------------------------------------------------
      1          6           0       -0.194263   -0.291999   -0.212908
      2          8           0       -0.255321   -0.665256   -1.454255
      3          6           0       -0.330945   -1.454221    0.816316
      4          1           0       -0.180394   -1.130438    1.853734
      5          1           0       -1.340665   -1.873010    0.714272
      6          1           0        0.397068   -2.233949    0.570583
      7         17           0       -2.110228    2.138566    0.600376
      8          6           0        1.845405    0.422238    0.198941
      9          7           0        2.979976    0.702536    0.229244
 ---------------------------------------------------------------------
                    Distance matrix (angstroms):
                    1          2          3          4          5
     1  C    0.000000
     2  O    1.297687   0.000000
     3  C    1.558443   2.404928   0.000000
     4  H    2.230287   3.341377   1.097150   0.000000
     5  H    2.161827   2.709087   1.097876   1.787740   0.000000
     6  H    2.175937   2.643176   1.094698   1.788205   1.780629
     7  Cl   3.200000   3.940001   4.015046   3.997694   4.086312
     8  C    2.200000   2.885957   2.939175   3.041875   3.960401
     9  N    3.355651   3.895147   3.994803   3.998337   5.053378
                    6          7          8          9
     6  H    0.000000
     7  Cl   5.040467   0.000000
     8  C    3.048135   4.330585   0.000000
     9  N    3.925668   5.301896   1.169075   0.000000
 Stoichiometry    C3H3ClNO(1-)
 Framework group  C1[X(C3H3ClNO)]
 Deg. of freedom    21
 Full point group                 C1      NOp   1
 Largest Abelian subgroup         C1      NOp   1
 Largest concise Abelian subgroup C1      NOp   1
                         Standard orientation:                         
 ---------------------------------------------------------------------
 Center     Atomic      Atomic             Coordinates (Angstroms)
 Number     Number       Type             X           Y           Z
 ---------------------------------------------------------------------
      1          6           0        0.389988    0.678229    0.206951
      2          8           0        0.664367    1.241299    1.343464
      3          6           0        0.707302    1.557187   -1.040241
      4          1           0        0.558762    1.027272   -1.989379
      5          1           0        0.043640    2.431235   -1.009811
      6          1           0        1.743887    1.903317   -0.976611
      7         17           0       -2.539889   -0.583836   -0.044064
      8          6           0        1.769414   -1.010847   -0.083232
      9          7           0        2.616667   -1.816345   -0.074812
 ---------------------------------------------------------------------
 Rotational constants (GHZ):           2.6832312           1.1889161           0.9764612
 Leave Link  202 at Wed Jan  8 02:48:03 2020, MaxMem=  4294967296 cpu:               1.9 elap:               0.2
 (Enter /home/cwagen/sw/g16/g16/l301.exe)
 Standard basis: 6-31+G(d) (6D, 7F)
 Ernie: Thresh=  0.10000D-02 Tol=  0.10000D-05 Strict=F.
 There are   124 symmetry adapted cartesian basis functions of A   symmetry.
 There are   124 symmetry adapted basis functions of A   symmetry.
   124 basis functions,   228 primitive gaussians,   124 cartesian basis functions
    27 alpha electrons       27 beta electrons
       nuclear repulsion energy       208.1107924786 Hartrees.
 IExCor=  402 DFT=T Ex+Corr=B3LYP ExCW=0 ScaHFX=  0.200000
 ScaDFX=  0.800000  0.720000  1.000000  0.810000 ScalE2=  1.000000  1.000000
 IRadAn=      5 IRanWt=     -1 IRanGd=            0 ICorTp=0 IEmpDi=  4
 NAtoms=    9 NActive=    9 NUniq=    9 SFac= 1.00D+00 NAtFMM=   60 NAOKFM=F Big=F
 Integral buffers will be    131072 words long.
 Raffenetti 2 integral format.
 Two-electron integral symmetry is turned on.
 ------------------------------------------------------------------------------
 Polarizable Continuum Model (PCM)
 =================================
 Model                : PCM.
 Atomic radii         : SMD-Coulomb.
 Polarization charges : Total charges.
 Charge compensation  : None.
 Solution method      : On-the-fly selection.
 Cavity type          : VdW (van der Waals Surface) (Alpha=1.000).
 Cavity algorithm     : GePol (No added spheres)
                        Default sphere list used, NSphG=    9.
                        Lebedev-Laikov grids with approx.  5.0 points / Ang**2.
                        Smoothing algorithm: York/Karplus (Gamma=1.0000).
                        Polarization charges: spherical gaussians, with
                                              point-specific exponents (IZeta= 3).
                        Self-potential: point-specific (ISelfS= 7).
                        Self-field    : sphere-specific E.n sum rule (ISelfD= 2).
 1st derivatives      : Analytical E(r).r(x)/FMM algorithm (CHGder, D1EAlg=3).
                        Cavity 1st derivative terms included.
 Solvent              : TetraHydroFuran, Eps=   7.425700 Eps(inf)=   1.974025
 ------------------------------------------------------------------------------
 Spheres list:
 ISph  on   Nord     Re0    Alpha      Xe            Ye            Ze
    1   C      1    1.8500  1.000      0.389988      0.678229      0.206951
    2   O      2    2.2940  1.000      0.664367      1.241299      1.343464
    3   C      3    1.8500  1.000      0.707302      1.557187     -1.040241
    4   H      4    1.2000  1.000      0.558762      1.027272     -1.989379
    5   H      5    1.2000  1.000      0.043640      2.431235     -1.009811
    6   H      6    1.2000  1.000      1.743887      1.903317     -0.976611
    7  Cl      7    2.3800  1.000     -2.539889     -0.583836     -0.044064
    8   C      8    1.8500  1.000      1.769414     -1.010847     -0.083232
    9   N      9    1.8900  1.000      2.616667     -1.816345     -0.074812
 ------------------------------------------------------------------------------
 GePol: Number of generator spheres                  =       9
 GePol: Total number of spheres                      =       9
 GePol: Number of exposed spheres                    =       9 (100.00%)
 GePol: Number of points                             =    1357
 GePol: Average weight of points                     =       0.14
 GePol: Minimum weight of points                     =   0.15D-07
 GePol: Maximum weight of points                     =    0.18138
 GePol: Number of points with low weight             =      42
 GePol: Fraction of low-weight points (<1% of avg)   =       3.10%
 GePol: Cavity surface area                          =    185.640 Ang**2
 GePol: Cavity volume                                =    161.960 Ang**3
 ------------------------------------------------------------------------------
 Atomic radii for non-electrostatic terms: SMD-CDS.
 ------------------------------------------------------------------------------
 PCM non-electrostatic energy =         0.0008572907 Hartrees.
 Nuclear repulsion after PCM non-electrostatic terms =      208.1116497693 Hartrees.
 Leave Link  301 at Wed Jan  8 02:48:03 2020, MaxMem=  4294967296 cpu:               2.5 elap:               0.2
 (Enter /home/cwagen/sw/g16/g16/l302.exe)
 NPDir=0 NMtPBC=     1 NCelOv=     1 NCel=       1 NClECP=     1 NCelD=      1
         NCelK=      1 NCelE2=     1 NClLst=     1 CellRange=     0.0.
 One-electron integrals computed using PRISM.
 One-electron integral symmetry used in STVInt
 NBasis=   124 RedAO= T EigKep=  1.95D-04  NBF=   124
 NBsUse=   124 1.00D-06 EigRej= -1.00D+00 NBFU=   124
 Precomputing XC quadrature grid using
 IXCGrd= 4 IRadAn=           5 IRanWt=          -1 IRanGd=           0 AccXCQ= 0.00D+00.
 Generated NRdTot=       0 NPtTot=           0 NUsed=           0 NTot=          32
 NSgBfM=   123   123   123   123   123 MxSgAt=     9 MxSgA2=     9.
 Leave Link  302 at Wed Jan  8 02:48:05 2020, MaxMem=  4294967296 cpu:              21.6 elap:               1.6
 (Enter /home/cwagen/sw/g16/g16/l303.exe)
 DipDrv:  MaxL=1.
 Leave Link  303 at Wed Jan  8 02:48:05 2020, MaxMem=  4294967296 cpu:               3.6 elap:               0.4
 (Enter /home/cwagen/sw/g16/g16/l401.exe)
 ExpMin= 4.38D-02 ExpMax= 2.52D+04 ExpMxC= 3.78D+03 IAcc=3 IRadAn=         5 AccDes= 0.00D+00
 Harris functional with IExCor=  402 and IRadAn=       5 diagonalized for initial guess.
 HarFok:  IExCor=  402 AccDes= 0.00D+00 IRadAn=         5 IDoV= 1 UseB2=F ITyADJ=14
 ICtDFT=  3500011 ScaDFX=  1.000000  1.000000  1.000000  1.000000
 FoFCou: FMM=F IPFlag=           0 FMFlag=      100000 FMFlg1=           0
         NFxFlg=           0 DoJE=T BraDBF=F KetDBF=T FulRan=T
         wScrn=  0.000000 ICntrl=       500 IOpCl=  0 I1Cent=   200000004 NGrid=           0
         NMat0=    1 NMatS0=      1 NMatT0=    0 NMatD0=    1 NMtDS0=    0 NMtDT0=    0
 Petite list used in FoFCou.
 Harris En= -706.325025299913    
 JPrj=0 DoOrth=F DoCkMO=F.
 Leave Link  401 at Wed Jan  8 02:48:06 2020, MaxMem=  4294967296 cpu:              11.2 elap:               0.8
 (Enter /home/cwagen/sw/g16/g16/l502.exe)
 Keep R1 ints in memory in canonical form, NReq=45236517.
 FoFCou: FMM=F IPFlag=           0 FMFlag=           0 FMFlg1=           0
         NFxFlg=           0 DoJE=F BraDBF=F KetDBF=F FulRan=T
         wScrn=  0.000000 ICntrl=       600 IOpCl=  0 I1Cent=           0 NGrid=           0
         NMat0=    1 NMatS0=   7750 NMatT0=    0 NMatD0=    1 NMtDS0=    0 NMtDT0=    0
 Symmetry not used in FoFCou.
 Two-electron integral symmetry not used.
 Closed shell SCF:
 Using DIIS extrapolation, IDIIS=  1040.
 NGot=  4294967296 LenX=  4264898079 LenY=  4264882262
 Requested convergence on RMS density matrix=1.00D-08 within 128 cycles.
 Requested convergence on MAX density matrix=1.00D-06.
 Requested convergence on             energy=1.00D-06.
 No special actions if energy rises.

 Cycle   1  Pass 1  IDiag  1:
 Inv3:  Mode=1 IEnd=     5524347.
 Iteration    1 A*A^-1 deviation from unit magnitude is 4.88D-15 for   1340.
 Iteration    1 A*A^-1 deviation from orthogonality  is 1.92D-15 for   1352   1157.
 Iteration    1 A^-1*A deviation from unit magnitude is 5.11D-15 for   1354.
 Iteration    1 A^-1*A deviation from orthogonality  is 1.94D-15 for   1335   1223.
 E= -706.155931016019    
 DIIS: error= 2.52D-02 at cycle   1 NSaved=   1.
 NSaved= 1 IEnMin= 1 EnMin= -706.155931016019     IErMin= 1 ErrMin= 2.52D-02
 ErrMax= 2.52D-02  0.00D+00 EMaxC= 1.00D-01 BMatC= 1.95D-01 BMatP= 1.95D-01
 IDIUse=3 WtCom= 7.48D-01 WtEn= 2.52D-01
 Coeff-Com:  0.100D+01
 Coeff-En:   0.100D+01
 Coeff:      0.100D+01
 Gap=    -0.007 Goal=   None    Shift=    0.000
 GapD=   -0.007 DampG=0.250 DampE=0.500 DampFc=0.2500 IDamp=-1.
 Damping current iteration by 2.50D-01
 RMSDP=1.09D-02 MaxDP=3.70D-01              OVMax= 2.88D-01

 Cycle   2  Pass 1  IDiag  1:
 E= -706.214497010209     Delta-E=       -0.058565994190 Rises=F Damp=T
 DIIS: error= 1.58D-02 at cycle   2 NSaved=   2.
 NSaved= 2 IEnMin= 2 EnMin= -706.214497010209     IErMin= 2 ErrMin= 1.58D-02
 ErrMax= 1.58D-02  0.00D+00 EMaxC= 1.00D-01 BMatC= 2.85D-02 BMatP= 1.95D-01
 IDIUse=3 WtCom= 8.42D-01 WtEn= 1.58D-01
 Coeff-Com: -0.234D+00 0.123D+01
 Coeff-En:   0.103D+00 0.897D+00
 Coeff:     -0.181D+00 0.118D+01
 Gap=     0.070 Goal=   None    Shift=    0.000
 RMSDP=2.70D-03 MaxDP=6.09D-02 DE=-5.86D-02 OVMax= 2.57D-01

 Cycle   3  Pass 1  IDiag  1:
 E= -706.303516679384     Delta-E=       -0.089019669176 Rises=F Damp=F
 DIIS: error= 1.18D-02 at cycle   3 NSaved=   3.
 NSaved= 3 IEnMin= 3 EnMin= -706.303516679384     IErMin= 3 ErrMin= 1.18D-02
 ErrMax= 1.18D-02  0.00D+00 EMaxC= 1.00D-01 BMatC= 3.96D-02 BMatP= 2.85D-02
 IDIUse=2 WtCom= 0.00D+00 WtEn= 1.00D+00
 Coeff-En:   0.000D+00 0.000D+00 0.100D+01
 Coeff:      0.000D+00 0.000D+00 0.100D+01
 Gap=     0.091 Goal=   None    Shift=    0.000
 RMSDP=5.08D-03 MaxDP=1.42D-01 DE=-8.90D-02 OVMax= 2.64D-01

 Cycle   4  Pass 1  IDiag  1:
 E= -705.999408611854     Delta-E=        0.304108067530 Rises=F Damp=F
 DIIS: error= 3.37D-02 at cycle   4 NSaved=   4.
 NSaved= 4 IEnMin= 3 EnMin= -706.303516679384     IErMin= 3 ErrMin= 1.18D-02
 ErrMax= 3.37D-02  0.00D+00 EMaxC= 1.00D-01 BMatC= 4.05D-01 BMatP= 2.85D-02
 IDIUse=2 WtCom= 0.00D+00 WtEn= 1.00D+00
 Coeff-En:   0.000D+00 0.000D+00 0.846D+00 0.154D+00
 Coeff:      0.000D+00 0.000D+00 0.846D+00 0.154D+00
 Gap=     0.084 Goal=   None    Shift=    0.000
 RMSDP=2.86D-03 MaxDP=8.80D-02 DE= 3.04D-01 OVMax= 1.49D-01

 Cycle   5  Pass 1  IDiag  1:
 E= -706.315950176931     Delta-E=       -0.316541565077 Rises=F Damp=F
 DIIS: error= 9.49D-03 at cycle   5 NSaved=   5.
 NSaved= 5 IEnMin= 5 EnMin= -706.315950176931     IErMin= 5 ErrMin= 9.49D-03
 ErrMax= 9.49D-03  0.00D+00 EMaxC= 1.00D-01 BMatC= 2.87D-02 BMatP= 2.85D-02
 IDIUse=3 WtCom= 9.05D-01 WtEn= 9.49D-02
 Coeff-Com:  0.430D-02 0.274D-01 0.443D+00-0.582D-02 0.531D+00
 Coeff-En:   0.000D+00 0.000D+00 0.427D+00 0.000D+00 0.573D+00
 Coeff:      0.389D-02 0.248D-01 0.441D+00-0.526D-02 0.535D+00
 Gap=     0.093 Goal=   None    Shift=    0.000
 RMSDP=1.16D-03 MaxDP=2.47D-02 DE=-3.17D-01 OVMax= 4.99D-02

 Cycle   6  Pass 1  IDiag  1:
 E= -706.341578657809     Delta-E=       -0.025628480878 Rises=F Damp=F
 DIIS: error= 1.68D-03 at cycle   6 NSaved=   6.
 NSaved= 6 IEnMin= 6 EnMin= -706.341578657809     IErMin= 6 ErrMin= 1.68D-03
 ErrMax= 1.68D-03  0.00D+00 EMaxC= 1.00D-01 BMatC= 4.35D-04 BMatP= 2.85D-02
 IDIUse=3 WtCom= 9.83D-01 WtEn= 1.68D-02
 Coeff-Com: -0.118D-01 0.228D-01 0.225D+00-0.306D-01 0.355D+00 0.440D+00
 Coeff-En:   0.000D+00 0.000D+00 0.000D+00 0.000D+00 0.000D+00 0.100D+01
 Coeff:     -0.116D-01 0.224D-01 0.221D+00-0.301D-01 0.349D+00 0.449D+00
 Gap=     0.095 Goal=   None    Shift=    0.000
 RMSDP=1.68D-04 MaxDP=4.21D-03 DE=-2.56D-02 OVMax= 7.08D-03

 Cycle   7  Pass 1  IDiag  1:
 E= -706.341901360439     Delta-E=       -0.000322702630 Rises=F Damp=F
 DIIS: error= 5.38D-04 at cycle   7 NSaved=   7.
 NSaved= 7 IEnMin= 7 EnMin= -706.341901360439     IErMin= 7 ErrMin= 5.38D-04
 ErrMax= 5.38D-04  0.00D+00 EMaxC= 1.00D-01 BMatC= 6.34D-05 BMatP= 4.35D-04
 IDIUse=3 WtCom= 9.95D-01 WtEn= 5.38D-03
 Coeff-Com: -0.122D-01 0.209D-01 0.101D+00-0.246D-01 0.180D+00 0.302D+00
 Coeff-Com:  0.433D+00
 Coeff-En:   0.000D+00 0.000D+00 0.000D+00 0.000D+00 0.000D+00 0.101D+00
 Coeff-En:   0.899D+00
 Coeff:     -0.121D-01 0.208D-01 0.100D+00-0.244D-01 0.179D+00 0.301D+00
 Coeff:      0.435D+00
 Gap=     0.094 Goal=   None    Shift=    0.000
 RMSDP=8.76D-05 MaxDP=2.59D-03 DE=-3.23D-04 OVMax= 4.84D-03

 Cycle   8  Pass 1  IDiag  1:
 E= -706.341972107068     Delta-E=       -0.000070746629 Rises=F Damp=F
 DIIS: error= 8.21D-05 at cycle   8 NSaved=   8.
 NSaved= 8 IEnMin= 8 EnMin= -706.341972107068     IErMin= 8 ErrMin= 8.21D-05
 ErrMax= 8.21D-05  0.00D+00 EMaxC= 1.00D-01 BMatC= 2.48D-06 BMatP= 6.34D-05
 IDIUse=1 WtCom= 1.00D+00 WtEn= 0.00D+00
 Coeff-Com: -0.309D-02 0.477D-02 0.150D-01-0.674D-02 0.293D-01 0.663D-01
 Coeff-Com:  0.129D+00 0.765D+00
 Coeff:     -0.309D-02 0.477D-02 0.150D-01-0.674D-02 0.293D-01 0.663D-01
 Coeff:      0.129D+00 0.765D+00
 Gap=     0.094 Goal=   None    Shift=    0.000
 RMSDP=2.14D-05 MaxDP=6.85D-04 DE=-7.07D-05 OVMax= 9.95D-04

 Cycle   9  Pass 1  IDiag  1:
 E= -706.341974247575     Delta-E=       -0.000002140507 Rises=F Damp=F
 DIIS: error= 4.40D-05 at cycle   9 NSaved=   9.
 NSaved= 9 IEnMin= 9 EnMin= -706.341974247575     IErMin= 9 ErrMin= 4.40D-05
 ErrMax= 4.40D-05  0.00D+00 EMaxC= 1.00D-01 BMatC= 4.03D-07 BMatP= 2.48D-06
 IDIUse=1 WtCom= 1.00D+00 WtEn= 0.00D+00
 Coeff-Com: -0.168D-03 0.170D-03-0.177D-03-0.838D-03-0.785D-03 0.688D-02
 Coeff-Com:  0.754D-02 0.390D+00 0.597D+00
 Coeff:     -0.168D-03 0.170D-03-0.177D-03-0.838D-03-0.785D-03 0.688D-02
 Coeff:      0.754D-02 0.390D+00 0.597D+00
 Gap=     0.094 Goal=   None    Shift=    0.000
 RMSDP=8.73D-06 MaxDP=3.14D-04 DE=-2.14D-06 OVMax= 4.33D-04

 Cycle  10  Pass 1  IDiag  1:
 E= -706.341974702061     Delta-E=       -0.000000454486 Rises=F Damp=F
 DIIS: error= 1.12D-05 at cycle  10 NSaved=  10.
 NSaved=10 IEnMin=10 EnMin= -706.341974702061     IErMin=10 ErrMin= 1.12D-05
 ErrMax= 1.12D-05  0.00D+00 EMaxC= 1.00D-01 BMatC= 3.59D-08 BMatP= 4.03D-07
 IDIUse=1 WtCom= 1.00D+00 WtEn= 0.00D+00
 Coeff-Com:  0.104D-03-0.310D-03-0.200D-03-0.639D-04-0.698D-03 0.200D-02
 Coeff-Com: -0.597D-02 0.131D+00 0.288D+00 0.586D+00
 Coeff:      0.104D-03-0.310D-03-0.200D-03-0.639D-04-0.698D-03 0.200D-02
 Coeff:     -0.597D-02 0.131D+00 0.288D+00 0.586D+00
 Gap=     0.094 Goal=   None    Shift=    0.000
 RMSDP=3.12D-06 MaxDP=8.90D-05 DE=-4.54D-07 OVMax= 1.70D-04

 Cycle  11  Pass 1  IDiag  1:
 E= -706.341974746267     Delta-E=       -0.000000044207 Rises=F Damp=F
 DIIS: error= 3.74D-06 at cycle  11 NSaved=  11.
 NSaved=11 IEnMin=11 EnMin= -706.341974746267     IErMin=11 ErrMin= 3.74D-06
 ErrMax= 3.74D-06  0.00D+00 EMaxC= 1.00D-01 BMatC= 2.51D-09 BMatP= 3.59D-08
 IDIUse=1 WtCom= 1.00D+00 WtEn= 0.00D+00
 Coeff-Com: -0.347D-04 0.438D-04-0.577D-03 0.985D-04-0.761D-03-0.146D-02
 Coeff-Com: -0.567D-02-0.117D-01 0.221D-02 0.174D+00 0.844D+00
 Coeff:     -0.347D-04 0.438D-04-0.577D-03 0.985D-04-0.761D-03-0.146D-02
 Coeff:     -0.567D-02-0.117D-01 0.221D-02 0.174D+00 0.844D+00
 Gap=     0.094 Goal=   None    Shift=    0.000
 RMSDP=9.59D-07 MaxDP=2.55D-05 DE=-4.42D-08 OVMax= 2.71D-05

 Cycle  12  Pass 1  IDiag  1:
 E= -706.341974750235     Delta-E=       -0.000000003968 Rises=F Damp=F
 DIIS: error= 3.50D-07 at cycle  12 NSaved=  12.
 NSaved=12 IEnMin=12 EnMin= -706.341974750235     IErMin=12 ErrMin= 3.50D-07
 ErrMax= 3.50D-07  0.00D+00 EMaxC= 1.00D-01 BMatC= 2.45D-11 BMatP= 2.51D-09
 IDIUse=1 WtCom= 1.00D+00 WtEn= 0.00D+00
 Coeff-Com: -0.799D-05 0.149D-04-0.429D-05 0.348D-05 0.536D-04-0.242D-03
 Coeff-Com: -0.395D-03-0.808D-02-0.137D-01-0.783D-02 0.886D-01 0.942D+00
 Coeff:     -0.799D-05 0.149D-04-0.429D-05 0.348D-05 0.536D-04-0.242D-03
 Coeff:     -0.395D-03-0.808D-02-0.137D-01-0.783D-02 0.886D-01 0.942D+00
 Gap=     0.094 Goal=   None    Shift=    0.000
 RMSDP=1.95D-07 MaxDP=5.94D-06 DE=-3.97D-09 OVMax= 7.21D-06

 Cycle  13  Pass 1  IDiag  1:
 E= -706.341974750289     Delta-E=       -0.000000000054 Rises=F Damp=F
 DIIS: error= 2.04D-07 at cycle  13 NSaved=  13.
 NSaved=13 IEnMin=13 EnMin= -706.341974750289     IErMin=13 ErrMin= 2.04D-07
 ErrMax= 2.04D-07  0.00D+00 EMaxC= 1.00D-01 BMatC= 6.53D-12 BMatP= 2.45D-11
 IDIUse=1 WtCom= 1.00D+00 WtEn= 0.00D+00
 Coeff-Com:  0.860D-06 0.722D-07 0.104D-04-0.151D-05 0.162D-04-0.675D-04
 Coeff-Com: -0.593D-04-0.871D-03-0.129D-02-0.503D-02-0.202D-01 0.172D+00
 Coeff-Com:  0.855D+00
 Coeff:      0.860D-06 0.722D-07 0.104D-04-0.151D-05 0.162D-04-0.675D-04
 Coeff:     -0.593D-04-0.871D-03-0.129D-02-0.503D-02-0.202D-01 0.172D+00
 Coeff:      0.855D+00
 Gap=     0.094 Goal=   None    Shift=    0.000
 RMSDP=3.47D-08 MaxDP=7.77D-07 DE=-5.42D-11 OVMax= 1.27D-06

 Cycle  14  Pass 1  IDiag  1:
 E= -706.341974750296     Delta-E=       -0.000000000007 Rises=F Damp=F
 DIIS: error= 2.02D-08 at cycle  14 NSaved=  14.
 NSaved=14 IEnMin=14 EnMin= -706.341974750296     IErMin=14 ErrMin= 2.02D-08
 ErrMax= 2.02D-08  0.00D+00 EMaxC= 1.00D-01 BMatC= 9.25D-14 BMatP= 6.53D-12
 IDIUse=1 WtCom= 1.00D+00 WtEn= 0.00D+00
 Coeff-Com:  0.998D-06-0.144D-05 0.402D-05-0.484D-06 0.341D-05 0.679D-05
 Coeff-Com:  0.151D-04 0.205D-03 0.326D-03-0.159D-03-0.459D-02-0.196D-01
 Coeff-Com:  0.845D-01 0.939D+00
 Coeff:      0.998D-06-0.144D-05 0.402D-05-0.484D-06 0.341D-05 0.679D-05
 Coeff:      0.151D-04 0.205D-03 0.326D-03-0.159D-03-0.459D-02-0.196D-01
 Coeff:      0.845D-01 0.939D+00
 Gap=     0.094 Goal=   None    Shift=    0.000
 RMSDP=9.21D-09 MaxDP=2.80D-07 DE=-7.39D-12 OVMax= 3.67D-07

 Error on total polarization charges =  0.02502
 SCF Done:  E(RB3LYP) =  -706.341974750     A.U. after   14 cycles
            NFock= 14  Conv=0.92D-08     -V/T= 2.0065
 KE= 7.018123716008D+02 PE=-2.092940770187D+03 EE= 4.766747740667D+02
 SMD-CDS (non-electrostatic) energy       (kcal/mol) =       0.54
 (included in total energy above)
 Leave Link  502 at Wed Jan  8 02:48:45 2020, MaxMem=  4294967296 cpu:             527.2 elap:              39.1
 (Enter /home/cwagen/sw/g16/g16/l601.exe)
 Copying SCF densities to generalized density rwf, IOpCl= 0 IROHF=0.

 **********************************************************************

            Population analysis using the SCF density.

 **********************************************************************

 Orbital symmetries:
       Occupied  (A) (A) (A) (A) (A) (A) (A) (A) (A) (A) (A) (A)
                 (A) (A) (A) (A) (A) (A) (A) (A) (A) (A) (A) (A)
                 (A) (A) (A)
       Virtual   (A) (A) (A) (A) (A) (A) (A) (A) (A) (A) (A) (A)
                 (A) (A) (A) (A) (A) (A) (A) (A) (A) (A) (A) (A)
                 (A) (A) (A) (A) (A) (A) (A) (A) (A) (A) (A) (A)
                 (A) (A) (A) (A) (A) (A) (A) (A) (A) (A) (A) (A)
                 (A) (A) (A) (A) (A) (A) (A) (A) (A) (A) (A) (A)
                 (A) (A) (A) (A) (A) (A) (A) (A) (A) (A) (A) (A)
                 (A) (A) (A) (A) (A) (A) (A) (A) (A) (A) (A) (A)
                 (A) (A) (A) (A) (A) (A) (A) (A) (A) (A) (A) (A)
                 (A)
 The electronic state is 1-A.
 Alpha  occ. eigenvalues -- -101.44421 -19.21800 -14.31432 -10.37160 -10.21734
 Alpha  occ. eigenvalues --  -10.20076  -9.35666  -7.11648  -7.11352  -7.11350
 Alpha  occ. eigenvalues --   -1.05273  -0.87249  -0.74963  -0.68940  -0.56313
 Alpha  occ. eigenvalues --   -0.46674  -0.45053  -0.44569  -0.39867  -0.37376
 Alpha  occ. eigenvalues --   -0.36542  -0.31491  -0.31409  -0.28722  -0.23640
 Alpha  occ. eigenvalues --   -0.23169  -0.23161
 Alpha virt. eigenvalues --   -0.13786  -0.03916   0.02933   0.04185   0.04316
 Alpha virt. eigenvalues --    0.05278   0.06240   0.07341   0.08421   0.09119
 Alpha virt. eigenvalues --    0.09832   0.09972   0.10803   0.11694   0.13009
 Alpha virt. eigenvalues --    0.13904   0.14799   0.16106   0.16473   0.19437
 Alpha virt. eigenvalues --    0.21528   0.22938   0.23919   0.24279   0.25103
 Alpha virt. eigenvalues --    0.25916   0.27444   0.28006   0.29983   0.31941
 Alpha virt. eigenvalues --    0.33681   0.35926   0.38751   0.57782   0.62871
 Alpha virt. eigenvalues --    0.64072   0.65951   0.66841   0.67811   0.68519
 Alpha virt. eigenvalues --    0.71528   0.72751   0.74806   0.78014   0.79303
 Alpha virt. eigenvalues --    0.85385   0.85739   0.94398   0.96487   0.96850
 Alpha virt. eigenvalues --    0.97306   0.97597   0.98011   0.99629   1.00542
 Alpha virt. eigenvalues --    1.01664   1.04538   1.12025   1.13923   1.17987
 Alpha virt. eigenvalues --    1.23509   1.26531   1.28370   1.31396   1.43316
 Alpha virt. eigenvalues --    1.45124   1.48507   1.54464   1.56145   1.56694
 Alpha virt. eigenvalues --    1.59513   1.64059   1.73420   1.78241   1.84539
 Alpha virt. eigenvalues --    1.86985   1.94719   1.99072   1.99681   2.10223
 Alpha virt. eigenvalues --    2.17627   2.22396   2.26457   2.46618   2.48517
 Alpha virt. eigenvalues --    2.52823   2.62727   2.63930   2.69215   2.91996
 Alpha virt. eigenvalues --    3.06415   4.00463   4.12795   4.22291   4.25411
 Alpha virt. eigenvalues --    4.36817   4.42081
          Condensed to atoms (all electrons):
               1          2          3          4          5          6
     1  C    5.101824   0.524677   0.065741  -0.054016  -0.048734   0.004717
     2  O    0.524677   7.924302  -0.123714   0.007246  -0.001173  -0.012272
     3  C    0.065741  -0.123714   5.731382   0.374577   0.367685   0.361838
     4  H   -0.054016   0.007246   0.374577   0.439687  -0.020384  -0.025117
     5  H   -0.048734  -0.001173   0.367685  -0.020384   0.438000  -0.021921
     6  H    0.004717  -0.012272   0.361838  -0.025117  -0.021921   0.424054
     7  Cl   0.140348  -0.018519  -0.053193   0.001179  -0.000978   0.000497
     8  C   -0.097871  -0.082839  -0.056506   0.009781   0.015432  -0.020485
     9  N   -0.005832  -0.001673  -0.004922  -0.000608  -0.000057   0.000343
               7          8          9
     1  C    0.140348  -0.097871  -0.005832
     2  O   -0.018519  -0.082839  -0.001673
     3  C   -0.053193  -0.056506  -0.004922
     4  H    0.001179   0.009781  -0.000608
     5  H   -0.000978   0.015432  -0.000057
     6  H    0.000497  -0.020485   0.000343
     7  Cl  17.746103  -0.046767  -0.000469
     8  C   -0.046767   5.617745   0.640942
     9  N   -0.000469   0.640942   6.943001
 Mulliken charges:
               1
     1  C    0.369146
     2  O   -0.216034
     3  C   -0.662889
     4  H    0.267654
     5  H    0.272131
     6  H    0.288347
     7  Cl  -0.768201
     8  C    0.020570
     9  N   -0.570724
 Sum of Mulliken charges =  -1.00000
 Mulliken charges with hydrogens summed into heavy atoms:
               1
     1  C    0.369146
     2  O   -0.216034
     3  C    0.165243
     7  Cl  -0.768201
     8  C    0.020570
     9  N   -0.570724
 Electronic spatial extent (au):  <R**2>=           1173.0420
 Charge=             -1.0000 electrons
 Dipole moment (field-independent basis, Debye):
    X=              4.1089    Y=              7.9752    Z=             -2.6090  Tot=              9.3431
 Quadrupole moment (field-independent basis, Debye-Ang):
   XX=            -85.9246   YY=            -53.2126   ZZ=            -47.3528
   XY=              7.6692   XZ=             -2.1202   YZ=             -5.1586
 Traceless Quadrupole moment (field-independent basis, Debye-Ang):
   XX=            -23.7612   YY=              8.9507   ZZ=             14.8105
   XY=              7.6692   XZ=             -2.1202   YZ=             -5.1586
 Octapole moment (field-independent basis, Debye-Ang**2):
  XXX=             22.2250  YYY=             40.1923  ZZZ=             -4.0908  XYY=            -15.6967
  XXY=             54.1077  XXZ=              1.6644  XZZ=              2.1920  YZZ=              4.6345
  YYZ=             -5.3731  XYZ=             -4.1921
 Hexadecapole moment (field-independent basis, Debye-Ang**3):
 XXXX=          -1380.3311 YYYY=           -459.5386 ZZZZ=           -178.5661 XXXY=             82.6852
 XXXZ=              1.2508 YYYX=             60.6319 YYYZ=            -12.4982 ZZZX=             -2.3736
 ZZZY=             -5.7365 XXYY=           -325.2874 XXZZ=           -216.8371 YYZZ=           -104.3393
 XXYZ=             -6.5282 YYXZ=             -1.9490 ZZXY=              4.3732
 N-N= 2.081116497693D+02 E-N=-2.092940769816D+03  KE= 7.018123716008D+02
 No NMR shielding tensors so no spin-rotation constants.
 Leave Link  601 at Wed Jan  8 02:48:46 2020, MaxMem=  4294967296 cpu:              14.0 elap:               1.2
 (Enter /home/cwagen/sw/g16/g16/l701.exe)
 ... and contract with generalized density number  0.
 Compute integral first derivatives.
 D1PCM: PCM CHGder 1st derivatives, ID1Alg=3 FixD1E=F DoIter=F DoCFld=F I1PDM=0.
 GePol: Maximum number of non-zero 1st derivatives   =     424
 Leave Link  701 at Wed Jan  8 02:48:51 2020, MaxMem=  4294967296 cpu:              64.4 elap:               4.6
 (Enter /home/cwagen/sw/g16/g16/l702.exe)
 L702 exits ... SP integral derivatives will be done elsewhere.
 Leave Link  702 at Wed Jan  8 02:48:52 2020, MaxMem=  4294967296 cpu:               1.1 elap:               0.5
 (Enter /home/cwagen/sw/g16/g16/l703.exe)
 Integral derivatives from FoFJK, PRISM(SPDF).
 Compute integral first derivatives, UseDBF=F ICtDFT=           0.
 Calling FoFJK, ICntrl=      2127 FMM=F ISym2X=0 I1Cent= 0 IOpClX= 0 NMat=1 NMatS=1 NMatT=0.
 FoFJK:  IHMeth= 1 ICntrl=    2127 DoSepK=F KAlg= 0 I1Cent=           0 FoldK=F
 IRaf=         0 NMat=       1 IRICut=       1 DoRegI=T DoRafI=F ISym2E= 0 IDoP0=0 IntGTp=1.
 FoFCou: FMM=F IPFlag=           0 FMFlag=      100000 FMFlg1=         800
         NFxFlg=           0 DoJE=F BraDBF=F KetDBF=F FulRan=T
         wScrn=  0.000000 ICntrl=      2127 IOpCl=  0 I1Cent=           0 NGrid=           0
         NMat0=    1 NMatS0=      1 NMatT0=    0 NMatD0=    1 NMtDS0=    0 NMtDT0=    0
 Symmetry not used in FoFCou.
 Leave Link  703 at Wed Jan  8 02:48:54 2020, MaxMem=  4294967296 cpu:              33.2 elap:               2.3
 (Enter /home/cwagen/sw/g16/g16/l716.exe)
 Dipole        = 1.61656683D+00 3.13769026D+00-1.02644788D+00
 ***** Axes restored to original set *****
 -------------------------------------------------------------------
 Center     Atomic                   Forces (Hartrees/Bohr)
 Number     Number              X              Y              Z
 -------------------------------------------------------------------
      1        6           0.043398677   -0.097697488   -0.129043423
      2        8          -0.003130979    0.073956698    0.132597042
      3        6          -0.016111535    0.025278190    0.017133935
      4        1          -0.000541780    0.002218841   -0.004939167
      5        1           0.000742042    0.002481455   -0.000841832
      6        1           0.003216754    0.006529994   -0.005979462
      7       17           0.007850248   -0.010385954   -0.002948711
      8        6          -0.038918466   -0.002451158   -0.007203616
      9        7           0.003495038    0.000069421    0.001225235
 -------------------------------------------------------------------
 Cartesian Forces:  Max     0.132597042 RMS     0.044814098
 Leave Link  716 at Wed Jan  8 02:48:54 2020, MaxMem=  4294967296 cpu:               1.3 elap:               0.1
 (Enter /home/cwagen/sw/g16/g16/l103.exe)

 GradGradGradGradGradGradGradGradGradGradGradGradGradGradGradGradGradGrad
 Berny optimization.
 FormGI is forming the generalized inverse of G from B-inverse, IUseBI=4.
 Internal  Forces:  Max     0.147975915 RMS     0.030748039
 Search for a local minimum.
 Step number   1 out of a maximum of   41
 All quantities printed in internal units (Hartrees-Bohrs-Radians)
 RMS Force = .31032D-01 SwitMx=.10000D-02 MixMth= 1
 Mixed Optimization -- RFO/linear search
 Second derivative matrix not updated -- first step.
 ITU=  0
     Eigenvalues ---    0.00230   0.04746   0.04746   0.05330   0.05908
     Eigenvalues ---    0.07453   0.10176   0.16000   0.16000   0.16000
     Eigenvalues ---    0.25000   0.25000   0.25000   0.26946   0.33918
     Eigenvalues ---    0.33999   0.34275   0.67840   1.220341000.00000
     Eigenvalues --- 1000.000001000.000001000.000001000.000001000.00000
     Eigenvalues --- 1000.000001000.000001000.000001000.000001000.00000
     Eigenvalues --- 1000.00000
 RFO step:  Lambda=-5.31041107D-02 EMin= 2.30000000D-03
 Linear search not attempted -- first point.
 Maximum step size (   0.300) exceeded in Quadratic search.
    -- Step size scaled by   0.885
 Iteration  1 RMS(Cart)=  0.06759491 RMS(Int)=  0.00705550
 Iteration  2 RMS(Cart)=  0.00756643 RMS(Int)=  0.00307750
 Iteration  3 RMS(Cart)=  0.00006415 RMS(Int)=  0.00307707
 Iteration  4 RMS(Cart)=  0.00000109 RMS(Int)=  0.00307707
 Iteration  5 RMS(Cart)=  0.00000001 RMS(Int)=  0.00307707
 Iteration  1 RMS(Cart)=  0.00000000 RMS(Int)=  0.00000000
 ITry= 1 IFail=0 DXMaxC= 1.75D-01 DCOld= 1.00D+10 DXMaxT= 3.00D-01 DXLimC= 3.00D+00 Rises=F
 Variable       Old X    -DE/DX   Delta X   Delta X   Delta X     New X
                                 (Linear)    (Quad)   (Total)
    R1        2.45227  -0.14798   0.00000  -0.17910  -0.17910   2.27317
    R2        2.94503  -0.02254   0.00000  -0.06188  -0.06188   2.88315
    R3        6.04712  -0.01332   0.00000   0.00000   0.00000   6.04712
    R4        4.15740  -0.03471   0.00000   0.00000   0.00000   4.15740
    R5        2.07331  -0.00409   0.00000  -0.00922  -0.00922   2.06409
    R6        2.07468  -0.00155   0.00000  -0.00349  -0.00349   2.07120
    R7        2.06868  -0.00128   0.00000  -0.00287  -0.00287   2.06581
    R8        2.20923   0.00344   0.00000   0.00239   0.00239   2.21163
    A1        1.99667   0.05630   0.00000   0.17301   0.16917   2.16584
    A2        2.01908  -0.02442   0.00000  -0.08209  -0.07854   1.94054
    A3        1.89239  -0.01227   0.00000   0.00453  -0.00705   1.88534
    A4        1.92419  -0.02275   0.00000  -0.08278  -0.08005   1.84414
    A5        1.77194   0.01225   0.00000   0.04441   0.03661   1.80855
    A6        1.83479  -0.00978   0.00000  -0.05719  -0.05678   1.77800
    A7        1.97398  -0.00256   0.00000  -0.01133  -0.01163   1.96235
    A8        1.87942  -0.00018   0.00000   0.00181   0.00177   1.88120
    A9        1.90140  -0.01235   0.00000  -0.05325  -0.05365   1.84774
   A10        1.90356   0.00244   0.00000   0.01361   0.01364   1.91720
   A11        1.90837   0.00681   0.00000   0.02370   0.02303   1.93141
   A12        1.89554   0.00613   0.00000   0.02685   0.02673   1.92227
   A13        3.09538  -0.00223   0.00000  -0.01961  -0.01961   3.07577
   A14        2.89195   0.00151   0.00000   0.01331   0.01331   2.90526
    D1        3.04510   0.00704   0.00000   0.04502   0.04871   3.09381
    D2       -1.13357   0.00838   0.00000   0.05626   0.05972  -1.07385
    D3        0.91915   0.00890   0.00000   0.06041   0.06377   0.98292
    D4       -0.92685   0.00198   0.00000   0.00712   0.00665  -0.92020
    D5        1.17766   0.00332   0.00000   0.01836   0.01767   1.19533
    D6       -3.05280   0.00383   0.00000   0.02251   0.02171  -3.03109
    D7        1.01121  -0.01142   0.00000  -0.06602  -0.06869   0.94251
    D8        3.11572  -0.01008   0.00000  -0.05478  -0.05768   3.05804
    D9       -1.11475  -0.00957   0.00000  -0.05063  -0.05363  -1.16838
         Item               Value     Threshold  Converged?
 Maximum Force            0.147976     0.000450     NO 
 RMS     Force            0.031032     0.000300     NO 
 Maximum Displacement     0.174927     0.001800     NO 
 RMS     Displacement     0.066627     0.001200     NO 
 Predicted change in Energy=-2.932364D-02
 Lowest energy point so far.  Saving SCF results.
 GradGradGradGradGradGradGradGradGradGradGradGradGradGradGradGradGradGrad

 Leave Link  103 at Wed Jan  8 02:48:59 2020, MaxMem=  4294967296 cpu:              63.8 elap:               4.6
 (Enter /home/cwagen/sw/g16/g16/l202.exe)
                          Input orientation:                          
 ---------------------------------------------------------------------
 Center     Atomic      Atomic             Coordinates (Angstroms)
 Number     Number       Type             X           Y           Z
 ---------------------------------------------------------------------
      1          6           0       -0.163322   -0.384566   -0.249583
      2          8           0       -0.239325   -0.591891   -1.432051
      3          6           0       -0.350959   -1.455934    0.820332
      4          1           0       -0.194098   -1.069041    1.829672
      5          1           0       -1.370119   -1.848055    0.726327
      6          1           0        0.376296   -2.238941    0.590032
      7         17           0       -2.052468    2.046808    0.621936
      8          6           0        1.838702    0.424049    0.172367
      9          7           0        2.965925    0.732038    0.237270
 ---------------------------------------------------------------------
                    Distance matrix (angstroms):
                    1          2          3          4          5
     1  C    0.000000
     2  O    1.202910   0.000000
     3  C    1.525698   2.415008   0.000000
     4  H    2.189235   3.296749   1.092272   0.000000
     5  H    2.133203   2.741394   1.096031   1.790882   0.000000
     6  H    2.105907   2.679661   1.093178   1.797421   1.794807
     7  Cl   3.200000   3.803825   3.899192   3.823700   3.955560
     8  C    2.200000   2.815046   2.957839   3.017988   3.970624
     9  N    3.357978   3.848772   4.016080   3.970563   5.069253
                    6          7          8          9
     6  H    0.000000
     7  Cl   4.926212   0.000000
     8  C    3.066691   4.239889   0.000000
     9  N    3.956935   5.202005   1.170342   0.000000
 Stoichiometry    C3H3ClNO(1-)
 Framework group  C1[X(C3H3ClNO)]
 Deg. of freedom    21
 Full point group                 C1      NOp   1
 RotChk:  IX=0 Diff= 4.89D-02
 Largest Abelian subgroup         C1      NOp   1
 Largest concise Abelian subgroup C1      NOp   1
                         Standard orientation:                         
 ---------------------------------------------------------------------
 Center     Atomic      Atomic             Coordinates (Angstroms)
 Number     Number       Type             X           Y           Z
 ---------------------------------------------------------------------
      1          6           0        0.419624    0.748736    0.234643
      2          8           0        0.596245    1.161739    1.350540
      3          6           0        0.602380    1.587508   -1.026632
      4          1           0        0.437969    1.009756   -1.938898
      5          1           0       -0.108379    2.420565   -0.980576
      6          1           0        1.627621    1.964965   -0.988622
      7         17           0       -2.457858   -0.622249   -0.049076
      8          6           0        1.768396   -0.960613   -0.079905
      9          7           0        2.616287   -1.766392   -0.118652
 ---------------------------------------------------------------------
 Rotational constants (GHZ):           2.7208328           1.2402929           1.0162238
 Leave Link  202 at Wed Jan  8 02:48:59 2020, MaxMem=  4294967296 cpu:               2.4 elap:               0.2
 (Enter /home/cwagen/sw/g16/g16/l301.exe)
 Standard basis: 6-31+G(d) (6D, 7F)
 Ernie: Thresh=  0.10000D-02 Tol=  0.10000D-05 Strict=F.
 There are   124 symmetry adapted cartesian basis functions of A   symmetry.
 There are   124 symmetry adapted basis functions of A   symmetry.
   124 basis functions,   228 primitive gaussians,   124 cartesian basis functions
    27 alpha electrons       27 beta electrons
       nuclear repulsion energy       211.9396317326 Hartrees.
 IExCor=  402 DFT=T Ex+Corr=B3LYP ExCW=0 ScaHFX=  0.200000
 ScaDFX=  0.800000  0.720000  1.000000  0.810000 ScalE2=  1.000000  1.000000
 IRadAn=      5 IRanWt=     -1 IRanGd=            0 ICorTp=0 IEmpDi=  4
 NAtoms=    9 NActive=    9 NUniq=    9 SFac= 1.00D+00 NAtFMM=   60 NAOKFM=F Big=F
 Integral buffers will be    131072 words long.
 Raffenetti 2 integral format.
 Two-electron integral symmetry is turned on.
 ------------------------------------------------------------------------------
 Polarizable Continuum Model (PCM)
 =================================
 Model                : PCM.
 Atomic radii         : SMD-Coulomb.
 Polarization charges : Total charges.
 Charge compensation  : None.
 Solution method      : On-the-fly selection.
 Cavity type          : VdW (van der Waals Surface) (Alpha=1.000).
 Cavity algorithm     : GePol (No added spheres)
                        Default sphere list used, NSphG=    9.
                        Lebedev-Laikov grids with approx.  5.0 points / Ang**2.
                        Smoothing algorithm: York/Karplus (Gamma=1.0000).
                        Polarization charges: spherical gaussians, with
                                              point-specific exponents (IZeta= 3).
                        Self-potential: point-specific (ISelfS= 7).
                        Self-field    : sphere-specific E.n sum rule (ISelfD= 2).
 1st derivatives      : Analytical E(r).r(x)/FMM algorithm (CHGder, D1EAlg=3).
                        Cavity 1st derivative terms included.
 Solvent              : TetraHydroFuran, Eps=   7.425700 Eps(inf)=   1.974025
 ------------------------------------------------------------------------------
 Spheres list:
 ISph  on   Nord     Re0    Alpha      Xe            Ye            Ze
    1   C      1    1.8500  1.000      0.419624      0.748736      0.234643
    2   O      2    2.2940  1.000      0.596245      1.161739      1.350540
    3   C      3    1.8500  1.000      0.602380      1.587508     -1.026632
    4   H      4    1.2000  1.000      0.437969      1.009756     -1.938898
    5   H      5    1.2000  1.000     -0.108379      2.420565     -0.980576
    6   H      6    1.2000  1.000      1.627621      1.964965     -0.988622
    7  Cl      7    2.3800  1.000     -2.457858     -0.622249     -0.049076
    8   C      8    1.8500  1.000      1.768396     -0.960613     -0.079905
    9   N      9    1.8900  1.000      2.616287     -1.766392     -0.118652
 ------------------------------------------------------------------------------
 GePol: Number of generator spheres                  =       9
 GePol: Total number of spheres                      =       9
 GePol: Number of exposed spheres                    =       9 (100.00%)
 GePol: Number of points                             =    1341
 GePol: Average weight of points                     =       0.14
 GePol: Minimum weight of points                     =   0.22D-06
 GePol: Maximum weight of points                     =    0.18138
 GePol: Number of points with low weight             =      29
 GePol: Fraction of low-weight points (<1% of avg)   =       2.16%
 GePol: Cavity surface area                          =    183.841 Ang**2
 GePol: Cavity volume                                =    160.655 Ang**3
 ------------------------------------------------------------------------------
 Atomic radii for non-electrostatic terms: SMD-CDS.
 ------------------------------------------------------------------------------
 PCM non-electrostatic energy =         0.0006383955 Hartrees.
 Nuclear repulsion after PCM non-electrostatic terms =      211.9402701281 Hartrees.
 Leave Link  301 at Wed Jan  8 02:48:59 2020, MaxMem=  4294967296 cpu:               2.5 elap:               0.2
 (Enter /home/cwagen/sw/g16/g16/l302.exe)
 NPDir=0 NMtPBC=     1 NCelOv=     1 NCel=       1 NClECP=     1 NCelD=      1
         NCelK=      1 NCelE2=     1 NClLst=     1 CellRange=     0.0.
 One-electron integrals computed using PRISM.
 One-electron integral symmetry used in STVInt
 NBasis=   124 RedAO= T EigKep=  1.79D-04  NBF=   124
 NBsUse=   124 1.00D-06 EigRej= -1.00D+00 NBFU=   124
 Precomputing XC quadrature grid using
 IXCGrd= 4 IRadAn=           5 IRanWt=          -1 IRanGd=           0 AccXCQ= 0.00D+00.
 Generated NRdTot=       0 NPtTot=           0 NUsed=           0 NTot=          32
 NSgBfM=   123   123   123   123   123 MxSgAt=     9 MxSgA2=     9.
 Leave Link  302 at Wed Jan  8 02:49:02 2020, MaxMem=  4294967296 cpu:              37.5 elap:               2.7
 (Enter /home/cwagen/sw/g16/g16/l303.exe)
 DipDrv:  MaxL=1.
 Leave Link  303 at Wed Jan  8 02:49:02 2020, MaxMem=  4294967296 cpu:               3.6 elap:               0.8
 (Enter /home/cwagen/sw/g16/g16/l401.exe)
 Initial guess from the checkpoint file:  "/scratch/users/cwagen/cwagen_scan_320_220/Gau-29516.chk"
 B after Tr=     0.000000    0.000000    0.000000
         Rot=    0.999879   -0.009784   -0.001880   -0.011915 Ang=  -1.78 deg.
 Guess basis will be translated and rotated to current coordinates.
 JPrj=2 DoOrth=T DoCkMO=T.
 Generating alternative initial guess.
 ExpMin= 4.38D-02 ExpMax= 2.52D+04 ExpMxC= 3.78D+03 IAcc=2 IRadAn=         4 AccDes= 0.00D+00
 Harris functional with IExCor=  402 and IRadAn=       4 diagonalized for initial guess.
 HarFok:  IExCor=  402 AccDes= 0.00D+00 IRadAn=         4 IDoV= 1 UseB2=F ITyADJ=14
 ICtDFT=  3500011 ScaDFX=  1.000000  1.000000  1.000000  1.000000
 FoFCou: FMM=F IPFlag=           0 FMFlag=      100000 FMFlg1=           0
         NFxFlg=           0 DoJE=T BraDBF=F KetDBF=T FulRan=T
         wScrn=  0.000000 ICntrl=       500 IOpCl=  0 I1Cent=   200000004 NGrid=           0
         NMat0=    1 NMatS0=      1 NMatT0=    0 NMatD0=    1 NMtDS0=    0 NMtDT0=    0
 Petite list used in FoFCou.
 Harris En= -706.359177146914    
 Leave Link  401 at Wed Jan  8 02:49:05 2020, MaxMem=  4294967296 cpu:              29.4 elap:               2.1
 (Enter /home/cwagen/sw/g16/g16/l502.exe)
 Keep R1 ints in memory in canonical form, NReq=45236517.
 FoFCou: FMM=F IPFlag=           0 FMFlag=           0 FMFlg1=           0
         NFxFlg=           0 DoJE=F BraDBF=F KetDBF=F FulRan=T
         wScrn=  0.000000 ICntrl=       600 IOpCl=  0 I1Cent=           0 NGrid=           0
         NMat0=    1 NMatS0=   7750 NMatT0=    0 NMatD0=    1 NMtDS0=    0 NMtDT0=    0
 Symmetry not used in FoFCou.
 Two-electron integral symmetry not used.
 Closed shell SCF:
 Using DIIS extrapolation, IDIIS=  1040.
 NGot=  4294967296 LenX=  4264898079 LenY=  4264882262
 Requested convergence on RMS density matrix=1.00D-08 within 128 cycles.
 Requested convergence on MAX density matrix=1.00D-06.
 Requested convergence on             energy=1.00D-06.
 No special actions if energy rises.

 Cycle   1  Pass 1  IDiag  1:
 Inv3:  Mode=1 IEnd=     5394843.
 Iteration    1 A*A^-1 deviation from unit magnitude is 3.44D-15 for   1332.
 Iteration    1 A*A^-1 deviation from orthogonality  is 1.72D-15 for   1331   1161.
 Iteration    1 A^-1*A deviation from unit magnitude is 4.22D-15 for   1334.
 Iteration    1 A^-1*A deviation from orthogonality  is 1.68D-15 for    655    246.
 E= -706.362273289046    
 DIIS: error= 6.64D-03 at cycle   1 NSaved=   1.
 NSaved= 1 IEnMin= 1 EnMin= -706.362273289046     IErMin= 1 ErrMin= 6.64D-03
 ErrMax= 6.64D-03  0.00D+00 EMaxC= 1.00D-01 BMatC= 1.03D-02 BMatP= 1.03D-02
 IDIUse=3 WtCom= 9.34D-01 WtEn= 6.64D-02
 Coeff-Com:  0.100D+01
 Coeff-En:   0.100D+01
 Coeff:      0.100D+01
 Gap=     0.561 Goal=   None    Shift=    0.000
 GapD=    0.561 DampG=2.000 DampE=1.000 DampFc=2.0000 IDamp=-1.
 RMSDP=1.82D-03 MaxDP=2.97D-02              OVMax= 4.16D-02

 Cycle   2  Pass 1  IDiag  1:
 E= -706.378651741302     Delta-E=       -0.016378452256 Rises=F Damp=F
 DIIS: error= 2.21D-03 at cycle   2 NSaved=   2.
 NSaved= 2 IEnMin= 2 EnMin= -706.378651741302     IErMin= 2 ErrMin= 2.21D-03
 ErrMax= 2.21D-03  0.00D+00 EMaxC= 1.00D-01 BMatC= 8.93D-04 BMatP= 1.03D-02
 IDIUse=3 WtCom= 9.78D-01 WtEn= 2.21D-02
 Coeff-Com:  0.101D+00 0.899D+00
 Coeff-En:   0.000D+00 0.100D+01
 Coeff:      0.984D-01 0.902D+00
 Gap=     0.119 Goal=   None    Shift=    0.000
 RMSDP=5.69D-04 MaxDP=1.72D-02 DE=-1.64D-02 OVMax= 2.72D-02

 Cycle   3  Pass 1  IDiag  1:
 E= -706.377609827709     Delta-E=        0.001041913593 Rises=F Damp=F
 DIIS: error= 3.17D-03 at cycle   3 NSaved=   3.
 NSaved= 3 IEnMin= 2 EnMin= -706.378651741302     IErMin= 2 ErrMin= 2.21D-03
 ErrMax= 3.17D-03  0.00D+00 EMaxC= 1.00D-01 BMatC= 2.25D-03 BMatP= 8.93D-04
 IDIUse=3 WtCom= 1.51D-01 WtEn= 8.49D-01
 Coeff-Com: -0.131D-01 0.628D+00 0.386D+00
 Coeff-En:   0.000D+00 0.676D+00 0.324D+00
 Coeff:     -0.198D-02 0.669D+00 0.333D+00
 Gap=     0.114 Goal=   None    Shift=    0.000
 RMSDP=3.38D-04 MaxDP=1.12D-02 DE= 1.04D-03 OVMax= 1.56D-02

 Cycle   4  Pass 1  IDiag  1:
 E= -706.379401312599     Delta-E=       -0.001791484890 Rises=F Damp=F
 DIIS: error= 6.63D-04 at cycle   4 NSaved=   4.
 NSaved= 4 IEnMin= 4 EnMin= -706.379401312599     IErMin= 4 ErrMin= 6.63D-04
 ErrMax= 6.63D-04  0.00D+00 EMaxC= 1.00D-01 BMatC= 7.40D-05 BMatP= 8.93D-04
 IDIUse=3 WtCom= 9.93D-01 WtEn= 6.63D-03
 Coeff-Com: -0.233D-01 0.260D+00 0.187D+00 0.576D+00
 Coeff-En:   0.000D+00 0.000D+00 0.000D+00 0.100D+01
 Coeff:     -0.231D-01 0.258D+00 0.186D+00 0.579D+00
 Gap=     0.112 Goal=   None    Shift=    0.000
 RMSDP=1.32D-04 MaxDP=4.37D-03 DE=-1.79D-03 OVMax= 3.00D-03

 Cycle   5  Pass 1  IDiag  1:
 E= -706.379461242233     Delta-E=       -0.000059929634 Rises=F Damp=F
 DIIS: error= 2.14D-04 at cycle   5 NSaved=   5.
 NSaved= 5 IEnMin= 5 EnMin= -706.379461242233     IErMin= 5 ErrMin= 2.14D-04
 ErrMax= 2.14D-04  0.00D+00 EMaxC= 1.00D-01 BMatC= 1.11D-05 BMatP= 7.40D-05
 IDIUse=3 WtCom= 9.98D-01 WtEn= 2.14D-03
 Coeff-Com: -0.753D-02 0.798D-01 0.720D-01 0.314D+00 0.542D+00
 Coeff-En:   0.000D+00 0.000D+00 0.000D+00 0.102D+00 0.898D+00
 Coeff:     -0.752D-02 0.796D-01 0.718D-01 0.313D+00 0.543D+00
 Gap=     0.113 Goal=   None    Shift=    0.000
 RMSDP=6.67D-05 MaxDP=2.70D-03 DE=-5.99D-05 OVMax= 2.18D-03

 Cycle   6  Pass 1  IDiag  1:
 E= -706.379473753742     Delta-E=       -0.000012511509 Rises=F Damp=F
 DIIS: error= 8.27D-05 at cycle   6 NSaved=   6.
 NSaved= 6 IEnMin= 6 EnMin= -706.379473753742     IErMin= 6 ErrMin= 8.27D-05
 ErrMax= 8.27D-05  0.00D+00 EMaxC= 1.00D-01 BMatC= 1.91D-06 BMatP= 1.11D-05
 IDIUse=1 WtCom= 1.00D+00 WtEn= 0.00D+00
 Coeff-Com: -0.211D-02 0.142D-01 0.193D-01 0.117D+00 0.338D+00 0.514D+00
 Coeff:     -0.211D-02 0.142D-01 0.193D-01 0.117D+00 0.338D+00 0.514D+00
 Gap=     0.113 Goal=   None    Shift=    0.000
 RMSDP=1.45D-05 MaxDP=4.09D-04 DE=-1.25D-05 OVMax= 4.61D-04

 Cycle   7  Pass 1  IDiag  1:
 E= -706.379475589105     Delta-E=       -0.000001835363 Rises=F Damp=F
 DIIS: error= 4.11D-05 at cycle   7 NSaved=   7.
 NSaved= 7 IEnMin= 7 EnMin= -706.379475589105     IErMin= 7 ErrMin= 4.11D-05
 ErrMax= 4.11D-05  0.00D+00 EMaxC= 1.00D-01 BMatC= 2.15D-07 BMatP= 1.91D-06
 IDIUse=1 WtCom= 1.00D+00 WtEn= 0.00D+00
 Coeff-Com: -0.579D-03-0.178D-03 0.390D-02 0.404D-01 0.167D+00 0.311D+00
 Coeff-Com:  0.479D+00
 Coeff:     -0.579D-03-0.178D-03 0.390D-02 0.404D-01 0.167D+00 0.311D+00
 Coeff:      0.479D+00
 Gap=     0.113 Goal=   None    Shift=    0.000
 RMSDP=4.60D-06 MaxDP=1.13D-04 DE=-1.84D-06 OVMax= 1.95D-04

 Cycle   8  Pass 1  IDiag  1:
 E= -706.379475769958     Delta-E=       -0.000000180853 Rises=F Damp=F
 DIIS: error= 2.07D-05 at cycle   8 NSaved=   8.
 NSaved= 8 IEnMin= 8 EnMin= -706.379475769958     IErMin= 8 ErrMin= 2.07D-05
 ErrMax= 2.07D-05  0.00D+00 EMaxC= 1.00D-01 BMatC= 4.15D-08 BMatP= 2.15D-07
 IDIUse=1 WtCom= 1.00D+00 WtEn= 0.00D+00
 Coeff-Com:  0.212D-03-0.385D-02-0.267D-02-0.290D-02 0.341D-01 0.666D-01
 Coeff-Com:  0.316D+00 0.593D+00
 Coeff:      0.212D-03-0.385D-02-0.267D-02-0.290D-02 0.341D-01 0.666D-01
 Coeff:      0.316D+00 0.593D+00
 Gap=     0.113 Goal=   None    Shift=    0.000
 RMSDP=2.10D-06 MaxDP=5.18D-05 DE=-1.81D-07 OVMax= 8.80D-05

 Cycle   9  Pass 1  IDiag  1:
 E= -706.379475806837     Delta-E=       -0.000000036879 Rises=F Damp=F
 DIIS: error= 4.56D-06 at cycle   9 NSaved=   9.
 NSaved= 9 IEnMin= 9 EnMin= -706.379475806837     IErMin= 9 ErrMin= 4.56D-06
 ErrMax= 4.56D-06  0.00D+00 EMaxC= 1.00D-01 BMatC= 3.12D-09 BMatP= 4.15D-08
 IDIUse=1 WtCom= 1.00D+00 WtEn= 0.00D+00
 Coeff-Com:  0.137D-03-0.202D-02-0.192D-02-0.472D-02 0.756D-02 0.832D-02
 Coeff-Com:  0.135D+00 0.321D+00 0.537D+00
 Coeff:      0.137D-03-0.202D-02-0.192D-02-0.472D-02 0.756D-02 0.832D-02
 Coeff:      0.135D+00 0.321D+00 0.537D+00
 Gap=     0.113 Goal=   None    Shift=    0.000
 RMSDP=9.54D-07 MaxDP=3.51D-05 DE=-3.69D-08 OVMax= 4.12D-05

 Cycle  10  Pass 1  IDiag  1:
 E= -706.379475810894     Delta-E=       -0.000000004057 Rises=F Damp=F
 DIIS: error= 8.46D-07 at cycle  10 NSaved=  10.
 NSaved=10 IEnMin=10 EnMin= -706.379475810894     IErMin=10 ErrMin= 8.46D-07
 ErrMax= 8.46D-07  0.00D+00 EMaxC= 1.00D-01 BMatC= 2.00D-10 BMatP= 3.12D-09
 IDIUse=1 WtCom= 1.00D+00 WtEn= 0.00D+00
 Coeff-Com:  0.317D-04-0.230D-03-0.473D-03-0.146D-02-0.102D-02-0.774D-02
 Coeff-Com:  0.545D-02 0.434D-01 0.203D+00 0.759D+00
 Coeff:      0.317D-04-0.230D-03-0.473D-03-0.146D-02-0.102D-02-0.774D-02
 Coeff:      0.545D-02 0.434D-01 0.203D+00 0.759D+00
 Gap=     0.113 Goal=   None    Shift=    0.000
 RMSDP=2.61D-07 MaxDP=8.23D-06 DE=-4.06D-09 OVMax= 9.11D-06

 Cycle  11  Pass 1  IDiag  1:
 E= -706.379475811153     Delta-E=       -0.000000000259 Rises=F Damp=F
 DIIS: error= 1.27D-07 at cycle  11 NSaved=  11.
 NSaved=11 IEnMin=11 EnMin= -706.379475811153     IErMin=11 ErrMin= 1.27D-07
 ErrMax= 1.27D-07  0.00D+00 EMaxC= 1.00D-01 BMatC= 4.48D-12 BMatP= 2.00D-10
 IDIUse=1 WtCom= 1.00D+00 WtEn= 0.00D+00
 Coeff-Com:  0.419D-05 0.599D-05-0.627D-04-0.292D-03-0.633D-03-0.253D-02
 Coeff-Com: -0.363D-02 0.114D-02 0.321D-01 0.220D+00 0.753D+00
 Coeff:      0.419D-05 0.599D-05-0.627D-04-0.292D-03-0.633D-03-0.253D-02
 Coeff:     -0.363D-02 0.114D-02 0.321D-01 0.220D+00 0.753D+00
 Gap=     0.113 Goal=   None    Shift=    0.000
 RMSDP=5.99D-08 MaxDP=2.68D-06 DE=-2.59D-10 OVMax= 9.77D-07

 Cycle  12  Pass 1  IDiag  1:
 E= -706.379475811160     Delta-E=       -0.000000000007 Rises=F Damp=F
 DIIS: error= 4.85D-08 at cycle  12 NSaved=  12.
 NSaved=12 IEnMin=12 EnMin= -706.379475811160     IErMin=12 ErrMin= 4.85D-08
 ErrMax= 4.85D-08  0.00D+00 EMaxC= 1.00D-01 BMatC= 8.34D-13 BMatP= 4.48D-12
 IDIUse=1 WtCom= 1.00D+00 WtEn= 0.00D+00
 Coeff-Com:  0.255D-07 0.153D-04 0.801D-05-0.274D-04-0.164D-03-0.400D-03
 Coeff-Com: -0.172D-02-0.205D-02-0.171D-02 0.417D-01 0.342D+00 0.623D+00
 Coeff:      0.255D-07 0.153D-04 0.801D-05-0.274D-04-0.164D-03-0.400D-03
 Coeff:     -0.172D-02-0.205D-02-0.171D-02 0.417D-01 0.342D+00 0.623D+00
 Gap=     0.113 Goal=   None    Shift=    0.000
 RMSDP=1.35D-08 MaxDP=4.37D-07 DE=-7.05D-12 OVMax= 4.51D-07

 Cycle  13  Pass 1  IDiag  1:
 E= -706.379475811157     Delta-E=        0.000000000003 Rises=F Damp=F
 DIIS: error= 1.16D-08 at cycle  13 NSaved=  13.
 NSaved=13 IEnMin=12 EnMin= -706.379475811160     IErMin=13 ErrMin= 1.16D-08
 ErrMax= 1.16D-08  0.00D+00 EMaxC= 1.00D-01 BMatC= 3.80D-14 BMatP= 8.34D-13
 IDIUse=1 WtCom= 1.00D+00 WtEn= 0.00D+00
 Coeff-Com: -0.422D-06 0.388D-05 0.896D-05 0.165D-04 0.911D-05 0.126D-03
 Coeff-Com: -0.139D-03-0.662D-03-0.429D-02-0.819D-02 0.323D-01 0.204D+00
 Coeff-Com:  0.777D+00
 Coeff:     -0.422D-06 0.388D-05 0.896D-05 0.165D-04 0.911D-05 0.126D-03
 Coeff:     -0.139D-03-0.662D-03-0.429D-02-0.819D-02 0.323D-01 0.204D+00
 Coeff:      0.777D+00
 Gap=     0.113 Goal=   None    Shift=    0.000
 RMSDP=5.91D-09 MaxDP=2.50D-07 DE= 2.84D-12 OVMax= 1.16D-07

 Error on total polarization charges =  0.02583
 SCF Done:  E(RB3LYP) =  -706.379475811     A.U. after   13 cycles
            NFock= 13  Conv=0.59D-08     -V/T= 2.0061
 KE= 7.021077858861D+02 PE=-2.100796220432D+03 EE= 4.803686886062D+02
 SMD-CDS (non-electrostatic) energy       (kcal/mol) =       0.40
 (included in total energy above)
 Leave Link  502 at Wed Jan  8 02:49:35 2020, MaxMem=  4294967296 cpu:             431.3 elap:              30.1
 (Enter /home/cwagen/sw/g16/g16/l701.exe)
 ... and contract with generalized density number  0.
 Compute integral first derivatives.
 D1PCM: PCM CHGder 1st derivatives, ID1Alg=3 FixD1E=F DoIter=F DoCFld=F I1PDM=0.
 GePol: Maximum number of non-zero 1st derivatives   =     419
 Leave Link  701 at Wed Jan  8 02:49:40 2020, MaxMem=  4294967296 cpu:              72.0 elap:               5.2
 (Enter /home/cwagen/sw/g16/g16/l702.exe)
 L702 exits ... SP integral derivatives will be done elsewhere.
 Leave Link  702 at Wed Jan  8 02:49:40 2020, MaxMem=  4294967296 cpu:               1.3 elap:               0.1
 (Enter /home/cwagen/sw/g16/g16/l703.exe)
 Integral derivatives from FoFJK, PRISM(SPDF).
 Compute integral first derivatives, UseDBF=F ICtDFT=           0.
 Calling FoFJK, ICntrl=      2127 FMM=F ISym2X=0 I1Cent= 0 IOpClX= 0 NMat=1 NMatS=1 NMatT=0.
 FoFJK:  IHMeth= 1 ICntrl=    2127 DoSepK=F KAlg= 0 I1Cent=           0 FoldK=F
 IRaf=         0 NMat=       1 IRICut=       1 DoRegI=T DoRafI=F ISym2E= 0 IDoP0=0 IntGTp=1.
 FoFCou: FMM=F IPFlag=           0 FMFlag=      100000 FMFlg1=         800
         NFxFlg=           0 DoJE=F BraDBF=F KetDBF=F FulRan=T
         wScrn=  0.000000 ICntrl=      2127 IOpCl=  0 I1Cent=           0 NGrid=           0
         NMat0=    1 NMatS0=      1 NMatT0=    0 NMatD0=    1 NMtDS0=    0 NMtDT0=    0
 Symmetry not used in FoFCou.
 Leave Link  703 at Wed Jan  8 02:49:43 2020, MaxMem=  4294967296 cpu:              32.8 elap:               2.4
 (Enter /home/cwagen/sw/g16/g16/l716.exe)
 Dipole        = 1.77670698D+00 3.62633787D+00-8.55601787D-01
 ***** Axes restored to original set *****
 -------------------------------------------------------------------
 Center     Atomic                   Forces (Hartrees/Bohr)
 Number     Number              X              Y              Z
 -------------------------------------------------------------------
      1        6           0.040929885   -0.051505206   -0.057703664
      2        8          -0.008154067    0.037055711    0.056545511
      3        6          -0.011731137    0.024595194    0.011572557
      4        1           0.000307585    0.000110393   -0.002089346
      5        1           0.000405112    0.000655523   -0.000836040
      6        1           0.002677265    0.002131106   -0.002526249
      7       17           0.005910400   -0.008206031   -0.002344039
      8        6          -0.031854755   -0.005002807   -0.003137963
      9        7           0.001509712    0.000166118    0.000519232
 -------------------------------------------------------------------
 Cartesian Forces:  Max     0.057703664 RMS     0.023057923
 Leave Link  716 at Wed Jan  8 02:49:43 2020, MaxMem=  4294967296 cpu:               1.2 elap:               0.1
 (Enter /home/cwagen/sw/g16/g16/l103.exe)

 GradGradGradGradGradGradGradGradGradGradGradGradGradGradGradGradGradGrad
 Berny optimization.
 Using GEDIIS/GDIIS optimizer.
 FormGI is forming the generalized inverse of G from B-inverse, IUseBI=4.
 Internal  Forces:  Max     0.061462697 RMS     0.015958418
 Search for a local minimum.
 Step number   2 out of a maximum of   41
 All quantities printed in internal units (Hartrees-Bohrs-Radians)
 RMS Force = .15419D-01 SwitMx=.10000D-02 MixMth= 1
 Mixed Optimization -- RFO/linear search
 Update second derivatives using D2CorX and points    1    2
 DE= -3.75D-02 DEPred=-2.93D-02 R= 1.28D+00
 TightC=F SS=  1.41D+00  RLast= 3.30D-01 DXNew= 5.0454D-01 9.8861D-01
 Trust test= 1.28D+00 RLast= 3.30D-01 DXMaxT set to 5.05D-01
 ITU=  1  0
 Use linear search instead of GDIIS.
     Eigenvalues ---    0.00230   0.04746   0.04754   0.05436   0.05563
     Eigenvalues ---    0.06155   0.08985   0.15933   0.16000   0.16053
     Eigenvalues ---    0.19200   0.25000   0.25449   0.26848   0.33919
     Eigenvalues ---    0.33999   0.34287   0.63355   1.220291000.00000
     Eigenvalues --- 1000.000001000.000001000.000001000.000001000.00000
     Eigenvalues --- 1000.000001000.000001000.000001000.000001000.00000
     Eigenvalues --- 1000.00000
 RFO step:  Lambda=-3.26475890D-03 EMin= 2.30008792D-03
 Quartic linear search produced a step of  0.72840.
 Iteration  1 RMS(Cart)=  0.08008540 RMS(Int)=  0.01139583
 Iteration  2 RMS(Cart)=  0.00973833 RMS(Int)=  0.00624339
 Iteration  3 RMS(Cart)=  0.00013106 RMS(Int)=  0.00624246
 Iteration  4 RMS(Cart)=  0.00000286 RMS(Int)=  0.00624246
 Iteration  5 RMS(Cart)=  0.00000004 RMS(Int)=  0.00624246
 Iteration  1 RMS(Cart)=  0.00000000 RMS(Int)=  0.00000000
 ITry= 1 IFail=0 DXMaxC= 2.22D-01 DCOld= 1.00D+10 DXMaxT= 5.05D-01 DXLimC= 3.00D+00 Rises=F
 Variable       Old X    -DE/DX   Delta X   Delta X   Delta X     New X
                                 (Linear)    (Quad)   (Total)
    R1        2.27317  -0.06146  -0.13046   0.00981  -0.12065   2.15252
    R2        2.88315  -0.01400  -0.04507  -0.01302  -0.05809   2.82506
    R3        6.04712  -0.01035   0.00000   0.00000   0.00000   6.04712
    R4        4.15740  -0.02988   0.00000   0.00000   0.00000   4.15740
    R5        2.06409  -0.00186  -0.00671   0.00096  -0.00576   2.05834
    R6        2.07120  -0.00053  -0.00254   0.00122  -0.00132   2.06988
    R7        2.06581   0.00075  -0.00209   0.00701   0.00491   2.07072
    R8        2.21163   0.00153   0.00174   0.00016   0.00190   2.21353
    A1        2.16584   0.04061   0.12323   0.07903   0.19376   2.35961
    A2        1.94054  -0.01637  -0.05721  -0.04063  -0.08724   1.85330
    A3        1.88534  -0.00740  -0.00514   0.03183   0.00525   1.89059
    A4        1.84414  -0.01770  -0.05831  -0.05290  -0.10325   1.74089
    A5        1.80855  -0.00048   0.02666  -0.02278  -0.01459   1.79396
    A6        1.77800  -0.00538  -0.04136  -0.00673  -0.05013   1.72787
    A7        1.96235  -0.00027  -0.00847   0.01680   0.00812   1.97047
    A8        1.88120  -0.00025   0.00129  -0.00418  -0.00296   1.87823
    A9        1.84774  -0.00580  -0.03908   0.02089  -0.01852   1.82923
   A10        1.91720   0.00120   0.00993  -0.00468   0.00525   1.92245
   A11        1.93141   0.00221   0.01678  -0.01317   0.00314   1.93454
   A12        1.92227   0.00273   0.01947  -0.01525   0.00404   1.92631
   A13        3.07577  -0.00077  -0.01429   0.04097   0.02668   3.10245
   A14        2.90526   0.00058   0.00970  -0.02569  -0.01599   2.88927
    D1        3.09381   0.00803   0.03548   0.01390   0.05537  -3.13401
    D2       -1.07385   0.00919   0.04350   0.01573   0.06504  -1.00881
    D3        0.98292   0.00926   0.04645   0.00672   0.05895   1.04187
    D4       -0.92020   0.00117   0.00485  -0.03349  -0.03126  -0.95145
    D5        1.19533   0.00233   0.01287  -0.03166  -0.02159   1.17374
    D6       -3.03109   0.00240   0.01582  -0.04068  -0.02768  -3.05876
    D7        0.94251  -0.01085  -0.05004  -0.06701  -0.12004   0.82247
    D8        3.05804  -0.00969  -0.04201  -0.06519  -0.11037   2.94767
    D9       -1.16838  -0.00962  -0.03907  -0.07420  -0.11646  -1.28484
         Item               Value     Threshold  Converged?
 Maximum Force            0.061463     0.000450     NO 
 RMS     Force            0.015419     0.000300     NO 
 Maximum Displacement     0.222353     0.001800     NO 
 RMS     Displacement     0.081987     0.001200     NO 
 Predicted change in Energy=-1.783465D-02
 Lowest energy point so far.  Saving SCF results.
 GradGradGradGradGradGradGradGradGradGradGradGradGradGradGradGradGradGrad

 Leave Link  103 at Wed Jan  8 02:49:48 2020, MaxMem=  4294967296 cpu:              72.1 elap:               5.2
 (Enter /home/cwagen/sw/g16/g16/l202.exe)
                          Input orientation:                          
 ---------------------------------------------------------------------
 Center     Atomic      Atomic             Coordinates (Angstroms)
 Number     Number       Type             X           Y           Z
 ---------------------------------------------------------------------
      1          6           0       -0.132452   -0.477594   -0.310783
      2          8           0       -0.231507   -0.525547   -1.444519
      3          6           0       -0.354789   -1.435926    0.814859
      4          1           0       -0.150996   -0.997780    1.791029
      5          1           0       -1.395638   -1.773043    0.762478
      6          1           0        0.326806   -2.269526    0.611712
      7         17           0       -2.010952    1.929145    0.647781
      8          6           0        1.825651    0.399310    0.175912
      9          7           0        2.934509    0.765428    0.267834
 ---------------------------------------------------------------------
                    Distance matrix (angstroms):
                    1          2          3          4          5
     1  C    0.000000
     2  O    1.139065   0.000000
     3  C    1.494959   2.439012   0.000000
     4  H    2.165306   3.270819   1.089226   0.000000
     5  H    2.103738   2.789674   1.095334   1.791113   0.000000
     6  H    2.067107   2.753409   1.095779   1.799006   1.798900
     7  Cl   3.200000   3.683702   3.754263   3.651484   3.754725
     8  C    2.200000   2.777239   2.920730   2.909914   3.929361
     9  N    3.359487   3.823928   3.995583   3.866441   5.043677
                    6          7          8          9
     6  H    0.000000
     7  Cl   4.805752   0.000000
     8  C    3.091786   4.157232   0.000000
     9  N    4.016131   5.094721   1.171349   0.000000
 Stoichiometry    C3H3ClNO(1-)
 Framework group  C1[X(C3H3ClNO)]
 Deg. of freedom    21
 Full point group                 C1      NOp   1
 RotChk:  IX=0 Diff= 6.56D-02
 Largest Abelian subgroup         C1      NOp   1
 Largest concise Abelian subgroup C1      NOp   1
                         Standard orientation:                         
 ---------------------------------------------------------------------
 Center     Atomic      Atomic             Coordinates (Angstroms)
 Number     Number       Type             X           Y           Z
 ---------------------------------------------------------------------
      1          6           0        0.444826    0.826950    0.260536
      2          8           0        0.526062    1.131977    1.354990
      3          6           0        0.493529    1.548198   -1.048025
      4          1           0        0.365340    0.885025   -1.902531
      5          1           0       -0.296093    2.307243   -1.037727
      6          1           0        1.480173    2.024471   -1.068724
      7         17           0       -2.372719   -0.659103   -0.044565
      8          6           0        1.777962   -0.889712   -0.079783
      9          7           0        2.611487   -1.711489   -0.124243
 ---------------------------------------------------------------------
 Rotational constants (GHZ):           2.7681958           1.2915780           1.0618214
 Leave Link  202 at Wed Jan  8 02:49:48 2020, MaxMem=  4294967296 cpu:               2.1 elap:               0.2
 (Enter /home/cwagen/sw/g16/g16/l301.exe)
 Standard basis: 6-31+G(d) (6D, 7F)
 Ernie: Thresh=  0.10000D-02 Tol=  0.10000D-05 Strict=F.
 There are   124 symmetry adapted cartesian basis functions of A   symmetry.
 There are   124 symmetry adapted basis functions of A   symmetry.
   124 basis functions,   228 primitive gaussians,   124 cartesian basis functions
    27 alpha electrons       27 beta electrons
       nuclear repulsion energy       215.5404760653 Hartrees.
 IExCor=  402 DFT=T Ex+Corr=B3LYP ExCW=0 ScaHFX=  0.200000
 ScaDFX=  0.800000  0.720000  1.000000  0.810000 ScalE2=  1.000000  1.000000
 IRadAn=      5 IRanWt=     -1 IRanGd=            0 ICorTp=0 IEmpDi=  4
 NAtoms=    9 NActive=    9 NUniq=    9 SFac= 1.00D+00 NAtFMM=   60 NAOKFM=F Big=F
 Integral buffers will be    131072 words long.
 Raffenetti 2 integral format.
 Two-electron integral symmetry is turned on.
 ------------------------------------------------------------------------------
 Polarizable Continuum Model (PCM)
 =================================
 Model                : PCM.
 Atomic radii         : SMD-Coulomb.
 Polarization charges : Total charges.
 Charge compensation  : None.
 Solution method      : On-the-fly selection.
 Cavity type          : VdW (van der Waals Surface) (Alpha=1.000).
 Cavity algorithm     : GePol (No added spheres)
                        Default sphere list used, NSphG=    9.
                        Lebedev-Laikov grids with approx.  5.0 points / Ang**2.
                        Smoothing algorithm: York/Karplus (Gamma=1.0000).
                        Polarization charges: spherical gaussians, with
                                              point-specific exponents (IZeta= 3).
                        Self-potential: point-specific (ISelfS= 7).
                        Self-field    : sphere-specific E.n sum rule (ISelfD= 2).
 1st derivatives      : Analytical E(r).r(x)/FMM algorithm (CHGder, D1EAlg=3).
                        Cavity 1st derivative terms included.
 Solvent              : TetraHydroFuran, Eps=   7.425700 Eps(inf)=   1.974025
 ------------------------------------------------------------------------------
 Spheres list:
 ISph  on   Nord     Re0    Alpha      Xe            Ye            Ze
    1   C      1    1.8500  1.000      0.444826      0.826950      0.260536
    2   O      2    2.2940  1.000      0.526062      1.131977      1.354990
    3   C      3    1.8500  1.000      0.493529      1.548198     -1.048025
    4   H      4    1.2000  1.000      0.365340      0.885025     -1.902531
    5   H      5    1.2000  1.000     -0.296093      2.307243     -1.037727
    6   H      6    1.2000  1.000      1.480173      2.024471     -1.068724
    7  Cl      7    2.3800  1.000     -2.372719     -0.659103     -0.044565
    8   C      8    1.8500  1.000      1.777962     -0.889712     -0.079783
    9   N      9    1.8900  1.000      2.611487     -1.711489     -0.124243
 ------------------------------------------------------------------------------
 GePol: Number of generator spheres                  =       9
 GePol: Total number of spheres                      =       9
 GePol: Number of exposed spheres                    =       9 (100.00%)
 GePol: Number of points                             =    1344
 GePol: Average weight of points                     =       0.13
 GePol: Minimum weight of points                     =   0.52D-08
 GePol: Maximum weight of points                     =    0.18138
 GePol: Number of points with low weight             =      45
 GePol: Fraction of low-weight points (<1% of avg)   =       3.35%
 GePol: Cavity surface area                          =    180.990 Ang**2
 GePol: Cavity volume                                =    159.164 Ang**3
 ------------------------------------------------------------------------------
 Atomic radii for non-electrostatic terms: SMD-CDS.
 ------------------------------------------------------------------------------
 PCM non-electrostatic energy =         0.0005316193 Hartrees.
[...]
 -------------------------------------------------------------------
 Cartesian Forces:  Max     0.024363828 RMS     0.007502834
 Leave Link  716 at Wed Jan  8 02:56:19 2020, MaxMem=  4294967296 cpu:               1.4 elap:               0.1
 (Enter /home/cwagen/sw/g16/g16/l103.exe)

 GradGradGradGradGradGradGradGradGradGradGradGradGradGradGradGradGradGrad
 Berny optimization.
 Using GEDIIS/GDIIS optimizer.
 FormGI is forming the generalized inverse of G from B-inverse, IUseBI=4.
 Internal  Forces:  Max     0.027586690 RMS     0.004955729
 Search for a local minimum.
 Step number  11 out of a maximum of   41
 All quantities printed in internal units (Hartrees-Bohrs-Radians)
 RMS Force = .16493D-04 SwitMx=.10000D-02 MixMth= 2
 Mixed Optimization -- En-DIIS/RFO-DIIS
 Swapping is turned off.
 Update second derivatives using D2CorX and points    6    7    8    9   10
                                                     11
 DE= -2.05D-06 DEPred=-4.48D-07 R= 4.56D+00
 TightC=F SS=  1.41D+00  RLast= 2.64D-02 DXNew= 2.8974D+00 7.9144D-02
 Trust test= 4.56D+00 RLast= 2.64D-02 DXMaxT set to 1.72D+00
 ITU=  1  1  1  1  1  1  1  1  1  1  0
     Eigenvalues ---    0.00139   0.01117   0.02248   0.04431   0.04850
     Eigenvalues ---    0.06012   0.09560   0.15799   0.16364   0.16760
     Eigenvalues ---    0.20203   0.23577   0.25619   0.29287   0.33486
     Eigenvalues ---    0.33962   0.34176   1.05242   1.221661000.00000
     Eigenvalues --- 1000.000001000.000001000.000001000.000001000.00000
     Eigenvalues --- 1000.000001000.000001000.000001000.000001000.00000
     Eigenvalues --- 1000.00000
 En-DIIS/RFO-DIIS/Sim-DIIS IScMMF=       -3 using points:    11   10    9    8    7    6
 RFO step:  Lambda=-8.12886574D-07.
 NNeg= 0 NGDIIS= 6 SimSw=  2.50D-01 Rises=F DC= -2.05D-06 SmlDif=  1.00D-05
 NRisDI= 0 DoIntr=F SqrtH=F CThrHd= 10.0 CDAdj=  3.0
 RMS Error=  0.1507334501D-03 NUsed= 6 OKEnD=F EnDIS=F
 InvSVX:  RCond= 2.63D-08 Info=           0 Equed=N FErr=  1.01D-11 BErr=  7.43D-17
 DIIS inversion failure, remove point   6.
 InvSVX:  RCond= 4.84D-08 Info=           0 Equed=N FErr=  3.25D-12 BErr=  4.75D-17
 DIIS inversion failure, remove point   5.
 InvSVX:  RCond= 9.41D-08 Info=           0 Equed=N FErr=  3.62D-13 BErr=  8.55D-17
 DIIS inversion failure, remove point   4.
 InvSVX:  RCond= 1.61D-05 Info=           0 Equed=N FErr=  1.36D-15 BErr=  1.10D-16
 RFO-DIIS uses    3 points instead of    6
 DidBck=F Rises=F RFO-DIIS coefs:    1.00596   -0.00490   -0.00106    0.00000    0.00000
                  RFO-DIIS coefs:    0.00000
 Iteration  1 RMS(Cart)=  0.00027663 RMS(Int)=  0.00000005
 Iteration  2 RMS(Cart)=  0.00000004 RMS(Int)=  0.00000001
 Iteration  1 RMS(Cart)=  0.00000000 RMS(Int)=  0.00000000
 ITry= 1 IFail=0 DXMaxC= 8.58D-04 DCOld= 1.00D+10 DXMaxT= 1.72D+00 DXLimC= 3.00D+00 Rises=F
 Variable       Old X    -DE/DX   Delta X   Delta X   Delta X     New X
                                 (Linear)    (Quad)   (Total)
    R1        2.18183   0.00001   0.00000   0.00002   0.00002   2.18185
    R2        2.76743   0.00005   0.00000   0.00018   0.00018   2.76761
    R3        6.04712  -0.00055   0.00000   0.00000   0.00000   6.04712
    R4        4.15740  -0.02759   0.00000   0.00000   0.00000   4.15740
    R5        2.05907   0.00001   0.00000   0.00002   0.00001   2.05908
    R6        2.06926  -0.00001   0.00000  -0.00002  -0.00002   2.06924
    R7        2.07399   0.00000   0.00000   0.00002   0.00002   2.07401
    R8        2.21317  -0.00001   0.00000  -0.00001  -0.00001   2.21317
    A1        2.53525  -0.00003   0.00000  -0.00018  -0.00019   2.53506
    A2        1.68929   0.00003   0.00000   0.00025   0.00025   1.68955
    A3        1.95236   0.00002   0.00000   0.00005   0.00005   1.95241
    A4        1.50098  -0.00003   0.00000   0.00001   0.00000   1.50098
    A5        1.77892   0.00001   0.00000   0.00009   0.00009   1.77902
    A6        1.71053  -0.00001   0.00000  -0.00015  -0.00015   1.71038
    A7        1.91398   0.00001   0.00002   0.00006   0.00008   1.91406
    A8        1.89081  -0.00001   0.00000  -0.00002  -0.00002   1.89080
    A9        1.86704   0.00001  -0.00001  -0.00001  -0.00002   1.86701
   A10        1.94059   0.00000   0.00001   0.00003   0.00004   1.94063
   A11        1.91202  -0.00001   0.00000  -0.00011  -0.00011   1.91191
   A12        1.93775   0.00000  -0.00001   0.00004   0.00003   1.93778
   A13        3.14899   0.00002  -0.00001   0.00041   0.00040   3.14939
   A14        3.07825   0.00001   0.00005   0.00014   0.00019   3.07844
    D1       -2.45253  -0.00001  -0.00007  -0.00028  -0.00034  -2.45287
    D2       -0.33166  -0.00001  -0.00005  -0.00021  -0.00026  -0.33192
    D3        1.75851   0.00000  -0.00007  -0.00018  -0.00025   1.75826
    D4       -0.77440   0.00001  -0.00007   0.00015   0.00009  -0.77431
    D5        1.34647   0.00001  -0.00005   0.00022   0.00017   1.34664
    D6       -2.84655   0.00002  -0.00007   0.00025   0.00018  -2.84636
    D7        0.92468  -0.00001  -0.00007   0.00000  -0.00007   0.92461
    D8        3.04555   0.00000  -0.00005   0.00006   0.00002   3.04557
    D9       -1.14747   0.00000  -0.00007   0.00010   0.00003  -1.14744
         Item               Value     Threshold  Converged?
 Maximum Force            0.000053     0.000450     YES
 RMS     Force            0.000016     0.000300     YES
 Maximum Displacement     0.000858     0.001800     YES
 RMS     Displacement     0.000277     0.001200     YES
 Predicted change in Energy=-2.577872D-08
 Optimization completed.
    -- Stationary point found.
                           ----------------------------
                           !   Optimized Parameters   !
                           ! (Angstroms and Degrees)  !
 --------------------------                            --------------------------
 ! Name  Definition              Value          Derivative Info.                !
 --------------------------------------------------------------------------------
 ! R1    R(1,2)                  1.1546         -DE/DX =    0.0                 !
 ! R2    R(1,3)                  1.4645         -DE/DX =    0.0001              !
 ! R3    R(1,7)                  3.2            -DE/DX =   -0.0006              !
 ! R4    R(1,8)                  2.2            -DE/DX =   -0.0276              !
 ! R5    R(3,4)                  1.0896         -DE/DX =    0.0                 !
 ! R6    R(3,5)                  1.095          -DE/DX =    0.0                 !
 ! R7    R(3,6)                  1.0975         -DE/DX =    0.0                 !
 ! R8    R(8,9)                  1.1712         -DE/DX =    0.0                 !
 ! A1    A(2,1,3)              145.259          -DE/DX =    0.0                 !
 ! A2    A(2,1,7)               96.7895         -DE/DX =    0.0                 !
 ! A3    A(2,1,8)              111.862          -DE/DX =    0.0                 !
 ! A4    A(3,1,7)               86.0            -DE/DX =    0.0                 !
 ! A5    A(3,1,8)              101.9247         -DE/DX =    0.0                 !
 ! A6    A(7,1,8)               98.0062         -DE/DX =    0.0                 !
 ! A7    A(1,3,4)              109.6627         -DE/DX =    0.0                 !
 ! A8    A(1,3,5)              108.3356         -DE/DX =    0.0                 !
 ! A9    A(1,3,6)              106.9735         -DE/DX =    0.0                 !
 ! A10   A(4,3,5)              111.1879         -DE/DX =    0.0                 !
 ! A11   A(4,3,6)              109.5507         -DE/DX =    0.0                 !
 ! A12   A(5,3,6)              111.025          -DE/DX =    0.0                 !
 ! A13   L(1,8,9,6,-1)         180.424          -DE/DX =    0.0                 !
 ! A14   L(1,8,9,6,-2)         176.3709         -DE/DX =    0.0                 !
 ! D1    D(2,1,3,4)           -140.5196         -DE/DX =    0.0                 !
 ! D2    D(2,1,3,5)            -19.0025         -DE/DX =    0.0                 !
 ! D3    D(2,1,3,6)            100.7551         -DE/DX =    0.0                 !
 ! D4    D(7,1,3,4)            -44.3699         -DE/DX =    0.0                 !
 ! D5    D(7,1,3,5)             77.1472         -DE/DX =    0.0                 !
 ! D6    D(7,1,3,6)           -163.0951         -DE/DX =    0.0                 !
 ! D7    D(8,1,3,4)             52.9803         -DE/DX =    0.0                 !
 ! D8    D(8,1,3,5)            174.4974         -DE/DX =    0.0                 !
 ! D9    D(8,1,3,6)            -65.7449         -DE/DX =    0.0                 !
 --------------------------------------------------------------------------------
 Lowest energy point so far.  Saving SCF results.
 Largest change from initial coordinates is atom    4       0.268 Angstoms.
 GradGradGradGradGradGradGradGradGradGradGradGradGradGradGradGradGradGrad

 Leave Link  103 at Wed Jan  8 02:56:22 2020, MaxMem=  4294967296 cpu:              46.0 elap:               3.3
 (Enter /home/cwagen/sw/g16/g16/l202.exe)
                          Input orientation:                          
 ---------------------------------------------------------------------
 Center     Atomic      Atomic             Coordinates (Angstroms)
 Number     Number       Type             X           Y           Z
 ---------------------------------------------------------------------
      1          6           0       -0.060874   -0.599069   -0.417222
      2          8           0       -0.336831   -0.409437   -1.522177
      3          6           0       -0.372236   -1.375649    0.784701
      4          1           0       -0.301884   -0.735227    1.663432
      5          1           0       -1.380307   -1.789203    0.676065
      6          1           0        0.376306   -2.175428    0.852243
      7         17           0       -1.935757    1.671255    0.835951
      8          6           0        1.883962    0.286813    0.105105
      9          7           0        2.938254    0.740412    0.338205
 ---------------------------------------------------------------------
                    Distance matrix (angstroms):
                    1          2          3          4          5
     1  C    0.000000
     2  O    1.154573   0.000000
     3  C    1.464460   2.501301   0.000000
     4  H    2.098987   3.202415   1.089613   0.000000
     5  H    2.086289   2.797297   1.095005   1.802430   0.000000
     6  H    2.070646   3.043873   1.097508   1.786658   1.807179
     7  Cl   3.200000   3.527975   3.425032   3.024139   3.508398
     8  C    2.200000   2.839848   2.883758   2.872434   3.910409
     9  N    3.370407   3.938192   3.954291   3.798978   5.016281
                    6          7          8          9
     6  H    0.000000
     7  Cl   4.488081   0.000000
     8  C    2.982260   4.128083   0.000000
     9  N    3.915346   4.987003   1.171161   0.000000
 Stoichiometry    C3H3ClNO(1-)
 Framework group  C1[X(C3H3ClNO)]
 Deg. of freedom    21
 Full point group                 C1      NOp   1
 RotChk:  IX=2 Diff= 2.54D-15
 Largest Abelian subgroup         C1      NOp   1
 Largest concise Abelian subgroup C1      NOp   1
                         Standard orientation:                         
 ---------------------------------------------------------------------
 Center     Atomic      Atomic             Coordinates (Angstroms)
 Number     Number       Type             X           Y           Z
 ---------------------------------------------------------------------
      1          6           0        0.471754    0.953159    0.217617
      2          8           0        0.344550    1.274976    1.319112
      3          6           0        0.225637    1.318656   -1.178979
      4          1           0       -0.067836    0.433936   -1.743249
      5          1           0       -0.559698    2.081380   -1.202181
      6          1           0        1.169054    1.712598   -1.578101
      7         17           0       -2.223318   -0.759612    0.010251
      8          6           0        1.904380   -0.703276    0.008318
      9          7           0        2.698265   -1.560793   -0.069338
 ---------------------------------------------------------------------
 Rotational constants (GHZ):           2.8512045           1.3418802           1.1207788
 Leave Link  202 at Wed Jan  8 02:56:24 2020, MaxMem=  4294967296 cpu:               1.2 elap:               2.1
 (Enter /home/cwagen/sw/g16/g16/l601.exe)
 Copying SCF densities to generalized density rwf, IOpCl= 0 IROHF=0.

 **********************************************************************

            Population analysis using the SCF density.

 **********************************************************************

 Orbital symmetries:
       Occupied  (A) (A) (A) (A) (A) (A) (A) (A) (A) (A) (A) (A)
                 (A) (A) (A) (A) (A) (A) (A) (A) (A) (A) (A) (A)
                 (A) (A) (A)
       Virtual   (A) (A) (A) (A) (A) (A) (A) (A) (A) (A) (A) (A)
                 (A) (A) (A) (A) (A) (A) (A) (A) (A) (A) (A) (A)
                 (A) (A) (A) (A) (A) (A) (A) (A) (A) (A) (A) (A)
                 (A) (A) (A) (A) (A) (A) (A) (A) (A) (A) (A) (A)
                 (A) (A) (A) (A) (A) (A) (A) (A) (A) (A) (A) (A)
                 (A) (A) (A) (A) (A) (A) (A) (A) (A) (A) (A) (A)
                 (A) (A) (A) (A) (A) (A) (A) (A) (A) (A) (A) (A)
                 (A) (A) (A) (A) (A) (A) (A) (A) (A) (A) (A) (A)
                 (A)
 The electronic state is 1-A.
 Alpha  occ. eigenvalues -- -101.41427 -19.24399 -14.30546 -10.37358 -10.22037
 Alpha  occ. eigenvalues --  -10.18566  -9.32754  -7.08555  -7.08528  -7.08523
 Alpha  occ. eigenvalues --   -1.14975  -0.86318  -0.78895  -0.66642  -0.56840
 Alpha  occ. eigenvalues --   -0.50498  -0.49525  -0.48665  -0.41440  -0.41184
 Alpha  occ. eigenvalues --   -0.38199  -0.30746  -0.30697  -0.28852  -0.21386
 Alpha  occ. eigenvalues --   -0.21228  -0.21205
 Alpha virt. eigenvalues --   -0.05259  -0.03829   0.02268   0.04418   0.04619
 Alpha virt. eigenvalues --    0.05497   0.06564   0.07217   0.08681   0.09716
 Alpha virt. eigenvalues --    0.09898   0.10097   0.10673   0.12580   0.13241
 Alpha virt. eigenvalues --    0.13784   0.13864   0.16388   0.16787   0.20059
 Alpha virt. eigenvalues --    0.20604   0.22800   0.24136   0.24665   0.24987
 Alpha virt. eigenvalues --    0.25769   0.28536   0.28832   0.30770   0.34109
 Alpha virt. eigenvalues --    0.35855   0.39829   0.49162   0.59206   0.59997
 Alpha virt. eigenvalues --    0.65266   0.65823   0.67638   0.69448   0.71504
 Alpha virt. eigenvalues --    0.72063   0.74845   0.78382   0.81116   0.82404
 Alpha virt. eigenvalues --    0.85746   0.86795   0.93750   0.96856   0.98330
 Alpha virt. eigenvalues --    0.99412   0.99631   0.99768   1.00988   1.02637
 Alpha virt. eigenvalues --    1.02975   1.09016   1.11580   1.16257   1.18787
 Alpha virt. eigenvalues --    1.23603   1.25982   1.27874   1.38207   1.39941
 Alpha virt. eigenvalues --    1.46710   1.50064   1.56004   1.56706   1.58232
 Alpha virt. eigenvalues --    1.59681   1.60560   1.77897   1.81681   1.83489
 Alpha virt. eigenvalues --    1.87736   1.99451   2.00191   2.01757   2.08008
 Alpha virt. eigenvalues --    2.22215   2.27868   2.34555   2.54205   2.61435
 Alpha virt. eigenvalues --    2.63053   2.65761   2.68086   2.93235   3.07925
 Alpha virt. eigenvalues --    3.19402   4.03922   4.19985   4.23201   4.33664
 Alpha virt. eigenvalues --    4.41539   4.49416
          Condensed to atoms (all electrons):
               1          2          3          4          5          6
     1  C    5.162152   0.537660  -0.080418  -0.062943  -0.096147   0.004739
     2  O    0.537660   7.782106  -0.028940   0.004706   0.002438  -0.002580
     3  C   -0.080418  -0.028940   5.853697   0.392857   0.394665   0.339839
     4  H   -0.062943   0.004706   0.392857   0.385779  -0.016439  -0.019408
     5  H   -0.096147   0.002438   0.394665  -0.016439   0.427860  -0.020167
     6  H    0.004739  -0.002580   0.339839  -0.019408  -0.020167   0.418223
     7  Cl   0.169262  -0.036024  -0.081135  -0.003404  -0.003300   0.002884
     8  C   -0.276992  -0.061282  -0.054861   0.000984   0.025608  -0.020886
     9  N   -0.000272   0.000132  -0.009290  -0.000297  -0.000144  -0.000202
               7          8          9
     1  C    0.169262  -0.276992  -0.000272
     2  O   -0.036024  -0.061282   0.000132
     3  C   -0.081135  -0.054861  -0.009290
     4  H   -0.003404   0.000984  -0.000297
     5  H   -0.003300   0.025608  -0.000144
     6  H    0.002884  -0.020886  -0.000202
     7  Cl  17.951242  -0.063941  -0.001878
     8  C   -0.063941   5.885386   0.641262
     9  N   -0.001878   0.641262   6.981389
 Mulliken charges:
               1
     1  C    0.642961
     2  O   -0.198216
     3  C   -0.726412
     4  H    0.318166
     5  H    0.285626
     6  H    0.297559
     7  Cl  -0.933708
     8  C   -0.075277
     9  N   -0.610699
 Sum of Mulliken charges =  -1.00000
 Mulliken charges with hydrogens summed into heavy atoms:
               1
     1  C    0.642961
     2  O   -0.198216
     3  C    0.174939
     7  Cl  -0.933708
     8  C   -0.075277
     9  N   -0.610699
 Electronic spatial extent (au):  <R**2>=           1054.9668
 Charge=             -1.0000 electrons
 Dipole moment (field-independent basis, Debye):
    X=              3.9811    Y=             10.0600    Z=             -2.9016  Tot=             11.2014
 Quadrupole moment (field-independent basis, Debye-Ang):
   XX=            -88.1332   YY=            -52.3585   ZZ=            -45.2075
   XY=              4.2988   XZ=             -0.1102   YZ=             -4.3757
 Traceless Quadrupole moment (field-independent basis, Debye-Ang):
   XX=            -26.2334   YY=              9.5412   ZZ=             16.6922
   XY=              4.2988   XZ=             -0.1102   YZ=             -4.3757
 Octapole moment (field-independent basis, Debye-Ang**2):
  XXX=              6.7898  YYY=             41.0217  ZZZ=             -4.0979  XYY=             -9.6136
  XXY=             59.0251  XXZ=              1.1520  XZZ=              2.9919  YZZ=              8.0788
  YYZ=             -4.9633  XYZ=             -2.4470
 Hexadecapole moment (field-independent basis, Debye-Ang**3):
 XXXX=          -1282.2086 YYYY=           -407.4443 ZZZZ=           -182.9207 XXXY=             60.0577
 XXXZ=              5.7303 YYYX=             32.8889 YYYZ=             -8.4814 ZZZX=             -0.2722
 ZZZY=             -3.9642 XXYY=           -298.0269 XXZZ=           -198.4453 YYZZ=            -94.6978
 XXYZ=             -4.5575 YYXZ=              0.8052 ZZXY=              2.7453
 N-N= 2.183871972727D+02 E-N=-2.113930222718D+03  KE= 7.023564690418D+02
 No NMR shielding tensors so no spin-rotation constants.
 Leave Link  601 at Wed Jan  8 02:56:25 2020, MaxMem=  4294967296 cpu:              12.8 elap:               0.9
 (Enter /home/cwagen/sw/g16/g16/l9999.exe)
 1\1\GINC-NODE082\FOpt\RB3LYP\6-31+G(d)\C3H3Cl1N1O1(1-)\CWAGEN\08-Jan-2
 020\0\\#p opt=modredundant b3lyp/6-31+g(d) scrf=(smd, solvent=tetrahyd
 rofuran)\\title\\-1,1\C,-0.0608735565,-0.5990689517,-0.4172220483\O,-0
 .3368309286,-0.4094366373,-1.5221773124\C,-0.3722359742,-1.3756488637,
 0.7847013162\H,-0.3018844471,-0.7352269718,1.6634315429\H,-1.380307237
 9,-1.7892034796,0.676065369\H,0.3763059214,-2.1754277939,0.8522428116\
 Cl,-1.935757115,1.6712547256,0.835950737\C,1.8839623825,0.2868134226,0
 .1051050353\N,2.9382536754,0.7404123398,0.3382048887\\Version=AS64L-G1
 6RevA.03\State=1-A\HF=-706.4050214\RMSD=4.984e-09\RMSF=7.503e-03\Dipol
 e=0.054807,-4.3659586,-0.5973805\Quadrupole=-18.1716442,9.0881758,9.08
 34684,6.0645177,2.5536398,-4.7136019\PG=C01 [X(C3H3Cl1N1O1)]\\@


 GARBAGE IN, GARBAGE OUT
 Job cpu time:       0 days  1 hours 53 minutes  3.0 seconds.
 Elapsed time:       0 days  0 hours  8 minutes 21.4 seconds.
 File lengths (MBytes):  RWF=     42 Int=      0 D2E=      0 Chk=      4 Scr=      1
 Normal termination of Gaussian 16 at Wed Jan  8 02:56:26 2020.
