 Entering Gaussian System, Link 0=g16
 Input=scan_320_210.gjf
 Output=scan_320_210.out
 Initial command:
 /home/cwagen/sw/g16/g16/l1.exe "/scratch/users/cwagen/cwagen_scan_320_210/Gau-27533.inp" -scrdir="/scratch/users/cwagen/cwagen_scan_320_210/"
 Entering Link 1 = /home/cwagen/sw/g16/g16/l1.exe PID=     27534.
  
 Copyright (c) 1988,1990,1992,1993,1995,1998,2003,2009,2016,
            Gaussian, Inc.  All Rights Reserved.
  
 This is part of the Gaussian(R) 16 program.  It is based on
 the Gaussian(R) 09 system (copyright 2009, Gaussian, Inc.),
 the Gaussian(R) 03 system (copyright 2003, Gaussian, Inc.),
 the Gaussian(R) 98 system (copyright 1998, Gaussian, Inc.),
 the Gaussian(R) 94 system (copyright 1995, Gaussian, Inc.),
 the Gaussian 92(TM) system (copyright 1992, Gaussian, Inc.),
 the Gaussian 90(TM) system (copyright 1990, Gaussian, Inc.),
 the Gaussian 88(TM) system (copyright 1988, Gaussian, Inc.),
 the Gaussian 86(TM) system (copyright 1986, Carnegie Mellon
 University), and the Gaussian 82(TM) system (copyright 1983,
 Carnegie Mellon University). Gaussian is a federally registered
 trademark of Gaussian, Inc.
  
 This software contains proprietary and confidential information,
 including trade secrets, belonging to Gaussian, Inc.
  
 This software is provided under written license and may be
 used, copied, transmitted, or stored only in accord with that
 written license.
  
 The following legend is applicable only to US Government
 contracts under FAR:
  
                    RESTRICTED RIGHTS LEGEND
  
 Use, reproduction and disclosure by the US Government is
 subject to restrictions as set forth in subparagraphs (a)
 and (c) of the Commercial Computer Software - Restricted
 Rights clause in FAR 52.227-19.
  
 Gaussian, Inc.
 340 Quinnipiac St., Bldg. 40, Wallingford CT 06492
  
  
 ---------------------------------------------------------------
 Warning -- This program may not be used in any manner that
 competes with the business of Gaussian, Inc. or will provide
 assistance to any competitor of Gaussian, Inc.  The licensee
 of this program is prohibited from giving any competitor of
 Gaussian, Inc. access to this program.  By using this program,
 the user acknowledges that Gaussian, Inc. is engaged in the
 business of creating and licensing software in the field of
 computational chemistry and represents and warrants to the
 licensee that it is not a competitor of Gaussian, Inc. and that
 it will not use this program in any manner prohibited above.
 ---------------------------------------------------------------
  

 Cite this work as:
 Gaussian 16, Revision A.03,
 M. J. Frisch, G. W. Trucks, H. B. Schlegel, G. E. Scuseria, 
 M. A. Robb, J. R. Cheeseman, G. Scalmani, V. Barone, 
 G. A. Petersson, H. Nakatsuji, X. Li, M. Caricato, A. V. Marenich, 
 J. Bloino, B. G. Janesko, R. Gomperts, B. Mennucci, H. P. Hratchian, 
 J. V. Ortiz, A. F. Izmaylov, J. L. Sonnenberg, D. Williams-Young, 
 F. Ding, F. Lipparini, F. Egidi, J. Goings, B. Peng, A. Petrone, 
 T. Henderson, D. Ranasinghe, V. G. Zakrzewski, J. Gao, N. Rega, 
 G. Zheng, W. Liang, M. Hada, M. Ehara, K. Toyota, R. Fukuda, 
 J. Hasegawa, M. Ishida, T. Nakajima, Y. Honda, O. Kitao, H. Nakai, 
 T. Vreven, K. Throssell, J. A. Montgomery, Jr., J. E. Peralta, 
 F. Ogliaro, M. J. Bearpark, J. J. Heyd, E. N. Brothers, K. N. Kudin, 
 V. N. Staroverov, T. A. Keith, R. Kobayashi, J. Normand, 
 K. Raghavachari, A. P. Rendell, J. C. Burant, S. S. Iyengar, 
 J. Tomasi, M. Cossi, J. M. Millam, M. Klene, C. Adamo, R. Cammi, 
 J. W. Ochterski, R. L. Martin, K. Morokuma, O. Farkas, 
 J. B. Foresman, and D. J. Fox, Gaussian, Inc., Wallingford CT, 2016.
 
 ******************************************
 Gaussian 16:  AS64L-G16RevA.03 25-Dec-2016
                 8-Jan-2020 
 ******************************************
 %nprocshared=16
 Will use up to   16 processors via shared memory.
 %mem=32GB
 ----------------------------------------------------------------------
 #p opt=modredundant b3lyp/6-31+g(d) scrf=(smd, solvent=tetrahydrofuran
 )
 ----------------------------------------------------------------------
 1/18=120,19=15,26=3,38=1/1,3;
 2/9=110,12=2,17=6,18=5,40=1/2;
 3/5=1,6=6,7=11,11=2,25=1,30=1,70=32201,71=1,72=20,74=-5/1,2,3;
 4//1;
 5/5=2,38=5,53=20/2;
 6/7=2,8=2,9=2,10=2,28=1/1;
 7//1,2,3,16;
 1/18=20,19=15,26=3/3(2);
 2/9=110/2;
 99//99;
 2/9=110/2;
 3/5=1,6=6,7=11,11=2,25=1,30=1,70=32205,71=1,72=20,74=-5/1,2,3;
 4/5=5,16=3,69=1/1;
 5/5=2,38=5,53=20/2;
 7//1,2,3,16;
 1/18=20,19=15,26=3/3(-5);
 2/9=110/2;
 6/7=2,8=2,9=2,10=2,19=2,28=1/1;
 99/9=1/99;
 Leave Link    1 at Wed Jan  8 02:46:53 2020, MaxMem=  4294967296 cpu:               1.9 elap:               0.2
 (Enter /home/cwagen/sw/g16/g16/l101.exe)
 -----
 title
 -----
 Symbolic Z-matrix:
 Charge = -1 Multiplicity = 1
 6                    -0.19426  -0.292    -0.21291 
 8                    -0.25532  -0.66526  -1.45426 
 6                    -0.33095  -1.45422   0.81632 
 1                    -0.18039  -1.13044   1.85373 
 1                    -1.34067  -1.87301   0.71427 
 1                     0.39707  -2.23395   0.57058 
 17                   -2.11023   2.13857   0.60038 
 6                     1.75269   0.38977   0.18022 
 7                     2.88726   0.67007   0.21052 
 
 Add virtual bond connecting atoms C8         and C1         Dist= 3.97D+00.
 Add virtual bond connecting atoms Cl7        and C1         Dist= 6.05D+00.
 The following ModRedundant input section has been read:
 B       1       7 F                                                           
 B       1       8 F                                                           
 
 ITRead=  0  0  0  0  0  0  0  0  0
 MicOpt= -1 -1 -1 -1 -1 -1 -1 -1 -1
 NAtoms=      9 NQM=        9 NQMF=       0 NMMI=      0 NMMIF=      0
                NMic=       0 NMicF=      0.
                    Isotopes and Nuclear Properties:
 (Nuclear quadrupole moments (NQMom) in fm**2, nuclear magnetic moments (NMagM)
  in nuclear magnetons)

  Atom         1           2           3           4           5           6           7           8           9
 IAtWgt=          12          16          12           1           1           1          35          12          14
 AtmWgt=  12.0000000  15.9949146  12.0000000   1.0078250   1.0078250   1.0078250  34.9688527  12.0000000  14.0030740
 NucSpn=           0           0           0           1           1           1           3           0           2
 AtZEff=   0.0000000   0.0000000   0.0000000   0.0000000   0.0000000   0.0000000   0.0000000   0.0000000   0.0000000
 NQMom=    0.0000000   0.0000000   0.0000000   0.0000000   0.0000000   0.0000000  -8.1650000   0.0000000   2.0440000
 NMagM=    0.0000000   0.0000000   0.0000000   2.7928460   2.7928460   2.7928460   0.8218740   0.0000000   0.4037610
 AtZNuc=   6.0000000   8.0000000   6.0000000   1.0000000   1.0000000   1.0000000  17.0000000   6.0000000   7.0000000
 Leave Link  101 at Wed Jan  8 02:46:54 2020, MaxMem=  4294967296 cpu:               8.3 elap:               0.6
 (Enter /home/cwagen/sw/g16/g16/l103.exe)

 GradGradGradGradGradGradGradGradGradGradGradGradGradGradGradGradGradGrad
 Berny optimization.
 Initialization pass.
                           ----------------------------
                           !    Initial Parameters    !
                           ! (Angstroms and Degrees)  !
 --------------------------                            --------------------------
 ! Name  Definition              Value          Derivative Info.                !
 --------------------------------------------------------------------------------
 ! R1    R(1,2)                  1.2977         estimate D2E/DX2                !
 ! R2    R(1,3)                  1.5584         estimate D2E/DX2                !
 ! R3    R(1,7)                  3.2            Frozen                          !
 ! R4    R(1,8)                  2.1            Frozen                          !
 ! R5    R(3,4)                  1.0971         estimate D2E/DX2                !
 ! R6    R(3,5)                  1.0979         estimate D2E/DX2                !
 ! R7    R(3,6)                  1.0947         estimate D2E/DX2                !
 ! R8    R(8,9)                  1.1691         estimate D2E/DX2                !
 ! A1    A(2,1,3)              114.4006         estimate D2E/DX2                !
 ! A2    A(2,1,7)              115.6846         estimate D2E/DX2                !
 ! A3    A(2,1,8)              108.426          estimate D2E/DX2                !
 ! A4    A(3,1,7)              110.248          estimate D2E/DX2                !
 ! A5    A(3,1,8)              101.5248         estimate D2E/DX2                !
 ! A6    A(7,1,8)              105.1256         estimate D2E/DX2                !
 ! A7    A(1,3,4)              113.1005         estimate D2E/DX2                !
 ! A8    A(1,3,5)              107.683          estimate D2E/DX2                !
 ! A9    A(1,3,6)              108.9421         estimate D2E/DX2                !
 ! A10   A(4,3,5)              109.0662         estimate D2E/DX2                !
 ! A11   A(4,3,6)              109.3417         estimate D2E/DX2                !
 ! A12   A(5,3,6)              108.6067         estimate D2E/DX2                !
 ! A13   L(1,8,9,6,-1)         177.3941         estimate D2E/DX2                !
 ! A14   L(1,8,9,6,-2)         165.9899         estimate D2E/DX2                !
 ! D1    D(2,1,3,4)            174.4714         estimate D2E/DX2                !
 ! D2    D(2,1,3,5)            -64.9488         estimate D2E/DX2                !
 ! D3    D(2,1,3,6)             52.6633         estimate D2E/DX2                !
 ! D4    D(7,1,3,4)            -53.1046         estimate D2E/DX2                !
 ! D5    D(7,1,3,5)             67.4752         estimate D2E/DX2                !
 ! D6    D(7,1,3,6)           -174.9127         estimate D2E/DX2                !
 ! D7    D(8,1,3,4)             57.938          estimate D2E/DX2                !
 ! D8    D(8,1,3,5)            178.5177         estimate D2E/DX2                !
 ! D9    D(8,1,3,6)            -63.8702         estimate D2E/DX2                !
 --------------------------------------------------------------------------------
 Trust Radius=3.00D-01 FncErr=1.00D-07 GrdErr=1.00D-06 EigMax=2.50D+02 EigMin=1.00D-04
 Number of steps in this run=     41 maximum allowed number of steps=    100.
 GradGradGradGradGradGradGradGradGradGradGradGradGradGradGradGradGradGrad

 Leave Link  103 at Wed Jan  8 02:46:54 2020, MaxMem=  4294967296 cpu:               1.0 elap:               0.1
 (Enter /home/cwagen/sw/g16/g16/l202.exe)
                          Input orientation:                          
 ---------------------------------------------------------------------
 Center     Atomic      Atomic             Coordinates (Angstroms)
 Number     Number       Type             X           Y           Z
 ---------------------------------------------------------------------
      1          6           0       -0.194263   -0.291999   -0.212908
      2          8           0       -0.255321   -0.665256   -1.454255
      3          6           0       -0.330945   -1.454221    0.816316
      4          1           0       -0.180394   -1.130438    1.853734
      5          1           0       -1.340665   -1.873010    0.714272
      6          1           0        0.397068   -2.233949    0.570583
      7         17           0       -2.110228    2.138566    0.600376
      8          6           0        1.752693    0.389773    0.180220
      9          7           0        2.887264    0.670071    0.210523
 ---------------------------------------------------------------------
                    Distance matrix (angstroms):
                    1          2          3          4          5
     1  C    0.000000
     2  O    1.297687   0.000000
     3  C    1.558443   2.404928   0.000000
     4  H    2.230287   3.341377   1.097150   0.000000
     5  H    2.161827   2.709087   1.097876   1.787740   0.000000
     6  H    2.175937   2.643176   1.094698   1.788205   1.780629
     7  Cl   3.200000   3.940001   4.015046   3.997694   4.086312
     8  C    2.100000   2.795839   2.854204   2.974645   3.869659
     9  N    3.255869   3.798740   3.903392   3.918226   4.959476
                    6          7          8          9
     6  H    0.000000
     7  Cl   5.040467   0.000000
     8  C    2.978929   4.261099   0.000000
     9  N    3.842402   5.223350   1.169075   0.000000
 Stoichiometry    C3H3ClNO(1-)
 Framework group  C1[X(C3H3ClNO)]
 Deg. of freedom    21
 Full point group                 C1      NOp   1
 Largest Abelian subgroup         C1      NOp   1
 Largest concise Abelian subgroup C1      NOp   1
                         Standard orientation:                         
 ---------------------------------------------------------------------
 Center     Atomic      Atomic             Coordinates (Angstroms)
 Number     Number       Type             X           Y           Z
 ---------------------------------------------------------------------
      1          6           0        0.425587    0.645402    0.207270
      2          8           0        0.719895    1.191652    1.347000
      3          6           0        0.765800    1.523500   -1.034480
      4          1           0        0.598782    1.005235   -1.986974
      5          1           0        0.128832    2.416868   -0.995785
      6          1           0        1.812503    1.837820   -0.971416
      7         17           0       -2.541625   -0.526102   -0.044191
      8          6           0        1.692424   -1.003708   -0.085235
      9          7           0        2.515069   -1.834366   -0.085129
 ---------------------------------------------------------------------
 Rotational constants (GHZ):           2.7648409           1.2096702           1.0012536
 Leave Link  202 at Wed Jan  8 02:46:54 2020, MaxMem=  4294967296 cpu:               2.4 elap:               0.2
 (Enter /home/cwagen/sw/g16/g16/l301.exe)
 Standard basis: 6-31+G(d) (6D, 7F)
 Ernie: Thresh=  0.10000D-02 Tol=  0.10000D-05 Strict=F.
 There are   124 symmetry adapted cartesian basis functions of A   symmetry.
 There are   124 symmetry adapted basis functions of A   symmetry.
   124 basis functions,   228 primitive gaussians,   124 cartesian basis functions
    27 alpha electrons       27 beta electrons
       nuclear repulsion energy       210.0278575825 Hartrees.
 IExCor=  402 DFT=T Ex+Corr=B3LYP ExCW=0 ScaHFX=  0.200000
 ScaDFX=  0.800000  0.720000  1.000000  0.810000 ScalE2=  1.000000  1.000000
 IRadAn=      5 IRanWt=     -1 IRanGd=            0 ICorTp=0 IEmpDi=  4
 NAtoms=    9 NActive=    9 NUniq=    9 SFac= 1.00D+00 NAtFMM=   60 NAOKFM=F Big=F
 Integral buffers will be    131072 words long.
 Raffenetti 2 integral format.
 Two-electron integral symmetry is turned on.
 ------------------------------------------------------------------------------
 Polarizable Continuum Model (PCM)
 =================================
 Model                : PCM.
 Atomic radii         : SMD-Coulomb.
 Polarization charges : Total charges.
 Charge compensation  : None.
 Solution method      : On-the-fly selection.
 Cavity type          : VdW (van der Waals Surface) (Alpha=1.000).
 Cavity algorithm     : GePol (No added spheres)
                        Default sphere list used, NSphG=    9.
                        Lebedev-Laikov grids with approx.  5.0 points / Ang**2.
                        Smoothing algorithm: York/Karplus (Gamma=1.0000).
                        Polarization charges: spherical gaussians, with
                                              point-specific exponents (IZeta= 3).
                        Self-potential: point-specific (ISelfS= 7).
                        Self-field    : sphere-specific E.n sum rule (ISelfD= 2).
 1st derivatives      : Analytical E(r).r(x)/FMM algorithm (CHGder, D1EAlg=3).
                        Cavity 1st derivative terms included.
 Solvent              : TetraHydroFuran, Eps=   7.425700 Eps(inf)=   1.974025
 ------------------------------------------------------------------------------
 Spheres list:
 ISph  on   Nord     Re0    Alpha      Xe            Ye            Ze
    1   C      1    1.8500  1.000      0.425587      0.645402      0.207270
    2   O      2    2.2940  1.000      0.719895      1.191652      1.347000
    3   C      3    1.8500  1.000      0.765800      1.523500     -1.034480
    4   H      4    1.2000  1.000      0.598782      1.005235     -1.986974
    5   H      5    1.2000  1.000      0.128832      2.416868     -0.995785
    6   H      6    1.2000  1.000      1.812503      1.837820     -0.971416
    7  Cl      7    2.3800  1.000     -2.541625     -0.526102     -0.044191
    8   C      8    1.8500  1.000      1.692424     -1.003708     -0.085235
    9   N      9    1.8900  1.000      2.515069     -1.834366     -0.085129
 ------------------------------------------------------------------------------
 GePol: Number of generator spheres                  =       9
 GePol: Total number of spheres                      =       9
 GePol: Number of exposed spheres                    =       9 (100.00%)
 GePol: Number of points                             =    1346
 GePol: Average weight of points                     =       0.14
 GePol: Minimum weight of points                     =   0.10D-11
 GePol: Maximum weight of points                     =    0.18138
 GePol: Number of points with low weight             =      37
 GePol: Fraction of low-weight points (<1% of avg)   =       2.75%
 GePol: Cavity surface area                          =    183.798 Ang**2
 GePol: Cavity volume                                =    160.802 Ang**3
 ------------------------------------------------------------------------------
 Atomic radii for non-electrostatic terms: SMD-CDS.
 ------------------------------------------------------------------------------
 PCM non-electrostatic energy =         0.0007822112 Hartrees.
 Nuclear repulsion after PCM non-electrostatic terms =      210.0286397937 Hartrees.
 Leave Link  301 at Wed Jan  8 02:46:54 2020, MaxMem=  4294967296 cpu:               2.7 elap:               0.2
 (Enter /home/cwagen/sw/g16/g16/l302.exe)
 NPDir=0 NMtPBC=     1 NCelOv=     1 NCel=       1 NClECP=     1 NCelD=      1
         NCelK=      1 NCelE2=     1 NClLst=     1 CellRange=     0.0.
 One-electron integrals computed using PRISM.
 One-electron integral symmetry used in STVInt
 NBasis=   124 RedAO= T EigKep=  1.81D-04  NBF=   124
 NBsUse=   124 1.00D-06 EigRej= -1.00D+00 NBFU=   124
 Precomputing XC quadrature grid using
 IXCGrd= 4 IRadAn=           5 IRanWt=          -1 IRanGd=           0 AccXCQ= 0.00D+00.
 Generated NRdTot=       0 NPtTot=           0 NUsed=           0 NTot=          32
 NSgBfM=   123   123   123   123   123 MxSgAt=     9 MxSgA2=     9.
 Leave Link  302 at Wed Jan  8 02:46:57 2020, MaxMem=  4294967296 cpu:              36.6 elap:               2.6
 (Enter /home/cwagen/sw/g16/g16/l303.exe)
 DipDrv:  MaxL=1.
 Leave Link  303 at Wed Jan  8 02:46:57 2020, MaxMem=  4294967296 cpu:               2.4 elap:               0.2
 (Enter /home/cwagen/sw/g16/g16/l401.exe)
 ExpMin= 4.38D-02 ExpMax= 2.52D+04 ExpMxC= 3.78D+03 IAcc=3 IRadAn=         5 AccDes= 0.00D+00
 Harris functional with IExCor=  402 and IRadAn=       5 diagonalized for initial guess.
 HarFok:  IExCor=  402 AccDes= 0.00D+00 IRadAn=         5 IDoV= 1 UseB2=F ITyADJ=14
 ICtDFT=  3500011 ScaDFX=  1.000000  1.000000  1.000000  1.000000
 FoFCou: FMM=F IPFlag=           0 FMFlag=      100000 FMFlg1=           0
         NFxFlg=           0 DoJE=T BraDBF=F KetDBF=T FulRan=T
         wScrn=  0.000000 ICntrl=       500 IOpCl=  0 I1Cent=   200000004 NGrid=           0
         NMat0=    1 NMatS0=      1 NMatT0=    0 NMatD0=    1 NMtDS0=    0 NMtDT0=    0
 Petite list used in FoFCou.
 Harris En= -706.330534644716    
 JPrj=0 DoOrth=F DoCkMO=F.
 Leave Link  401 at Wed Jan  8 02:46:59 2020, MaxMem=  4294967296 cpu:              31.0 elap:               2.3
 (Enter /home/cwagen/sw/g16/g16/l502.exe)
 Keep R1 ints in memory in canonical form, NReq=45236517.
 FoFCou: FMM=F IPFlag=           0 FMFlag=           0 FMFlg1=           0
         NFxFlg=           0 DoJE=F BraDBF=F KetDBF=F FulRan=T
         wScrn=  0.000000 ICntrl=       600 IOpCl=  0 I1Cent=           0 NGrid=           0
         NMat0=    1 NMatS0=   7750 NMatT0=    0 NMatD0=    1 NMtDS0=    0 NMtDT0=    0
 Symmetry not used in FoFCou.
 Two-electron integral symmetry not used.
 Closed shell SCF:
 Using DIIS extrapolation, IDIIS=  1040.
 NGot=  4294967296 LenX=  4264898079 LenY=  4264882262
 Requested convergence on RMS density matrix=1.00D-08 within 128 cycles.
 Requested convergence on MAX density matrix=1.00D-06.
 Requested convergence on             energy=1.00D-06.
 No special actions if energy rises.

 Cycle   1  Pass 1  IDiag  1:
 Inv3:  Mode=1 IEnd=     5435148.
 Iteration    1 A*A^-1 deviation from unit magnitude is 5.55D-15 for   1342.
 Iteration    1 A*A^-1 deviation from orthogonality  is 2.11D-15 for   1340   1010.
 Iteration    1 A^-1*A deviation from unit magnitude is 5.33D-15 for   1342.
 Iteration    1 A^-1*A deviation from orthogonality  is 1.99D-15 for   1340   1010.
 E= -706.163593219473    
 DIIS: error= 2.40D-02 at cycle   1 NSaved=   1.
 NSaved= 1 IEnMin= 1 EnMin= -706.163593219473     IErMin= 1 ErrMin= 2.40D-02
 ErrMax= 2.40D-02  0.00D+00 EMaxC= 1.00D-01 BMatC= 1.98D-01 BMatP= 1.98D-01
 IDIUse=3 WtCom= 7.60D-01 WtEn= 2.40D-01
 Coeff-Com:  0.100D+01
 Coeff-En:   0.100D+01
 Coeff:      0.100D+01
 Gap=     0.002 Goal=   None    Shift=    0.000
 GapD=    0.002 DampG=0.250 DampE=0.500 DampFc=0.2500 IDamp=-1.
 Damping current iteration by 2.50D-01
 RMSDP=1.11D-02 MaxDP=3.93D-01              OVMax= 2.93D-01

 Cycle   2  Pass 1  IDiag  1:
 E= -706.220748114256     Delta-E=       -0.057154894783 Rises=F Damp=T
 DIIS: error= 1.43D-02 at cycle   2 NSaved=   2.
 NSaved= 2 IEnMin= 2 EnMin= -706.220748114256     IErMin= 2 ErrMin= 1.43D-02
 ErrMax= 1.43D-02  0.00D+00 EMaxC= 1.00D-01 BMatC= 2.92D-02 BMatP= 1.98D-01
 IDIUse=3 WtCom= 8.57D-01 WtEn= 1.43D-01
 Coeff-Com: -0.209D+00 0.121D+01
 Coeff-En:   0.120D+00 0.880D+00
 Coeff:     -0.162D+00 0.116D+01
 Gap=     0.061 Goal=   None    Shift=    0.000
 RMSDP=2.83D-03 MaxDP=5.56D-02 DE=-5.72D-02 OVMax= 2.56D-01

 Cycle   3  Pass 1  IDiag  1:
 E= -706.301062279557     Delta-E=       -0.080314165301 Rises=F Damp=F
 DIIS: error= 1.41D-02 at cycle   3 NSaved=   3.
 NSaved= 3 IEnMin= 3 EnMin= -706.301062279557     IErMin= 3 ErrMin= 1.41D-02
 ErrMax= 1.41D-02  0.00D+00 EMaxC= 1.00D-01 BMatC= 4.93D-02 BMatP= 2.92D-02
 IDIUse=2 WtCom= 0.00D+00 WtEn= 1.00D+00
 Coeff-En:   0.000D+00 0.000D+00 0.100D+01
 Coeff:      0.000D+00 0.000D+00 0.100D+01
 Gap=     0.123 Goal=   None    Shift=    0.000
 RMSDP=5.99D-03 MaxDP=1.65D-01 DE=-8.03D-02 OVMax= 3.40D-01

 Cycle   4  Pass 1  IDiag  1:
 E= -705.905143133453     Delta-E=        0.395919146104 Rises=F Damp=F
 DIIS: error= 4.09D-02 at cycle   4 NSaved=   4.
 NSaved= 4 IEnMin= 3 EnMin= -706.301062279557     IErMin= 3 ErrMin= 1.41D-02
 ErrMax= 4.09D-02  0.00D+00 EMaxC= 1.00D-01 BMatC= 5.12D-01 BMatP= 2.92D-02
 IDIUse=2 WtCom= 0.00D+00 WtEn= 1.00D+00
 Coeff-En:   0.000D+00 0.000D+00 0.848D+00 0.152D+00
 Coeff:      0.000D+00 0.000D+00 0.848D+00 0.152D+00
 Gap=     0.129 Goal=   None    Shift=    0.000
 RMSDP=3.36D-03 MaxDP=9.75D-02 DE= 3.96D-01 OVMax= 1.81D-01

 Cycle   5  Pass 1  IDiag  1:
 E= -706.312580756984     Delta-E=       -0.407437623531 Rises=F Damp=F
 DIIS: error= 1.18D-02 at cycle   5 NSaved=   5.
 NSaved= 5 IEnMin= 5 EnMin= -706.312580756984     IErMin= 5 ErrMin= 1.18D-02
 ErrMax= 1.18D-02  0.00D+00 EMaxC= 1.00D-01 BMatC= 3.94D-02 BMatP= 2.92D-02
 IDIUse=2 WtCom= 0.00D+00 WtEn= 1.00D+00
 Coeff-En:   0.000D+00 0.000D+00 0.450D+00 0.000D+00 0.550D+00
 Coeff:      0.000D+00 0.000D+00 0.450D+00 0.000D+00 0.550D+00
 Gap=     0.090 Goal=   None    Shift=    0.000
 RMSDP=1.69D-03 MaxDP=4.10D-02 DE=-4.07D-01 OVMax= 7.67D-02

 Cycle   6  Pass 1  IDiag  1:
 E= -706.347488494308     Delta-E=       -0.034907737324 Rises=F Damp=F
 DIIS: error= 2.31D-03 at cycle   6 NSaved=   6.
 NSaved= 6 IEnMin= 6 EnMin= -706.347488494308     IErMin= 6 ErrMin= 2.31D-03
 ErrMax= 2.31D-03  0.00D+00 EMaxC= 1.00D-01 BMatC= 1.44D-03 BMatP= 2.92D-02
 IDIUse=3 WtCom= 9.77D-01 WtEn= 2.31D-02
 Coeff-Com: -0.275D-01 0.363D-01 0.228D+00-0.268D-01 0.379D+00 0.411D+00
 Coeff-En:   0.000D+00 0.000D+00 0.000D+00 0.000D+00 0.000D+00 0.100D+01
 Coeff:     -0.268D-01 0.355D-01 0.223D+00-0.261D-01 0.370D+00 0.424D+00
 Gap=     0.101 Goal=   None    Shift=    0.000
 RMSDP=5.60D-04 MaxDP=1.84D-02 DE=-3.49D-02 OVMax= 3.27D-02

 Cycle   7  Pass 1  IDiag  1:
 E= -706.348718394260     Delta-E=       -0.001229899952 Rises=F Damp=F
 DIIS: error= 8.06D-04 at cycle   7 NSaved=   7.
 NSaved= 7 IEnMin= 7 EnMin= -706.348718394260     IErMin= 7 ErrMin= 8.06D-04
 ErrMax= 8.06D-04  0.00D+00 EMaxC= 1.00D-01 BMatC= 1.81D-04 BMatP= 1.44D-03
 IDIUse=3 WtCom= 9.92D-01 WtEn= 8.06D-03
 Coeff-Com: -0.278D-01 0.418D-01 0.976D-01-0.262D-01 0.194D+00 0.275D+00
 Coeff-Com:  0.446D+00
 Coeff-En:   0.000D+00 0.000D+00 0.000D+00 0.000D+00 0.000D+00 0.151D+00
 Coeff-En:   0.849D+00
 Coeff:     -0.275D-01 0.415D-01 0.968D-01-0.260D-01 0.192D+00 0.274D+00
 Coeff:      0.449D+00
 Gap=     0.098 Goal=   None    Shift=    0.000
 RMSDP=1.54D-04 MaxDP=4.88D-03 DE=-1.23D-03 OVMax= 8.55D-03

 Cycle   8  Pass 1  IDiag  1:
 E= -706.348915067009     Delta-E=       -0.000196672750 Rises=F Damp=F
 DIIS: error= 1.73D-04 at cycle   8 NSaved=   8.
 NSaved= 8 IEnMin= 8 EnMin= -706.348915067009     IErMin= 8 ErrMin= 1.73D-04
 ErrMax= 1.73D-04  0.00D+00 EMaxC= 1.00D-01 BMatC= 7.38D-06 BMatP= 1.81D-04
 IDIUse=3 WtCom= 9.98D-01 WtEn= 1.73D-03
 Coeff-Com: -0.489D-02 0.547D-02 0.842D-02-0.373D-02 0.207D-01 0.100D+00
 Coeff-Com:  0.120D+00 0.754D+00
 Coeff-En:   0.000D+00 0.000D+00 0.000D+00 0.000D+00 0.000D+00 0.000D+00
 Coeff-En:   0.000D+00 0.100D+01
 Coeff:     -0.488D-02 0.546D-02 0.841D-02-0.372D-02 0.207D-01 0.998D-01
 Coeff:      0.120D+00 0.755D+00
 Gap=     0.098 Goal=   None    Shift=    0.000
 RMSDP=2.32D-05 MaxDP=4.80D-04 DE=-1.97D-04 OVMax= 1.31D-03

 Cycle   9  Pass 1  IDiag  1:
 E= -706.348922007148     Delta-E=       -0.000006940139 Rises=F Damp=F
 DIIS: error= 4.16D-05 at cycle   9 NSaved=   9.
 NSaved= 9 IEnMin= 9 EnMin= -706.348922007148     IErMin= 9 ErrMin= 4.16D-05
 ErrMax= 4.16D-05  0.00D+00 EMaxC= 1.00D-01 BMatC= 4.36D-07 BMatP= 7.38D-06
 IDIUse=1 WtCom= 1.00D+00 WtEn= 0.00D+00
 Coeff-Com: -0.186D-02 0.201D-02-0.449D-03-0.775D-03 0.147D-02 0.433D-01
 Coeff-Com:  0.360D-01 0.395D+00 0.525D+00
 Coeff:     -0.186D-02 0.201D-02-0.449D-03-0.775D-03 0.147D-02 0.433D-01
 Coeff:      0.360D-01 0.395D+00 0.525D+00
 Gap=     0.098 Goal=   None    Shift=    0.000
 RMSDP=1.05D-05 MaxDP=3.52D-04 DE=-6.94D-06 OVMax= 5.03D-04

 Cycle  10  Pass 1  IDiag  1:
 E= -706.348922575183     Delta-E=       -0.000000568035 Rises=F Damp=F
 DIIS: error= 1.20D-05 at cycle  10 NSaved=  10.
 NSaved=10 IEnMin=10 EnMin= -706.348922575183     IErMin=10 ErrMin= 1.20D-05
 ErrMax= 1.20D-05  0.00D+00 EMaxC= 1.00D-01 BMatC= 3.38D-08 BMatP= 4.36D-07
 IDIUse=1 WtCom= 1.00D+00 WtEn= 0.00D+00
 Coeff-Com: -0.344D-03 0.352D-03-0.162D-02 0.203D-03-0.219D-02 0.488D-02
 Coeff-Com: -0.443D-02 0.405D-01 0.196D+00 0.766D+00
 Coeff:     -0.344D-03 0.352D-03-0.162D-02 0.203D-03-0.219D-02 0.488D-02
 Coeff:     -0.443D-02 0.405D-01 0.196D+00 0.766D+00
 Gap=     0.098 Goal=   None    Shift=    0.000
 RMSDP=2.51D-06 MaxDP=4.99D-05 DE=-5.68D-07 OVMax= 1.14D-04

 Cycle  11  Pass 1  IDiag  1:
 E= -706.348922618442     Delta-E=       -0.000000043259 Rises=F Damp=F
 DIIS: error= 2.39D-06 at cycle  11 NSaved=  11.
 NSaved=11 IEnMin=11 EnMin= -706.348922618442     IErMin=11 ErrMin= 2.39D-06
 ErrMax= 2.39D-06  0.00D+00 EMaxC= 1.00D-01 BMatC= 1.74D-09 BMatP= 3.38D-08
 IDIUse=1 WtCom= 1.00D+00 WtEn= 0.00D+00
 Coeff-Com: -0.679D-05 0.173D-04-0.178D-03 0.417D-04-0.127D-03-0.186D-02
 Coeff-Com: -0.220D-02-0.227D-01-0.227D-01 0.937D-01 0.956D+00
 Coeff:     -0.679D-05 0.173D-04-0.178D-03 0.417D-04-0.127D-03-0.186D-02
 Coeff:     -0.220D-02-0.227D-01-0.227D-01 0.937D-01 0.956D+00
 Gap=     0.098 Goal=   None    Shift=    0.000
 RMSDP=7.38D-07 MaxDP=1.44D-05 DE=-4.33D-08 OVMax= 2.21D-05

 Cycle  12  Pass 1  IDiag  1:
 E= -706.348922620465     Delta-E=       -0.000000002023 Rises=F Damp=F
 DIIS: error= 3.37D-07 at cycle  12 NSaved=  12.
 NSaved=12 IEnMin=12 EnMin= -706.348922620465     IErMin=12 ErrMin= 3.37D-07
 ErrMax= 3.37D-07  0.00D+00 EMaxC= 1.00D-01 BMatC= 3.62D-11 BMatP= 1.74D-09
 IDIUse=1 WtCom= 1.00D+00 WtEn= 0.00D+00
 Coeff-Com:  0.600D-05-0.943D-06 0.187D-04-0.296D-05 0.512D-04-0.552D-03
 Coeff-Com: -0.450D-03-0.548D-02-0.129D-01-0.125D-02 0.202D+00 0.818D+00
 Coeff:      0.600D-05-0.943D-06 0.187D-04-0.296D-05 0.512D-04-0.552D-03
 Coeff:     -0.450D-03-0.548D-02-0.129D-01-0.125D-02 0.202D+00 0.818D+00
 Gap=     0.098 Goal=   None    Shift=    0.000
 RMSDP=8.54D-08 MaxDP=1.24D-06 DE=-2.02D-09 OVMax= 2.58D-06

 Cycle  13  Pass 1  IDiag  1:
 E= -706.348922620501     Delta-E=       -0.000000000036 Rises=F Damp=F
 DIIS: error= 1.81D-07 at cycle  13 NSaved=  13.
 NSaved=13 IEnMin=13 EnMin= -706.348922620501     IErMin=13 ErrMin= 1.81D-07
 ErrMax= 1.81D-07  0.00D+00 EMaxC= 1.00D-01 BMatC= 9.66D-12 BMatP= 3.62D-11
 IDIUse=1 WtCom= 1.00D+00 WtEn= 0.00D+00
 Coeff-Com:  0.635D-05-0.742D-05 0.238D-04-0.297D-05 0.350D-04-0.122D-03
 Coeff-Com: -0.957D-04-0.118D-02-0.506D-02-0.539D-02 0.368D-01 0.325D+00
 Coeff-Com:  0.650D+00
 Coeff:      0.635D-05-0.742D-05 0.238D-04-0.297D-05 0.350D-04-0.122D-03
 Coeff:     -0.957D-04-0.118D-02-0.506D-02-0.539D-02 0.368D-01 0.325D+00
 Coeff:      0.650D+00
 Gap=     0.098 Goal=   None    Shift=    0.000
 RMSDP=3.29D-08 MaxDP=9.17D-07 DE=-3.57D-11 OVMax= 9.82D-07

 Cycle  14  Pass 1  IDiag  1:
 E= -706.348922620509     Delta-E=       -0.000000000008 Rises=F Damp=F
 DIIS: error= 7.79D-08 at cycle  14 NSaved=  14.
 NSaved=14 IEnMin=14 EnMin= -706.348922620509     IErMin=14 ErrMin= 7.79D-08
 ErrMax= 7.79D-08  0.00D+00 EMaxC= 1.00D-01 BMatC= 1.52D-12 BMatP= 9.66D-12
 IDIUse=1 WtCom= 1.00D+00 WtEn= 0.00D+00
 Coeff-Com:  0.275D-05-0.371D-05 0.686D-05-0.971D-06 0.487D-05 0.792D-05
 Coeff-Com: -0.149D-04 0.242D-03-0.589D-03-0.122D-02-0.102D-01 0.245D-01
 Coeff-Com:  0.278D+00 0.710D+00
 Coeff:      0.275D-05-0.371D-05 0.686D-05-0.971D-06 0.487D-05 0.792D-05
 Coeff:     -0.149D-04 0.242D-03-0.589D-03-0.122D-02-0.102D-01 0.245D-01
 Coeff:      0.278D+00 0.710D+00
 Gap=     0.098 Goal=   None    Shift=    0.000
 RMSDP=1.27D-08 MaxDP=3.33D-07 DE=-7.84D-12 OVMax= 3.65D-07

 Cycle  15  Pass 1  IDiag  1:
 E= -706.348922620511     Delta-E=       -0.000000000002 Rises=F Damp=F
 DIIS: error= 1.22D-08 at cycle  15 NSaved=  15.
 NSaved=15 IEnMin=15 EnMin= -706.348922620511     IErMin=15 ErrMin= 1.22D-08
 ErrMax= 1.22D-08  0.00D+00 EMaxC= 1.00D-01 BMatC= 3.65D-14 BMatP= 1.52D-12
 IDIUse=1 WtCom= 1.00D+00 WtEn= 0.00D+00
 Coeff-Com:  0.389D-06-0.575D-06 0.338D-06-0.484D-07-0.459D-06 0.772D-05
 Coeff-Com:  0.472D-05 0.102D-03 0.131D-03 0.349D-03-0.353D-02-0.181D-01
 Coeff-Com:  0.614D-02 0.109D+00 0.906D+00
 Coeff:      0.389D-06-0.575D-06 0.338D-06-0.484D-07-0.459D-06 0.772D-05
 Coeff:      0.472D-05 0.102D-03 0.131D-03 0.349D-03-0.353D-02-0.181D-01
 Coeff:      0.614D-02 0.109D+00 0.906D+00
 Gap=     0.098 Goal=   None    Shift=    0.000
 RMSDP=2.24D-09 MaxDP=3.74D-08 DE=-2.05D-12 OVMax= 9.44D-08

 Error on total polarization charges =  0.02470
 SCF Done:  E(RB3LYP) =  -706.348922621     A.U. after   15 cycles
            NFock= 15  Conv=0.22D-08     -V/T= 2.0064
 KE= 7.018303353903D+02 PE=-2.096858175341D+03 EE= 4.786502775369D+02
 SMD-CDS (non-electrostatic) energy       (kcal/mol) =       0.49
 (included in total energy above)
 Leave Link  502 at Wed Jan  8 02:47:35 2020, MaxMem=  4294967296 cpu:             504.8 elap:              35.2
 (Enter /home/cwagen/sw/g16/g16/l601.exe)
 Copying SCF densities to generalized density rwf, IOpCl= 0 IROHF=0.

 **********************************************************************

            Population analysis using the SCF density.

 **********************************************************************

 Orbital symmetries:
       Occupied  (A) (A) (A) (A) (A) (A) (A) (A) (A) (A) (A) (A)
                 (A) (A) (A) (A) (A) (A) (A) (A) (A) (A) (A) (A)
                 (A) (A) (A)
       Virtual   (A) (A) (A) (A) (A) (A) (A) (A) (A) (A) (A) (A)
                 (A) (A) (A) (A) (A) (A) (A) (A) (A) (A) (A) (A)
                 (A) (A) (A) (A) (A) (A) (A) (A) (A) (A) (A) (A)
                 (A) (A) (A) (A) (A) (A) (A) (A) (A) (A) (A) (A)
                 (A) (A) (A) (A) (A) (A) (A) (A) (A) (A) (A) (A)
                 (A) (A) (A) (A) (A) (A) (A) (A) (A) (A) (A) (A)
                 (A) (A) (A) (A) (A) (A) (A) (A) (A) (A) (A) (A)
                 (A) (A) (A) (A) (A) (A) (A) (A) (A) (A) (A) (A)
                 (A)
 The electronic state is 1-A.
 Alpha  occ. eigenvalues -- -101.44146 -19.21038 -14.32007 -10.36749 -10.21371
 Alpha  occ. eigenvalues --  -10.20821  -9.35395  -7.11362  -7.11088  -7.11087
 Alpha  occ. eigenvalues --   -1.04766  -0.87796  -0.74722  -0.68714  -0.56331
 Alpha  occ. eigenvalues --   -0.47158  -0.44701  -0.44303  -0.39959  -0.37091
 Alpha  occ. eigenvalues --   -0.36446  -0.31963  -0.31860  -0.28809  -0.23422
 Alpha  occ. eigenvalues --   -0.22978  -0.22970
 Alpha virt. eigenvalues --   -0.13184  -0.02819   0.02951   0.04025   0.04308
 Alpha virt. eigenvalues --    0.05396   0.06114   0.07245   0.08434   0.09187
 Alpha virt. eigenvalues --    0.09817   0.09914   0.10810   0.11743   0.13047
 Alpha virt. eigenvalues --    0.13898   0.14807   0.16149   0.16499   0.19564
 Alpha virt. eigenvalues --    0.21615   0.23138   0.23932   0.24389   0.25206
 Alpha virt. eigenvalues --    0.26033   0.27651   0.28126   0.30362   0.32078
 Alpha virt. eigenvalues --    0.33845   0.35970   0.38921   0.58759   0.63014
 Alpha virt. eigenvalues --    0.64145   0.66444   0.66975   0.68018   0.68694
 Alpha virt. eigenvalues --    0.71551   0.72772   0.75107   0.78006   0.79181
 Alpha virt. eigenvalues --    0.85719   0.86393   0.94696   0.96613   0.97022
 Alpha virt. eigenvalues --    0.97522   0.97874   0.98282   0.99683   1.00226
 Alpha virt. eigenvalues --    1.01958   1.05415   1.11943   1.13962   1.18714
 Alpha virt. eigenvalues --    1.24029   1.26914   1.28948   1.31922   1.44629
 Alpha virt. eigenvalues --    1.45448   1.49003   1.54524   1.55743   1.56367
 Alpha virt. eigenvalues --    1.59816   1.64758   1.74108   1.78886   1.86156
 Alpha virt. eigenvalues --    1.87946   1.95010   1.98548   1.99358   2.10330
 Alpha virt. eigenvalues --    2.17433   2.22525   2.27008   2.46913   2.47827
 Alpha virt. eigenvalues --    2.56293   2.62335   2.64774   2.69503   2.92544
 Alpha virt. eigenvalues --    3.05846   4.01378   4.12478   4.23241   4.26249
 Alpha virt. eigenvalues --    4.36930   4.42171
          Condensed to atoms (all electrons):
               1          2          3          4          5          6
     1  C    5.149156   0.527016   0.065762  -0.056571  -0.055122   0.007999
     2  O    0.527016   7.951428  -0.125675   0.007411  -0.000278  -0.012882
     3  C    0.065762  -0.125675   5.732686   0.374410   0.371719   0.362644
     4  H   -0.056571   0.007411   0.374410   0.443403  -0.020172  -0.025840
     5  H   -0.055122  -0.000278   0.371719  -0.020172   0.441159  -0.022047
     6  H    0.007999  -0.012882   0.362644  -0.025840  -0.022047   0.427508
     7  Cl   0.146189  -0.018691  -0.056037   0.001249  -0.000957   0.000479
     8  C   -0.152511  -0.093943  -0.043943   0.012326   0.017920  -0.023583
     9  N   -0.011652  -0.002454  -0.004173  -0.000723  -0.000055   0.000328
               7          8          9
     1  C    0.146189  -0.152511  -0.011652
     2  O   -0.018691  -0.093943  -0.002454
     3  C   -0.056037  -0.043943  -0.004173
     4  H    0.001249   0.012326  -0.000723
     5  H   -0.000957   0.017920  -0.000055
     6  H    0.000479  -0.023583   0.000328
     7  Cl  17.762991  -0.050239  -0.000820
     8  C   -0.050239   5.636350   0.636468
     9  N   -0.000820   0.636468   6.948211
 Mulliken charges:
               1
     1  C    0.379733
     2  O   -0.231934
     3  C   -0.677392
     4  H    0.264506
     5  H    0.267833
     6  H    0.285395
     7  Cl  -0.784164
     8  C    0.061153
     9  N   -0.565131
 Sum of Mulliken charges =  -1.00000
 Mulliken charges with hydrogens summed into heavy atoms:
               1
     1  C    0.379733
     2  O   -0.231934
     3  C    0.140342
     7  Cl  -0.784164
     8  C    0.061153
     9  N   -0.565131
 Electronic spatial extent (au):  <R**2>=           1149.2047
 Charge=             -1.0000 electrons
 Dipole moment (field-independent basis, Debye):
    X=              4.8838    Y=              7.3411    Z=             -2.6283  Tot=              9.2006
 Quadrupole moment (field-independent basis, Debye-Ang):
   XX=            -84.4226   YY=            -53.3268   ZZ=            -47.6151
   XY=              7.2113   XZ=             -2.3252   YZ=             -5.0540
 Traceless Quadrupole moment (field-independent basis, Debye-Ang):
   XX=            -22.6345   YY=              8.4614   ZZ=             14.1731
   XY=              7.2113   XZ=             -2.3252   YZ=             -5.0540
 Octapole moment (field-independent basis, Debye-Ang**2):
  XXX=             32.8565  YYY=             37.7900  ZZZ=             -4.1746  XYY=            -14.5761
  XXY=             49.5615  XXZ=              1.4942  XZZ=              2.6218  YZZ=              3.8311
  YYZ=             -4.7840  XYZ=             -4.4484
 Hexadecapole moment (field-independent basis, Debye-Ang**3):
 XXXX=          -1338.6672 YYYY=           -447.7219 ZZZZ=           -179.8152 XXXY=             72.1921
 XXXZ=              0.7771 YYYX=             57.7984 YYYZ=            -11.7242 ZZZX=             -2.7212
 ZZZY=             -5.5876 XXYY=           -313.4290 XXZZ=           -213.2985 YYZZ=           -102.5830
 XXYZ=             -6.8572 YYXZ=             -1.7587 ZZXY=              3.6564
 N-N= 2.100286397937D+02 E-N=-2.096858174581D+03  KE= 7.018303353903D+02
 No NMR shielding tensors so no spin-rotation constants.
 Leave Link  601 at Wed Jan  8 02:47:36 2020, MaxMem=  4294967296 cpu:              18.2 elap:               1.3
 (Enter /home/cwagen/sw/g16/g16/l701.exe)
 ... and contract with generalized density number  0.
 Compute integral first derivatives.
 D1PCM: PCM CHGder 1st derivatives, ID1Alg=3 FixD1E=F DoIter=F DoCFld=F I1PDM=0.
 GePol: Maximum number of non-zero 1st derivatives   =     423
 Leave Link  701 at Wed Jan  8 02:47:42 2020, MaxMem=  4294967296 cpu:              80.1 elap:               5.8
 (Enter /home/cwagen/sw/g16/g16/l702.exe)
 L702 exits ... SP integral derivatives will be done elsewhere.
 Leave Link  702 at Wed Jan  8 02:47:42 2020, MaxMem=  4294967296 cpu:               1.2 elap:               0.1
 (Enter /home/cwagen/sw/g16/g16/l703.exe)
 Integral derivatives from FoFJK, PRISM(SPDF).
 Compute integral first derivatives, UseDBF=F ICtDFT=           0.
 Calling FoFJK, ICntrl=      2127 FMM=F ISym2X=0 I1Cent= 0 IOpClX= 0 NMat=1 NMatS=1 NMatT=0.
 FoFJK:  IHMeth= 1 ICntrl=    2127 DoSepK=F KAlg= 0 I1Cent=           0 FoldK=F
 IRaf=         0 NMat=       1 IRICut=       1 DoRegI=T DoRafI=F ISym2E= 0 IDoP0=0 IntGTp=1.
 FoFCou: FMM=F IPFlag=           0 FMFlag=      100000 FMFlg1=         800
         NFxFlg=           0 DoJE=F BraDBF=F KetDBF=F FulRan=T
         wScrn=  0.000000 ICntrl=      2127 IOpCl=  0 I1Cent=           0 NGrid=           0
         NMat0=    1 NMatS0=      1 NMatT0=    0 NMatD0=    1 NMtDS0=    0 NMtDT0=    0
 Symmetry not used in FoFCou.
 Leave Link  703 at Wed Jan  8 02:47:44 2020, MaxMem=  4294967296 cpu:              38.0 elap:               2.6
 (Enter /home/cwagen/sw/g16/g16/l716.exe)
 Dipole        = 1.92142086D+00 2.88820973D+00-1.03404683D+00
 ***** Axes restored to original set *****
 -------------------------------------------------------------------
 Center     Atomic                   Forces (Hartrees/Bohr)
 Number     Number              X              Y              Z
 -------------------------------------------------------------------
      1        6           0.054799733   -0.096108237   -0.120685214
      2        8          -0.006138418    0.071592175    0.125524674
      3        6          -0.019806485    0.025379394    0.015584064
      4        1          -0.000575303    0.002169031   -0.004676709
      5        1           0.000963497    0.001700635   -0.000209421
      6        1           0.003124203    0.006479312   -0.005922448
      7       17           0.007664206   -0.009915824   -0.002601135
      8        6          -0.040825683   -0.000494019   -0.008328390
      9        7           0.000794250   -0.000802466    0.001314580
 -------------------------------------------------------------------
 Cartesian Forces:  Max     0.125524674 RMS     0.043471713
 Leave Link  716 at Wed Jan  8 02:47:45 2020, MaxMem=  4294967296 cpu:               1.5 elap:               0.2
 (Enter /home/cwagen/sw/g16/g16/l103.exe)

 GradGradGradGradGradGradGradGradGradGradGradGradGradGradGradGradGradGrad
 Berny optimization.
 FormGI is forming the generalized inverse of G from B-inverse, IUseBI=4.
 Internal  Forces:  Max     0.140371182 RMS     0.029852015
 Search for a local minimum.
 Step number   1 out of a maximum of   41
 All quantities printed in internal units (Hartrees-Bohrs-Radians)
 RMS Force = .29917D-01 SwitMx=.10000D-02 MixMth= 1
 Mixed Optimization -- RFO/linear search
 Second derivative matrix not updated -- first step.
 ITU=  0
     Eigenvalues ---    0.00230   0.04746   0.04746   0.05330   0.05908
     Eigenvalues ---    0.07453   0.10176   0.16000   0.16000   0.16000
     Eigenvalues ---    0.25000   0.25000   0.25000   0.26946   0.33918
     Eigenvalues ---    0.33999   0.34275   0.67840   1.220341000.00000
     Eigenvalues --- 1000.000001000.000001000.000001000.000001000.00000
     Eigenvalues --- 1000.000001000.000001000.000001000.000001000.00000
     Eigenvalues --- 1000.00000
 RFO step:  Lambda=-5.19948059D-02 EMin= 2.30000000D-03
 Linear search not attempted -- first point.
 Maximum step size (   0.300) exceeded in Quadratic search.
    -- Step size scaled by   0.881
 Iteration  1 RMS(Cart)=  0.07124160 RMS(Int)=  0.00765193
 Iteration  2 RMS(Cart)=  0.00787604 RMS(Int)=  0.00375074
 Iteration  3 RMS(Cart)=  0.00006218 RMS(Int)=  0.00375035
 Iteration  4 RMS(Cart)=  0.00000130 RMS(Int)=  0.00375035
 Iteration  5 RMS(Cart)=  0.00000001 RMS(Int)=  0.00375035
 Iteration  1 RMS(Cart)=  0.00000000 RMS(Int)=  0.00000000
 ITry= 1 IFail=0 DXMaxC= 1.80D-01 DCOld= 1.00D+10 DXMaxT= 3.00D-01 DXLimC= 3.00D+00 Rises=F
 Variable       Old X    -DE/DX   Delta X   Delta X   Delta X     New X
                                 (Linear)    (Quad)   (Total)
    R1        2.45227  -0.14037   0.00000  -0.16924  -0.16924   2.28303
    R2        2.94503  -0.02201   0.00000  -0.06030  -0.06030   2.88473
    R3        6.04712  -0.01279   0.00000   0.00000   0.00000   6.04712
    R4        3.96842  -0.03881   0.00000   0.00000   0.00000   3.96842
    R5        2.07331  -0.00385   0.00000  -0.00865  -0.00865   2.06466
    R6        2.07468  -0.00152   0.00000  -0.00342  -0.00342   2.07127
    R7        2.06868  -0.00134   0.00000  -0.00299  -0.00299   2.06569
    R8        2.20923   0.00061   0.00000   0.00042   0.00042   2.20965
    A1        1.99667   0.05495   0.00000   0.16865   0.16358   2.16024
    A2        2.01908  -0.02449   0.00000  -0.08668  -0.08245   1.93663
    A3        1.89239  -0.01197   0.00000   0.01263  -0.00141   1.89098
    A4        1.92419  -0.02375   0.00000  -0.08891  -0.08543   1.83876
    A5        1.77194   0.01745   0.00000   0.06279   0.05352   1.82546
    A6        1.83479  -0.01220   0.00000  -0.06515  -0.06383   1.77096
    A7        1.97398  -0.00269   0.00000  -0.01192  -0.01224   1.96174
    A8        1.87942   0.00133   0.00000   0.00844   0.00847   1.88789
    A9        1.90140  -0.01240   0.00000  -0.05375  -0.05411   1.84728
   A10        1.90356   0.00183   0.00000   0.01158   0.01162   1.91518
   A11        1.90837   0.00671   0.00000   0.02263   0.02191   1.93028
   A12        1.89554   0.00550   0.00000   0.02440   0.02443   1.91998
   A13        3.09611  -0.00264   0.00000  -0.02335  -0.02335   3.07276
   A14        2.89707   0.00185   0.00000   0.01635   0.01635   2.91342
    D1        3.04510   0.00869   0.00000   0.05650   0.06092   3.10602
    D2       -1.13357   0.01022   0.00000   0.06936   0.07357  -1.06000
    D3        0.91915   0.01079   0.00000   0.07401   0.07802   0.99717
    D4       -0.92685   0.00134   0.00000   0.00223   0.00190  -0.92495
    D5        1.17766   0.00286   0.00000   0.01509   0.01455   1.19222
    D6       -3.05280   0.00344   0.00000   0.01974   0.01900  -3.03380
    D7        1.01121  -0.01268   0.00000  -0.07337  -0.07684   0.93437
    D8        3.11572  -0.01116   0.00000  -0.06051  -0.06418   3.05154
    D9       -1.11475  -0.01058   0.00000  -0.05586  -0.05974  -1.17448
         Item               Value     Threshold  Converged?
 Maximum Force            0.140371     0.000450     NO 
 RMS     Force            0.029917     0.000300     NO 
 Maximum Displacement     0.179837     0.001800     NO 
 RMS     Displacement     0.070312     0.001200     NO 
 Predicted change in Energy=-2.896153D-02
 Lowest energy point so far.  Saving SCF results.
 GradGradGradGradGradGradGradGradGradGradGradGradGradGradGradGradGradGrad

 Leave Link  103 at Wed Jan  8 02:47:53 2020, MaxMem=  4294967296 cpu:             113.0 elap:               8.1
 (Enter /home/cwagen/sw/g16/g16/l202.exe)
                          Input orientation:                          
 ---------------------------------------------------------------------
 Center     Atomic      Atomic             Coordinates (Angstroms)
 Number     Number       Type             X           Y           Z
 ---------------------------------------------------------------------
      1          6           0       -0.154005   -0.387165   -0.247293
      2          8           0       -0.239645   -0.596903   -1.433990
      3          6           0       -0.355975   -1.459070    0.820661
      4          1           0       -0.200593   -1.074288    1.831359
      5          1           0       -1.376216   -1.848227    0.725635
      6          1           0        0.367337   -2.246566    0.593570
      7         17           0       -2.042983    2.044169    0.624703
      8          6           0        1.751486    0.401712    0.148660
      9          7           0        2.875803    0.715874    0.215556
 ---------------------------------------------------------------------
                    Distance matrix (angstroms):
                    1          2          3          4          5
     1  C    0.000000
     2  O    1.208128   0.000000
     3  C    1.526532   2.416674   0.000000
     4  H    2.189772   3.300291   1.092571   0.000000
     5  H    2.138947   2.742551   1.096068   1.789886   0.000000
     6  H    2.106234   2.683433   1.093115   1.796914   1.793346
     7  Cl   3.200000   3.803354   3.893209   3.817747   3.950381
     8  C    2.100000   2.732511   2.890586   2.969960   3.895850
     9  N    3.257400   3.761702   3.942197   3.908927   4.991438
                    6          7          8          9
     6  H    0.000000
     7  Cl   4.921485   0.000000
     8  C    3.021124   4.162004   0.000000
     9  N    3.900172   5.111382   1.169299   0.000000
 Stoichiometry    C3H3ClNO(1-)
 Framework group  C1[X(C3H3ClNO)]
 Deg. of freedom    21
 Full point group                 C1      NOp   1
 RotChk:  IX=0 Diff= 5.26D-02
 Largest Abelian subgroup         C1      NOp   1
 Largest concise Abelian subgroup C1      NOp   1
                         Standard orientation:                         
 ---------------------------------------------------------------------
 Center     Atomic      Atomic             Coordinates (Angstroms)
 Number     Number       Type             X           Y           Z
 ---------------------------------------------------------------------
      1          6           0        0.464338    0.714648    0.232636
      2          8           0        0.653164    1.118006    1.355677
      3          6           0        0.652581    1.568593   -1.018620
      4          1           0        0.465157    1.007879   -1.937414
      5          1           0       -0.034976    2.420031   -0.957931
      6          1           0        1.687089    1.920294   -0.987003
      7         17           0       -2.454234   -0.567293   -0.047658
      8          6           0        1.688858   -0.962111   -0.082054
      9          7           0        2.506391   -1.796437   -0.134949
 ---------------------------------------------------------------------
 Rotational constants (GHZ):           2.7780270           1.2689887           1.0436342
 Leave Link  202 at Wed Jan  8 02:47:53 2020, MaxMem=  4294967296 cpu:               2.5 elap:               0.2
 (Enter /home/cwagen/sw/g16/g16/l301.exe)
 Standard basis: 6-31+G(d) (6D, 7F)
 Ernie: Thresh=  0.10000D-02 Tol=  0.10000D-05 Strict=F.
 There are   124 symmetry adapted cartesian basis functions of A   symmetry.
 There are   124 symmetry adapted basis functions of A   symmetry.
   124 basis functions,   228 primitive gaussians,   124 cartesian basis functions
    27 alpha electrons       27 beta electrons
       nuclear repulsion energy       213.7358376685 Hartrees.
 IExCor=  402 DFT=T Ex+Corr=B3LYP ExCW=0 ScaHFX=  0.200000
 ScaDFX=  0.800000  0.720000  1.000000  0.810000 ScalE2=  1.000000  1.000000
 IRadAn=      5 IRanWt=     -1 IRanGd=            0 ICorTp=0 IEmpDi=  4
 NAtoms=    9 NActive=    9 NUniq=    9 SFac= 1.00D+00 NAtFMM=   60 NAOKFM=F Big=F
 Integral buffers will be    131072 words long.
 Raffenetti 2 integral format.
 Two-electron integral symmetry is turned on.
 ------------------------------------------------------------------------------
 Polarizable Continuum Model (PCM)
 =================================
 Model                : PCM.
 Atomic radii         : SMD-Coulomb.
 Polarization charges : Total charges.
 Charge compensation  : None.
 Solution method      : On-the-fly selection.
 Cavity type          : VdW (van der Waals Surface) (Alpha=1.000).
 Cavity algorithm     : GePol (No added spheres)
                        Default sphere list used, NSphG=    9.
                        Lebedev-Laikov grids with approx.  5.0 points / Ang**2.
                        Smoothing algorithm: York/Karplus (Gamma=1.0000).
                        Polarization charges: spherical gaussians, with
                                              point-specific exponents (IZeta= 3).
                        Self-potential: point-specific (ISelfS= 7).
                        Self-field    : sphere-specific E.n sum rule (ISelfD= 2).
 1st derivatives      : Analytical E(r).r(x)/FMM algorithm (CHGder, D1EAlg=3).
                        Cavity 1st derivative terms included.
 Solvent              : TetraHydroFuran, Eps=   7.425700 Eps(inf)=   1.974025
 ------------------------------------------------------------------------------
 Spheres list:
 ISph  on   Nord     Re0    Alpha      Xe            Ye            Ze
    1   C      1    1.8500  1.000      0.464338      0.714648      0.232636
    2   O      2    2.2940  1.000      0.653164      1.118006      1.355677
    3   C      3    1.8500  1.000      0.652581      1.568593     -1.018620
    4   H      4    1.2000  1.000      0.465157      1.007879     -1.937414
    5   H      5    1.2000  1.000     -0.034976      2.420031     -0.957931
    6   H      6    1.2000  1.000      1.687089      1.920294     -0.987003
    7  Cl      7    2.3800  1.000     -2.454234     -0.567293     -0.047658
    8   C      8    1.8500  1.000      1.688858     -0.962111     -0.082054
    9   N      9    1.8900  1.000      2.506391     -1.796437     -0.134949
 ------------------------------------------------------------------------------
 GePol: Number of generator spheres                  =       9
 GePol: Total number of spheres                      =       9
 GePol: Number of exposed spheres                    =       9 (100.00%)
 GePol: Number of points                             =    1338
 GePol: Average weight of points                     =       0.14
 GePol: Minimum weight of points                     =   0.12D-08
 GePol: Maximum weight of points                     =    0.18138
 GePol: Number of points with low weight             =      35
 GePol: Fraction of low-weight points (<1% of avg)   =       2.62%
 GePol: Cavity surface area                          =    181.829 Ang**2
 GePol: Cavity volume                                =    159.539 Ang**3
 ------------------------------------------------------------------------------
 Atomic radii for non-electrostatic terms: SMD-CDS.
 ------------------------------------------------------------------------------
 PCM non-electrostatic energy =         0.0005640202 Hartrees.
 Nuclear repulsion after PCM non-electrostatic terms =      213.7364016887 Hartrees.
 Leave Link  301 at Wed Jan  8 02:47:53 2020, MaxMem=  4294967296 cpu:               2.5 elap:               0.2
 (Enter /home/cwagen/sw/g16/g16/l302.exe)
 NPDir=0 NMtPBC=     1 NCelOv=     1 NCel=       1 NClECP=     1 NCelD=      1
         NCelK=      1 NCelE2=     1 NClLst=     1 CellRange=     0.0.
 One-electron integrals computed using PRISM.
 One-electron integral symmetry used in STVInt
 NBasis=   124 RedAO= T EigKep=  1.70D-04  NBF=   124
 NBsUse=   124 1.00D-06 EigRej= -1.00D+00 NBFU=   124
 Precomputing XC quadrature grid using
 IXCGrd= 4 IRadAn=           5 IRanWt=          -1 IRanGd=           0 AccXCQ= 0.00D+00.
 Generated NRdTot=       0 NPtTot=           0 NUsed=           0 NTot=          32
 NSgBfM=   123   123   123   123   123 MxSgAt=     9 MxSgA2=     9.
 Leave Link  302 at Wed Jan  8 02:47:55 2020, MaxMem=  4294967296 cpu:              24.3 elap:               1.7
 (Enter /home/cwagen/sw/g16/g16/l303.exe)
 DipDrv:  MaxL=1.
 Leave Link  303 at Wed Jan  8 02:47:55 2020, MaxMem=  4294967296 cpu:               4.2 elap:               0.4
 (Enter /home/cwagen/sw/g16/g16/l401.exe)
 Initial guess from the checkpoint file:  "/scratch/users/cwagen/cwagen_scan_320_210/Gau-27534.chk"
 B after Tr=     0.000000    0.000000    0.000000
         Rot=    0.999867   -0.010975   -0.002491   -0.011788 Ang=  -1.87 deg.
 Guess basis will be translated and rotated to current coordinates.
 JPrj=2 DoOrth=T DoCkMO=T.
 Generating alternative initial guess.
 ExpMin= 4.38D-02 ExpMax= 2.52D+04 ExpMxC= 3.78D+03 IAcc=2 IRadAn=         4 AccDes= 0.00D+00
 Harris functional with IExCor=  402 and IRadAn=       4 diagonalized for initial guess.
 HarFok:  IExCor=  402 AccDes= 0.00D+00 IRadAn=         4 IDoV= 1 UseB2=F ITyADJ=14
 ICtDFT=  3500011 ScaDFX=  1.000000  1.000000  1.000000  1.000000
 FoFCou: FMM=F IPFlag=           0 FMFlag=      100000 FMFlg1=           0
         NFxFlg=           0 DoJE=T BraDBF=F KetDBF=T FulRan=T
         wScrn=  0.000000 ICntrl=       500 IOpCl=  0 I1Cent=   200000004 NGrid=           0
         NMat0=    1 NMatS0=      1 NMatT0=    0 NMatD0=    1 NMtDS0=    0 NMtDT0=    0
 Petite list used in FoFCou.
 Harris En= -706.363879874265    
 Leave Link  401 at Wed Jan  8 02:47:59 2020, MaxMem=  4294967296 cpu:              54.4 elap:               3.8
 (Enter /home/cwagen/sw/g16/g16/l502.exe)
 Keep R1 ints in memory in canonical form, NReq=45236517.
 FoFCou: FMM=F IPFlag=           0 FMFlag=           0 FMFlg1=           0
         NFxFlg=           0 DoJE=F BraDBF=F KetDBF=F FulRan=T
         wScrn=  0.000000 ICntrl=       600 IOpCl=  0 I1Cent=           0 NGrid=           0
         NMat0=    1 NMatS0=   7750 NMatT0=    0 NMatD0=    1 NMtDS0=    0 NMtDT0=    0
 Symmetry not used in FoFCou.
 Two-electron integral symmetry not used.
 Closed shell SCF:
 Using DIIS extrapolation, IDIIS=  1040.
 NGot=  4294967296 LenX=  4264898079 LenY=  4264882262
 Requested convergence on RMS density matrix=1.00D-08 within 128 cycles.
 Requested convergence on MAX density matrix=1.00D-06.
 Requested convergence on             energy=1.00D-06.
 No special actions if energy rises.

 Cycle   1  Pass 1  IDiag  1:
 Inv3:  Mode=1 IEnd=     5370732.
 Iteration    1 A*A^-1 deviation from unit magnitude is 4.44D-15 for   1334.
 Iteration    1 A*A^-1 deviation from orthogonality  is 1.55D-15 for    764    224.
 Iteration    1 A^-1*A deviation from unit magnitude is 4.22D-15 for   1334.
 Iteration    1 A^-1*A deviation from orthogonality  is 2.99D-15 for    808    764.
 E= -706.368238997000    
 DIIS: error= 6.51D-03 at cycle   1 NSaved=   1.
 NSaved= 1 IEnMin= 1 EnMin= -706.368238997000     IErMin= 1 ErrMin= 6.51D-03
 ErrMax= 6.51D-03  0.00D+00 EMaxC= 1.00D-01 BMatC= 1.01D-02 BMatP= 1.01D-02
 IDIUse=3 WtCom= 9.35D-01 WtEn= 6.51D-02
 Coeff-Com:  0.100D+01
 Coeff-En:   0.100D+01
 Coeff:      0.100D+01
 Gap=     0.554 Goal=   None    Shift=    0.000
 GapD=    0.554 DampG=2.000 DampE=1.000 DampFc=2.0000 IDamp=-1.
 RMSDP=1.84D-03 MaxDP=2.81D-02              OVMax= 4.20D-02

 Cycle   2  Pass 1  IDiag  1:
 E= -706.384606200833     Delta-E=       -0.016367203832 Rises=F Damp=F
 DIIS: error= 2.16D-03 at cycle   2 NSaved=   2.
 NSaved= 2 IEnMin= 2 EnMin= -706.384606200833     IErMin= 2 ErrMin= 2.16D-03
 ErrMax= 2.16D-03  0.00D+00 EMaxC= 1.00D-01 BMatC= 8.47D-04 BMatP= 1.01D-02
 IDIUse=3 WtCom= 9.78D-01 WtEn= 2.16D-02
 Coeff-Com:  0.937D-01 0.906D+00
 Coeff-En:   0.000D+00 0.100D+01
 Coeff:      0.916D-01 0.908D+00
 Gap=     0.125 Goal=   None    Shift=    0.000
 RMSDP=5.73D-04 MaxDP=1.64D-02 DE=-1.64D-02 OVMax= 2.59D-02

 Cycle   3  Pass 1  IDiag  1:
 E= -706.383715665944     Delta-E=        0.000890534888 Rises=F Damp=F
 DIIS: error= 3.04D-03 at cycle   3 NSaved=   3.
 NSaved= 3 IEnMin= 2 EnMin= -706.384606200833     IErMin= 2 ErrMin= 2.16D-03
 ErrMax= 3.04D-03  0.00D+00 EMaxC= 1.00D-01 BMatC= 2.02D-03 BMatP= 8.47D-04
 IDIUse=3 WtCom= 1.53D-01 WtEn= 8.47D-01
 Coeff-Com: -0.167D-01 0.622D+00 0.394D+00
 Coeff-En:   0.000D+00 0.664D+00 0.336D+00
 Coeff:     -0.256D-02 0.658D+00 0.345D+00
 Gap=     0.120 Goal=   None    Shift=    0.000
 RMSDP=3.47D-04 MaxDP=1.07D-02 DE= 8.91D-04 OVMax= 1.54D-02

 Cycle   4  Pass 1  IDiag  1:
 E= -706.385332438304     Delta-E=       -0.001616772360 Rises=F Damp=F
 DIIS: error= 6.98D-04 at cycle   4 NSaved=   4.
 NSaved= 4 IEnMin= 4 EnMin= -706.385332438304     IErMin= 4 ErrMin= 6.98D-04
 ErrMax= 6.98D-04  0.00D+00 EMaxC= 1.00D-01 BMatC= 8.29D-05 BMatP= 8.47D-04
 IDIUse=3 WtCom= 9.93D-01 WtEn= 6.98D-03
 Coeff-Com: -0.242D-01 0.265D+00 0.206D+00 0.553D+00
 Coeff-En:   0.000D+00 0.000D+00 0.000D+00 0.100D+01
 Coeff:     -0.240D-01 0.263D+00 0.205D+00 0.556D+00
 Gap=     0.117 Goal=   None    Shift=    0.000
 RMSDP=1.39D-04 MaxDP=5.15D-03 DE=-1.62D-03 OVMax= 2.91D-03

 Cycle   5  Pass 1  IDiag  1:
 E= -706.385398316779     Delta-E=       -0.000065878476 Rises=F Damp=F
 DIIS: error= 2.21D-04 at cycle   5 NSaved=   5.
 NSaved= 5 IEnMin= 5 EnMin= -706.385398316779     IErMin= 5 ErrMin= 2.21D-04
 ErrMax= 2.21D-04  0.00D+00 EMaxC= 1.00D-01 BMatC= 1.14D-05 BMatP= 8.29D-05
 IDIUse=3 WtCom= 9.98D-01 WtEn= 2.21D-03
 Coeff-Com: -0.809D-02 0.823D-01 0.804D-01 0.308D+00 0.538D+00
 Coeff-En:   0.000D+00 0.000D+00 0.000D+00 0.951D-01 0.905D+00
 Coeff:     -0.807D-02 0.821D-01 0.802D-01 0.307D+00 0.538D+00
 Gap=     0.119 Goal=   None    Shift=    0.000
 RMSDP=6.93D-05 MaxDP=3.06D-03 DE=-6.59D-05 OVMax= 2.09D-03

 Cycle   6  Pass 1  IDiag  1:
 E= -706.385410979593     Delta-E=       -0.000012662813 Rises=F Damp=F
 DIIS: error= 8.26D-05 at cycle   6 NSaved=   6.
 NSaved= 6 IEnMin= 6 EnMin= -706.385410979593     IErMin= 6 ErrMin= 8.26D-05
 ErrMax= 8.26D-05  0.00D+00 EMaxC= 1.00D-01 BMatC= 1.72D-06 BMatP= 1.14D-05
 IDIUse=1 WtCom= 1.00D+00 WtEn= 0.00D+00
 Coeff-Com: -0.212D-02 0.144D-01 0.215D-01 0.114D+00 0.327D+00 0.526D+00
 Coeff:     -0.212D-02 0.144D-01 0.215D-01 0.114D+00 0.327D+00 0.526D+00
 Gap=     0.118 Goal=   None    Shift=    0.000
 RMSDP=1.30D-05 MaxDP=3.36D-04 DE=-1.27D-05 OVMax= 4.81D-04

 Cycle   7  Pass 1  IDiag  1:
 E= -706.385412493440     Delta-E=       -0.000001513847 Rises=F Damp=F
 DIIS: error= 4.60D-05 at cycle   7 NSaved=   7.
 NSaved= 7 IEnMin= 7 EnMin= -706.385412493440     IErMin= 7 ErrMin= 4.60D-05
 ErrMax= 4.60D-05  0.00D+00 EMaxC= 1.00D-01 BMatC= 2.72D-07 BMatP= 1.72D-06
 IDIUse=1 WtCom= 1.00D+00 WtEn= 0.00D+00
 Coeff-Com: -0.526D-03-0.719D-03 0.417D-02 0.397D-01 0.165D+00 0.339D+00
 Coeff-Com:  0.454D+00
 Coeff:     -0.526D-03-0.719D-03 0.417D-02 0.397D-01 0.165D+00 0.339D+00
 Coeff:      0.454D+00
 Gap=     0.118 Goal=   None    Shift=    0.000
 RMSDP=4.75D-06 MaxDP=1.18D-04 DE=-1.51D-06 OVMax= 2.07D-04

 Cycle   8  Pass 1  IDiag  1:
 E= -706.385412730333     Delta-E=       -0.000000236893 Rises=F Damp=F
 DIIS: error= 1.70D-05 at cycle   8 NSaved=   8.
 NSaved= 8 IEnMin= 8 EnMin= -706.385412730333     IErMin= 8 ErrMin= 1.70D-05
 ErrMax= 1.70D-05  0.00D+00 EMaxC= 1.00D-01 BMatC= 3.17D-08 BMatP= 2.72D-07
 IDIUse=1 WtCom= 1.00D+00 WtEn= 0.00D+00
 Coeff-Com:  0.236D-03-0.406D-02-0.302D-02-0.339D-02 0.309D-01 0.720D-01
 Coeff-Com:  0.271D+00 0.637D+00
 Coeff:      0.236D-03-0.406D-02-0.302D-02-0.339D-02 0.309D-01 0.720D-01
 Coeff:      0.271D+00 0.637D+00
 Gap=     0.118 Goal=   None    Shift=    0.000
 RMSDP=2.09D-06 MaxDP=5.37D-05 DE=-2.37D-07 OVMax= 8.78D-05

 Cycle   9  Pass 1  IDiag  1:
 E= -706.385412759818     Delta-E=       -0.000000029486 Rises=F Damp=F
 DIIS: error= 3.78D-06 at cycle   9 NSaved=   9.
 NSaved= 9 IEnMin= 9 EnMin= -706.385412759818     IErMin= 9 ErrMin= 3.78D-06
 ErrMax= 3.78D-06  0.00D+00 EMaxC= 1.00D-01 BMatC= 2.22D-09 BMatP= 3.17D-08
 IDIUse=1 WtCom= 1.00D+00 WtEn= 0.00D+00
 Coeff-Com:  0.136D-03-0.191D-02-0.195D-02-0.434D-02 0.636D-02 0.998D-02
 Coeff-Com:  0.103D+00 0.315D+00 0.574D+00
 Coeff:      0.136D-03-0.191D-02-0.195D-02-0.434D-02 0.636D-02 0.998D-02
 Coeff:      0.103D+00 0.315D+00 0.574D+00
 Gap=     0.118 Goal=   None    Shift=    0.000
 RMSDP=8.34D-07 MaxDP=3.21D-05 DE=-2.95D-08 OVMax= 3.36D-05

 Cycle  10  Pass 1  IDiag  1:
 E= -706.385412762651     Delta-E=       -0.000000002832 Rises=F Damp=F
 DIIS: error= 7.99D-07 at cycle  10 NSaved=  10.
 NSaved=10 IEnMin=10 EnMin= -706.385412762651     IErMin=10 ErrMin= 7.99D-07
 ErrMax= 7.99D-07  0.00D+00 EMaxC= 1.00D-01 BMatC= 1.75D-10 BMatP= 2.22D-09
 IDIUse=1 WtCom= 1.00D+00 WtEn= 0.00D+00
 Coeff-Com:  0.286D-04-0.196D-03-0.458D-03-0.131D-02-0.978D-03-0.699D-02
 Coeff-Com:  0.179D-02 0.413D-01 0.239D+00 0.727D+00
 Coeff:      0.286D-04-0.196D-03-0.458D-03-0.131D-02-0.978D-03-0.699D-02
 Coeff:      0.179D-02 0.413D-01 0.239D+00 0.727D+00
 Gap=     0.118 Goal=   None    Shift=    0.000
 RMSDP=2.60D-07 MaxDP=9.28D-06 DE=-2.83D-09 OVMax= 9.02D-06

 Cycle  11  Pass 1  IDiag  1:
 E= -706.385412762882     Delta-E=       -0.000000000232 Rises=F Damp=F
 DIIS: error= 1.18D-07 at cycle  11 NSaved=  11.
 NSaved=11 IEnMin=11 EnMin= -706.385412762882     IErMin=11 ErrMin= 1.18D-07
 ErrMax= 1.18D-07  0.00D+00 EMaxC= 1.00D-01 BMatC= 2.87D-12 BMatP= 1.75D-10
 IDIUse=1 WtCom= 1.00D+00 WtEn= 0.00D+00
 Coeff-Com:  0.220D-05 0.216D-04-0.357D-04-0.194D-03-0.525D-03-0.200D-02
 Coeff-Com: -0.371D-02-0.126D-02 0.302D-01 0.177D+00 0.800D+00
 Coeff:      0.220D-05 0.216D-04-0.357D-04-0.194D-03-0.525D-03-0.200D-02
 Coeff:     -0.371D-02-0.126D-02 0.302D-01 0.177D+00 0.800D+00
 Gap=     0.118 Goal=   None    Shift=    0.000
 RMSDP=5.38D-08 MaxDP=2.53D-06 DE=-2.32D-10 OVMax= 8.98D-07

 Cycle  12  Pass 1  IDiag  1:
 E= -706.385412762886     Delta-E=       -0.000000000003 Rises=F Damp=F
 DIIS: error= 3.60D-08 at cycle  12 NSaved=  12.
 NSaved=12 IEnMin=12 EnMin= -706.385412762886     IErMin=12 ErrMin= 3.60D-08
 ErrMax= 3.60D-08  0.00D+00 EMaxC= 1.00D-01 BMatC= 3.76D-13 BMatP= 2.87D-12
 IDIUse=1 WtCom= 1.00D+00 WtEn= 0.00D+00
 Coeff-Com: -0.248D-06 0.147D-04 0.104D-04-0.116D-04-0.117D-03-0.274D-03
 Coeff-Com: -0.130D-02-0.201D-02-0.174D-02 0.294D-01 0.306D+00 0.670D+00
 Coeff:     -0.248D-06 0.147D-04 0.104D-04-0.116D-04-0.117D-03-0.274D-03
 Coeff:     -0.130D-02-0.201D-02-0.174D-02 0.294D-01 0.306D+00 0.670D+00
 Gap=     0.118 Goal=   None    Shift=    0.000
 RMSDP=1.35D-08 MaxDP=5.80D-07 DE=-3.41D-12 OVMax= 3.34D-07

 Cycle  13  Pass 1  IDiag  1:
 E= -706.385412762887     Delta-E=       -0.000000000001 Rises=F Damp=F
 DIIS: error= 1.24D-08 at cycle  13 NSaved=  13.
 NSaved=13 IEnMin=13 EnMin= -706.385412762887     IErMin=13 ErrMin= 1.24D-08
 ErrMax= 1.24D-08  0.00D+00 EMaxC= 1.00D-01 BMatC= 4.30D-14 BMatP= 3.76D-13
 IDIUse=1 WtCom= 1.00D+00 WtEn= 0.00D+00
 Coeff-Com: -0.406D-06 0.347D-05 0.845D-05 0.155D-04 0.108D-04 0.117D-03
 Coeff-Com: -0.881D-04-0.612D-03-0.472D-02-0.863D-02 0.303D-01 0.288D+00
 Coeff-Com:  0.696D+00
 Coeff:     -0.406D-06 0.347D-05 0.845D-05 0.155D-04 0.108D-04 0.117D-03
 Coeff:     -0.881D-04-0.612D-03-0.472D-02-0.863D-02 0.303D-01 0.288D+00
 Coeff:      0.696D+00
 Gap=     0.118 Goal=   None    Shift=    0.000
 RMSDP=4.12D-09 MaxDP=1.57D-07 DE=-1.14D-12 OVMax= 1.04D-07

 Error on total polarization charges =  0.02528
 SCF Done:  E(RB3LYP) =  -706.385412763     A.U. after   13 cycles
            NFock= 13  Conv=0.41D-08     -V/T= 2.0061
 KE= 7.021131676079D+02 PE=-2.104489020704D+03 EE= 4.822540386445D+02
 SMD-CDS (non-electrostatic) energy       (kcal/mol) =       0.35
 (included in total energy above)
 Leave Link  502 at Wed Jan  8 02:48:31 2020, MaxMem=  4294967296 cpu:             450.6 elap:              31.5
 (Enter /home/cwagen/sw/g16/g16/l701.exe)
 ... and contract with generalized density number  0.
 Compute integral first derivatives.
 D1PCM: PCM CHGder 1st derivatives, ID1Alg=3 FixD1E=F DoIter=F DoCFld=F I1PDM=0.
 GePol: Maximum number of non-zero 1st derivatives   =     423
 Leave Link  701 at Wed Jan  8 02:48:35 2020, MaxMem=  4294967296 cpu:              55.7 elap:               4.0
 (Enter /home/cwagen/sw/g16/g16/l702.exe)
 L702 exits ... SP integral derivatives will be done elsewhere.
 Leave Link  702 at Wed Jan  8 02:48:35 2020, MaxMem=  4294967296 cpu:               0.9 elap:               0.1
 (Enter /home/cwagen/sw/g16/g16/l703.exe)
 Integral derivatives from FoFJK, PRISM(SPDF).
 Compute integral first derivatives, UseDBF=F ICtDFT=           0.
 Calling FoFJK, ICntrl=      2127 FMM=F ISym2X=0 I1Cent= 0 IOpClX= 0 NMat=1 NMatS=1 NMatT=0.
 FoFJK:  IHMeth= 1 ICntrl=    2127 DoSepK=F KAlg= 0 I1Cent=           0 FoldK=F
 IRaf=         0 NMat=       1 IRICut=       1 DoRegI=T DoRafI=F ISym2E= 0 IDoP0=0 IntGTp=1.
 FoFCou: FMM=F IPFlag=           0 FMFlag=      100000 FMFlg1=         800
         NFxFlg=           0 DoJE=F BraDBF=F KetDBF=F FulRan=T
         wScrn=  0.000000 ICntrl=      2127 IOpCl=  0 I1Cent=           0 NGrid=           0
         NMat0=    1 NMatS0=      1 NMatT0=    0 NMatD0=    1 NMtDS0=    0 NMtDT0=    0
 Symmetry not used in FoFCou.
 Leave Link  703 at Wed Jan  8 02:48:37 2020, MaxMem=  4294967296 cpu:              33.9 elap:               2.5
 (Enter /home/cwagen/sw/g16/g16/l716.exe)
 Dipole        = 2.09566694D+00 3.35572358D+00-8.77151813D-01
 ***** Axes restored to original set *****
 -------------------------------------------------------------------
 Center     Atomic                   Forces (Hartrees/Bohr)
 Number     Number              X              Y              Z
 -------------------------------------------------------------------
      1        6           0.049503549   -0.049873566   -0.056116090
      2        8          -0.010265754    0.035592318    0.055353523
      3        6          -0.013651352    0.024712110    0.010211499
      4        1           0.000390208    0.000104430   -0.001997445
      5        1           0.000651494    0.000434297   -0.000727985
      6        1           0.002697738    0.001909805   -0.002391309
      7       17           0.005396601   -0.007584333   -0.001838047
      8        6          -0.035523730   -0.005284236   -0.002883899
      9        7           0.000801245   -0.000010826    0.000389752
 -------------------------------------------------------------------
 Cartesian Forces:  Max     0.056116090 RMS     0.023440592
 Leave Link  716 at Wed Jan  8 02:48:37 2020, MaxMem=  4294967296 cpu:               0.8 elap:               0.1
 (Enter /home/cwagen/sw/g16/g16/l103.exe)

 GradGradGradGradGradGradGradGradGradGradGradGradGradGradGradGradGradGrad
 Berny optimization.
 Using GEDIIS/GDIIS optimizer.
 FormGI is forming the generalized inverse of G from B-inverse, IUseBI=4.
 Internal  Forces:  Max     0.059817763 RMS     0.015865200
 Search for a local minimum.
 Step number   2 out of a maximum of   41
 All quantities printed in internal units (Hartrees-Bohrs-Radians)
 RMS Force = .15041D-01 SwitMx=.10000D-02 MixMth= 1
 Mixed Optimization -- RFO/linear search
 Update second derivatives using D2CorX and points    1    2
 DE= -3.65D-02 DEPred=-2.90D-02 R= 1.26D+00
 TightC=F SS=  1.41D+00  RLast= 3.39D-01 DXNew= 5.0454D-01 1.0161D+00
 Trust test= 1.26D+00 RLast= 3.39D-01 DXMaxT set to 5.05D-01
 ITU=  1  0
 Use linear search instead of GDIIS.
     Eigenvalues ---    0.00230   0.04746   0.04759   0.05302   0.05524
     Eigenvalues ---    0.06132   0.08990   0.15967   0.16000   0.16084
     Eigenvalues ---    0.20053   0.25000   0.25824   0.26792   0.33918
     Eigenvalues ---    0.33998   0.34292   0.62090   1.220351000.00000
     Eigenvalues --- 1000.000001000.000001000.000001000.000001000.00000
     Eigenvalues --- 1000.000001000.000001000.000001000.000001000.00000
     Eigenvalues --- 1000.00000
 RFO step:  Lambda=-3.63974399D-03 EMin= 2.30039522D-03
 Quartic linear search produced a step of  0.77254.
 Iteration  1 RMS(Cart)=  0.08765471 RMS(Int)=  0.01331696
 Iteration  2 RMS(Cart)=  0.01139678 RMS(Int)=  0.00778107
 Iteration  3 RMS(Cart)=  0.00016281 RMS(Int)=  0.00777993
 Iteration  4 RMS(Cart)=  0.00000422 RMS(Int)=  0.00777993
 Iteration  5 RMS(Cart)=  0.00000007 RMS(Int)=  0.00777993
 Iteration  1 RMS(Cart)=  0.00000000 RMS(Int)=  0.00000000
 ITry= 1 IFail=0 DXMaxC= 2.38D-01 DCOld= 1.00D+10 DXMaxT= 5.05D-01 DXLimC= 3.00D+00 Rises=F
 Variable       Old X    -DE/DX   Delta X   Delta X   Delta X     New X
                                 (Linear)    (Quad)   (Total)
    R1        2.28303  -0.05982  -0.13075   0.00683  -0.12391   2.15912
    R2        2.88473  -0.01417  -0.04659  -0.01749  -0.06407   2.82065
    R3        6.04712  -0.00946   0.00000   0.00000   0.00000   6.04712
    R4        3.96842  -0.03395   0.00000   0.00000   0.00000   3.96842
    R5        2.06466  -0.00174  -0.00668   0.00090  -0.00579   2.05887
    R6        2.07127  -0.00069  -0.00264   0.00032  -0.00232   2.06894
    R7        2.06569   0.00086  -0.00231   0.00787   0.00556   2.07124
    R8        2.20965   0.00079   0.00033   0.00078   0.00111   2.21077
    A1        2.16024   0.03749   0.12637   0.07216   0.18627   2.34652
    A2        1.93663  -0.01527  -0.06370  -0.03796  -0.08864   1.84798
    A3        1.89098  -0.00598  -0.00109   0.04922   0.02162   1.91260
    A4        1.83876  -0.01786  -0.06599  -0.05751  -0.11367   1.72509
    A5        1.82546   0.00098   0.04135  -0.02838  -0.00994   1.81552
    A6        1.77096  -0.00622  -0.04931  -0.01182  -0.06237   1.70859
    A7        1.96174  -0.00042  -0.00946   0.01585   0.00615   1.96789
    A8        1.88789   0.00015   0.00654  -0.01030  -0.00378   1.88412
    A9        1.84728  -0.00548  -0.04181   0.02302  -0.01911   1.82817
   A10        1.91518   0.00109   0.00898  -0.00211   0.00689   1.92207
   A11        1.93028   0.00206   0.01692  -0.01266   0.00370   1.93398
   A12        1.91998   0.00246   0.01888  -0.01364   0.00516   1.92514
   A13        3.07276  -0.00070  -0.01804   0.05236   0.03431   3.10707
   A14        2.91342   0.00047   0.01263  -0.03734  -0.02471   2.88872
    D1        3.10602   0.00949   0.04706   0.01934   0.07369  -3.10347
    D2       -1.06000   0.01069   0.05684   0.01973   0.08367  -0.97632
    D3        0.99717   0.01077   0.06027   0.01078   0.07804   1.07521
    D4       -0.92495   0.00081   0.00147  -0.03529  -0.03673  -0.96168
    D5        1.19222   0.00201   0.01124  -0.03490  -0.02675   1.16547
    D6       -3.03380   0.00209   0.01468  -0.04385  -0.03238  -3.06618
    D7        0.93437  -0.01195  -0.05936  -0.07886  -0.14211   0.79226
    D8        3.05154  -0.01075  -0.04958  -0.07847  -0.13213   2.91941
    D9       -1.17448  -0.01067  -0.04615  -0.08742  -0.13776  -1.31225
         Item               Value     Threshold  Converged?
 Maximum Force            0.059818     0.000450     NO 
 RMS     Force            0.015041     0.000300     NO 
 Maximum Displacement     0.238473     0.001800     NO 
 RMS     Displacement     0.090118     0.001200     NO 
 Predicted change in Energy=-1.869333D-02
 Lowest energy point so far.  Saving SCF results.
 GradGradGradGradGradGradGradGradGradGradGradGradGradGradGradGradGradGrad

 Leave Link  103 at Wed Jan  8 02:48:42 2020, MaxMem=  4294967296 cpu:              60.5 elap:               4.4
 (Enter /home/cwagen/sw/g16/g16/l202.exe)
                          Input orientation:                          
 ---------------------------------------------------------------------
 Center     Atomic      Atomic             Coordinates (Angstroms)
 Number     Number       Type             X           Y           Z
 ---------------------------------------------------------------------
      1          6           0       -0.113908   -0.489252   -0.311673
      2          8           0       -0.235760   -0.543490   -1.446417
      3          6           0       -0.361772   -1.439111    0.812722
      4          1           0       -0.154048   -1.000666    1.788245
      5          1           0       -1.407050   -1.760312    0.758919
      6          1           0        0.306668   -2.285118    0.615750
      7         17           0       -1.987039    1.917975    0.656128
      8          6           0        1.739086    0.380944    0.156488
      9          7           0        2.839031    0.768569    0.248701
 ---------------------------------------------------------------------
                    Distance matrix (angstroms):
                    1          2          3          4          5
     1  C    0.000000
     2  O    1.142556   0.000000
     3  C    1.492626   2.433459   0.000000
     4  H    2.161668   3.267832   1.089508   0.000000
     5  H    2.105701   2.777784   1.094838   1.790695   0.000000
     6  H    2.064492   2.753185   1.096055   1.799116   1.797984
     7  Cl   3.200000   3.680555   3.733100   3.627673   3.725151
     8  C    2.100000   2.706271   2.856019   2.855772   3.853060
     9  N    3.258217   3.748235   3.929008   3.802486   4.968376
                    6          7          8          9
     6  H    0.000000
     7  Cl   4.788393   0.000000
     8  C    3.061148   4.061540   0.000000
     9  N    3.984041   4.977758   1.169887   0.000000
 Stoichiometry    C3H3ClNO(1-)
 Framework group  C1[X(C3H3ClNO)]
 Deg. of freedom    21
 Full point group                 C1      NOp   1
 RotChk:  IX=0 Diff= 7.18D-02
 Largest Abelian subgroup         C1      NOp   1
 Largest concise Abelian subgroup C1      NOp   1
                         Standard orientation:                         
 ---------------------------------------------------------------------
 Center     Atomic      Atomic             Coordinates (Angstroms)
 Number     Number       Type             X           Y           Z
 ---------------------------------------------------------------------
      1          6           0        0.501143    0.798417    0.256349
      2          8           0        0.583931    1.111868    1.351945
      3          6           0        0.532693    1.528810   -1.044982
      4          1           0        0.380888    0.871780   -1.900725
      5          1           0       -0.245065    2.298920   -1.018658
      6          1           0        1.525429    1.991972   -1.080960
      7         17           0       -2.357964   -0.608222   -0.038389
      8          6           0        1.693055   -0.896981   -0.082722
      9          7           0        2.484477   -1.757044   -0.133496
 ---------------------------------------------------------------------
 Rotational constants (GHZ):           2.8035645           1.3359722           1.0959976
 Leave Link  202 at Wed Jan  8 02:48:42 2020, MaxMem=  4294967296 cpu:               1.2 elap:               0.1
 (Enter /home/cwagen/sw/g16/g16/l301.exe)
 Standard basis: 6-31+G(d) (6D, 7F)
 Ernie: Thresh=  0.10000D-02 Tol=  0.10000D-05 Strict=F.
 There are   124 symmetry adapted cartesian basis functions of A   symmetry.
 There are   124 symmetry adapted basis functions of A   symmetry.
   124 basis functions,   228 primitive gaussians,   124 cartesian basis functions
    27 alpha electrons       27 beta electrons
       nuclear repulsion energy       217.6250813903 Hartrees.
 IExCor=  402 DFT=T Ex+Corr=B3LYP ExCW=0 ScaHFX=  0.200000
 ScaDFX=  0.800000  0.720000  1.000000  0.810000 ScalE2=  1.000000  1.000000
 IRadAn=      5 IRanWt=     -1 IRanGd=            0 ICorTp=0 IEmpDi=  4
 NAtoms=    9 NActive=    9 NUniq=    9 SFac= 1.00D+00 NAtFMM=   60 NAOKFM=F Big=F
 Integral buffers will be    131072 words long.
 Raffenetti 2 integral format.
 Two-electron integral symmetry is turned on.
 ------------------------------------------------------------------------------
 Polarizable Continuum Model (PCM)
 =================================
 Model                : PCM.
 Atomic radii         : SMD-Coulomb.
 Polarization charges : Total charges.
 Charge compensation  : None.
 Solution method      : On-the-fly selection.
 Cavity type          : VdW (van der Waals Surface) (Alpha=1.000).
 Cavity algorithm     : GePol (No added spheres)
                        Default sphere list used, NSphG=    9.
                        Lebedev-Laikov grids with approx.  5.0 points / Ang**2.
                        Smoothing algorithm: York/Karplus (Gamma=1.0000).
                        Polarization charges: spherical gaussians, with
                                              point-specific exponents (IZeta= 3).
                        Self-potential: point-specific (ISelfS= 7).
                        Self-field    : sphere-specific E.n sum rule (ISelfD= 2).
 1st derivatives      : Analytical E(r).r(x)/FMM algorithm (CHGder, D1EAlg=3).
                        Cavity 1st derivative terms included.
 Solvent              : TetraHydroFuran, Eps=   7.425700 Eps(inf)=   1.974025
 ------------------------------------------------------------------------------
 Spheres list:
 ISph  on   Nord     Re0    Alpha      Xe            Ye            Ze
    1   C      1    1.8500  1.000      0.501143      0.798417      0.256349
    2   O      2    2.2940  1.000      0.583931      1.111868      1.351945
    3   C      3    1.8500  1.000      0.532693      1.528810     -1.044982
    4   H      4    1.2000  1.000      0.380888      0.871780     -1.900725
    5   H      5    1.2000  1.000     -0.245065      2.298920     -1.018658
    6   H      6    1.2000  1.000      1.525429      1.991972     -1.080960
    7  Cl      7    2.3800  1.000     -2.357964     -0.608222     -0.038389
    8   C      8    1.8500  1.000      1.693055     -0.896981     -0.082722
    9   N      9    1.8900  1.000      2.484477     -1.757044     -0.133496
 ------------------------------------------------------------------------------
 GePol: Number of generator spheres                  =       9
 GePol: Total number of spheres                      =       9
[...]
 IRaf=         0 NMat=       1 IRICut=       1 DoRegI=T DoRafI=F ISym2E= 0 IDoP0=0 IntGTp=1.
 FoFCou: FMM=F IPFlag=           0 FMFlag=      100000 FMFlg1=         800
         NFxFlg=           0 DoJE=F BraDBF=F KetDBF=F FulRan=T
         wScrn=  0.000000 ICntrl=      2127 IOpCl=  0 I1Cent=           0 NGrid=           0
         NMat0=    1 NMatS0=      1 NMatT0=    0 NMatD0=    1 NMtDS0=    0 NMtDT0=    0
 Symmetry not used in FoFCou.
 Leave Link  703 at Wed Jan  8 03:18:08 2020, MaxMem=  4294967296 cpu:              36.7 elap:               2.9
 (Enter /home/cwagen/sw/g16/g16/l716.exe)
 Dipole        = 1.93206710D+00 3.85037651D+00-1.07308642D+00
 ***** Axes restored to original set *****
 -------------------------------------------------------------------
 Center     Atomic                   Forces (Hartrees/Bohr)
 Number     Number              X              Y              Z
 -------------------------------------------------------------------
      1        6           0.027583780    0.017953343    0.013016903
      2        8          -0.000346883   -0.000055498   -0.002883602
      3        6           0.001358416   -0.002524659   -0.001026981
      4        1          -0.000606251    0.000134260   -0.000067424
      5        1          -0.000653707    0.001218736    0.000652544
      6        1           0.000630822    0.000430589    0.000561903
      7       17          -0.000583382   -0.000108505   -0.000109379
      8        6          -0.047777014   -0.027313470   -0.012647516
      9        7           0.020394219    0.010265204    0.002503552
 -------------------------------------------------------------------
 Cartesian Forces:  Max     0.047777014 RMS     0.013595378
 Leave Link  716 at Wed Jan  8 03:18:08 2020, MaxMem=  4294967296 cpu:               0.9 elap:               0.1
 (Enter /home/cwagen/sw/g16/g16/l103.exe)

 GradGradGradGradGradGradGradGradGradGradGradGradGradGradGradGradGradGrad
 Berny optimization.
 Using GEDIIS/GDIIS optimizer.
 FormGI is forming the generalized inverse of G from B-inverse, IUseBI=4.
 Internal  Forces:  Max     0.033523351 RMS     0.007349544
 Search for a local minimum.
 Step number  41 out of a maximum of   41
 All quantities printed in internal units (Hartrees-Bohrs-Radians)
 RMS Force = .43575D-02 SwitMx=.10000D-02 MixMth= 1
 Mixed Optimization -- RFO/linear search
 Update second derivatives using D2CorX and points   11   20   21   22   23
                                                     24   25   26   27   28
                                                     29   30   31   32   33
                                                     34   35   36   37   38
                                                     39   40   41    9
 ITU=  0  0  0  0  0  0  0  0  0  0  0  0  0  0  0  0  0  0  0  0
 ITU=  0  0  0  0  0  0  0  0  0  0 -1 -1
 Use linear search instead of GDIIS.
 Skip linear search -- no minimum in search direction.
 Steepest descent instead of Quadratic search.
 Steepest descent step scaled to max of 0.05000.
 Iteration  1 RMS(Cart)=  0.00921473 RMS(Int)=  0.00002778
 Iteration  2 RMS(Cart)=  0.00002947 RMS(Int)=  0.00000022
 Iteration  3 RMS(Cart)=  0.00000000 RMS(Int)=  0.00000022
 Iteration  1 RMS(Cart)=  0.00000000 RMS(Int)=  0.00000000
 ITry= 1 IFail=0 DXMaxC= 4.37D-02 DCOld= 1.00D+10 DXMaxT= 3.23D-01 DXLimC= 3.00D+00 Rises=T
 Variable       Old X    -DE/DX   Delta X   Delta X   Delta X     New X
                                 (Linear)    (Quad)   (Total)
    R1        2.19161   0.00287   0.00000   0.00629   0.00629   2.19791
    R2        2.77518   0.00014   0.00000   0.00031   0.00031   2.77548
    R3        6.04712   0.00020   0.00000   0.00000   0.00000   6.04712
    R4        3.96842  -0.03352   0.00000   0.00000   0.00000   3.96842
    R5        2.05776   0.00002   0.00000   0.00004   0.00004   2.05779
    R6        2.06841   0.00000   0.00000   0.00000   0.00000   2.06841
    R7        2.07582  -0.00006   0.00000  -0.00013  -0.00013   2.07569
    R8        2.19251   0.02280   0.00000   0.05000   0.05000   2.24251
    A1        2.47056   0.00002   0.00000   0.00004   0.00004   2.47060
    A2        1.75201  -0.00001   0.00000  -0.00002  -0.00002   1.75199
    A3        1.95547   0.00019   0.00000   0.00041   0.00041   1.95588
    A4        1.50251  -0.00034   0.00000  -0.00074  -0.00074   1.50177
    A5        1.84419  -0.00033   0.00000  -0.00072  -0.00072   1.84347
    A6        1.58403   0.00140   0.00000   0.00307   0.00307   1.58710
    A7        1.92078  -0.00025   0.00000  -0.00055  -0.00055   1.92023
    A8        1.89642   0.00010   0.00000   0.00022   0.00022   1.89664
    A9        1.86197   0.00015   0.00000   0.00032   0.00032   1.86229
   A10        1.95624  -0.00063   0.00000  -0.00138  -0.00138   1.95487
   A11        1.91193   0.00000   0.00000   0.00000   0.00000   1.91193
   A12        1.91406   0.00067   0.00000   0.00147   0.00147   1.91554
   A13        3.21928  -0.00061   0.00000  -0.00134  -0.00134   3.21794
   A14        2.72911   0.00381   0.00000   0.00837   0.00837   2.73747
    D1       -2.47397   0.00006   0.00000   0.00014   0.00014  -2.47383
    D2       -0.32598  -0.00081   0.00000  -0.00178  -0.00178  -0.32775
    D3        1.73641   0.00011   0.00000   0.00025   0.00025   1.73666
    D4       -0.69734  -0.00038   0.00000  -0.00083  -0.00083  -0.69817
    D5        1.45065  -0.00125   0.00000  -0.00274  -0.00274   1.44791
    D6       -2.77014  -0.00033   0.00000  -0.00072  -0.00072  -2.77086
    D7        0.86806   0.00101   0.00000   0.00221   0.00221   0.87027
    D8        3.01605   0.00013   0.00000   0.00029   0.00029   3.01634
    D9       -1.20475   0.00106   0.00000   0.00232   0.00232  -1.20243
         Item               Value     Threshold  Converged?
 Maximum Force            0.022796     0.000450     NO 
 RMS     Force            0.004357     0.000300     NO 
 Maximum Displacement     0.043693     0.001800     NO 
 RMS     Displacement     0.009215     0.001200     NO 
 Predicted change in Energy=-1.281115D-03
 Optimization stopped.
    -- Number of steps exceeded,  NStep=  41
    -- Flag reset to prevent archiving.
                           ----------------------------
                           ! Non-Optimized Parameters !
                           ! (Angstroms and Degrees)  !
 --------------------------                            --------------------------
 ! Name  Definition              Value          Derivative Info.                !
 --------------------------------------------------------------------------------
 ! R1    R(1,2)                  1.1631         -DE/DX =    0.0029              !
 ! R2    R(1,3)                  1.4687         -DE/DX =    0.0001              !
 ! R3    R(1,7)                  3.2            -DE/DX =    0.0002              !
 ! R4    R(1,8)                  2.1            -DE/DX =   -0.0335              !
 ! R5    R(3,4)                  1.0889         -DE/DX =    0.0                 !
 ! R6    R(3,5)                  1.0946         -DE/DX =    0.0                 !
 ! R7    R(3,6)                  1.0984         -DE/DX =   -0.0001              !
 ! R8    R(8,9)                  1.1867         -DE/DX =    0.0228              !
 ! A1    A(2,1,3)              141.5549         -DE/DX =    0.0                 !
 ! A2    A(2,1,7)              100.3816         -DE/DX =    0.0                 !
 ! A3    A(2,1,8)              112.0635         -DE/DX =    0.0002              !
 ! A4    A(3,1,7)               86.0453         -DE/DX =   -0.0003              !
 ! A5    A(3,1,8)              105.6231         -DE/DX =   -0.0003              !
 ! A6    A(7,1,8)               90.9342         -DE/DX =    0.0014              !
 ! A7    A(1,3,4)              110.0211         -DE/DX =   -0.0002              !
 ! A8    A(1,3,5)              108.6694         -DE/DX =    0.0001              !
 ! A9    A(1,3,6)              106.7016         -DE/DX =    0.0001              !
 ! A10   A(4,3,5)              112.0056         -DE/DX =   -0.0006              !
 ! A11   A(4,3,6)              109.5456         -DE/DX =    0.0                 !
 ! A12   A(5,3,6)              109.7522         -DE/DX =    0.0007              !
 ! A13   L(1,8,9,6,-1)         184.3747         -DE/DX =   -0.0006              !
 ! A14   L(1,8,9,6,-2)         156.8457         -DE/DX =    0.0038              !
 ! D1    D(2,1,3,4)           -141.74           -DE/DX =    0.0001              !
 ! D2    D(2,1,3,5)            -18.7789         -DE/DX =   -0.0008              !
 ! D3    D(2,1,3,6)             99.5033         -DE/DX =    0.0001              !
 ! D4    D(7,1,3,4)            -40.002          -DE/DX =   -0.0004              !
 ! D5    D(7,1,3,5)             82.9591         -DE/DX =   -0.0013              !
 ! D6    D(7,1,3,6)           -158.7587         -DE/DX =   -0.0003              !
 ! D7    D(8,1,3,4)             49.8626         -DE/DX =    0.001               !
 ! D8    D(8,1,3,5)            172.8237         -DE/DX =    0.0001              !
 ! D9    D(8,1,3,6)            -68.8941         -DE/DX =    0.0011              !
 --------------------------------------------------------------------------------
 Largest change from initial coordinates is atom    4       0.154 Angstoms.
 GradGradGradGradGradGradGradGradGradGradGradGradGradGradGradGradGradGrad

 Leave Link  103 at Wed Jan  8 03:18:11 2020, MaxMem=  4294967296 cpu:              41.3 elap:               3.0
 (Enter /home/cwagen/sw/g16/g16/l202.exe)
                          Input orientation:                          
 ---------------------------------------------------------------------
 Center     Atomic      Atomic             Coordinates (Angstroms)
 Number     Number       Type             X           Y           Z
 ---------------------------------------------------------------------
      1          6           0       -0.016655   -0.635666   -0.383135
      2          8           0       -0.259112   -0.510730   -1.510357
      3          6           0       -0.415094   -1.408689    0.800228
      4          1           0       -0.404478   -0.771648    1.683295
      5          1           0       -1.403025   -1.843333    0.618201
      6          1           0        0.326010   -2.211052    0.916970
      7         17           0       -1.768642    1.741032    0.850495
      8          6           0        1.755601    0.353454    0.156077
      9          7           0        2.810603    0.836168    0.147088
 ---------------------------------------------------------------------
                    Distance matrix (angstroms):
                    1          2          3          4          5
     1  C    0.000000
     2  O    1.159752   0.000000
     3  C    1.468559   2.483841   0.000000
     4  H    2.106901   3.207589   1.088918   0.000000
     5  H    2.093598   2.759552   1.094558   1.811086   0.000000
     6  H    2.071118   3.020824   1.098477   1.786828   1.792775
     7  Cl   3.200000   3.594821   3.428609   2.977929   3.610444
     8  C    2.100000   2.753704   2.869146   2.874751   3.875094
     9  N    3.231226   3.739573   3.983855   3.909188   5.015609
                    6          7          8          9
     6  H    0.000000
     7  Cl   4.473361   0.000000
     8  C    3.033048   3.850698   0.000000
     9  N    4.006429   4.720493   1.160225   0.000000
 Stoichiometry    C3H3ClNO(1-)
 Framework group  C1[X(C3H3ClNO)]
 Deg. of freedom    21
 Full point group                 C1      NOp   1
 RotChk:  IX=0 Diff= 7.32D-16
 Largest Abelian subgroup         C1      NOp   1
 Largest concise Abelian subgroup C1      NOp   1
                         Standard orientation:                         
 ---------------------------------------------------------------------
 Center     Atomic      Atomic             Coordinates (Angstroms)
 Number     Number       Type             X           Y           Z
 ---------------------------------------------------------------------
      1          6           0        0.578761    0.920458    0.220083
      2          8           0        0.579678    1.198673    1.345969
      3          6           0        0.235961    1.466606   -1.099340
      4          1           0       -0.203276    0.689190   -1.722587
      5          1           0       -0.441310    2.315390   -0.961768
      6          1           0        1.175484    1.812749   -1.551151
      7         17           0       -2.179026   -0.691104    0.026487
      8          6           0        1.664474   -0.836827   -0.158306
      9          7           0        2.428562   -1.708480   -0.108163
 ---------------------------------------------------------------------
 Rotational constants (GHZ):           2.7382025           1.4702372           1.1812493
 Leave Link  202 at Wed Jan  8 03:18:11 2020, MaxMem=  4294967296 cpu:               1.3 elap:               0.1
 (Enter /home/cwagen/sw/g16/g16/l601.exe)
 Copying SCF densities to generalized density rwf, IOpCl= 0 IROHF=0.

 **********************************************************************

            Population analysis using the SCF density.

 **********************************************************************

 Orbital symmetries:
       Occupied  (A) (A) (A) (A) (A) (A) (A) (A) (A) (A) (A) (A)
                 (A) (A) (A) (A) (A) (A) (A) (A) (A) (A) (A) (A)
                 (A) (A) (A)
       Virtual   (A) (A) (A) (A) (A) (A) (A) (A) (A) (A) (A) (A)
                 (A) (A) (A) (A) (A) (A) (A) (A) (A) (A) (A) (A)
                 (A) (A) (A) (A) (A) (A) (A) (A) (A) (A) (A) (A)
                 (A) (A) (A) (A) (A) (A) (A) (A) (A) (A) (A) (A)
                 (A) (A) (A) (A) (A) (A) (A) (A) (A) (A) (A) (A)
                 (A) (A) (A) (A) (A) (A) (A) (A) (A) (A) (A) (A)
                 (A) (A) (A) (A) (A) (A) (A) (A) (A) (A) (A) (A)
                 (A) (A) (A) (A) (A) (A) (A) (A) (A) (A) (A) (A)
                 (A)
 The electronic state is 1-A.
 Alpha  occ. eigenvalues -- -101.41339 -19.23158 -14.30940 -10.36587 -10.21416
 Alpha  occ. eigenvalues --  -10.19174  -9.32665  -7.08464  -7.08439  -7.08435
 Alpha  occ. eigenvalues --   -1.13800  -0.87311  -0.78179  -0.66552  -0.56475
 Alpha  occ. eigenvalues --   -0.50395  -0.48774  -0.47918  -0.41030  -0.40576
 Alpha  occ. eigenvalues --   -0.37975  -0.31503  -0.31383  -0.29345  -0.21269
 Alpha  occ. eigenvalues --   -0.21135  -0.21116
 Alpha virt. eigenvalues --   -0.04548  -0.03491   0.02352   0.04515   0.04847
 Alpha virt. eigenvalues --    0.05785   0.06774   0.07607   0.08682   0.09590
 Alpha virt. eigenvalues --    0.09994   0.10309   0.10592   0.12817   0.13289
 Alpha virt. eigenvalues --    0.13664   0.14034   0.16678   0.16715   0.19984
 Alpha virt. eigenvalues --    0.20710   0.22555   0.24674   0.25054   0.25373
 Alpha virt. eigenvalues --    0.26001   0.28836   0.29472   0.30159   0.34231
 Alpha virt. eigenvalues --    0.36076   0.40226   0.49506   0.55935   0.59361
 Alpha virt. eigenvalues --    0.65831   0.67111   0.68905   0.69636   0.73373
 Alpha virt. eigenvalues --    0.74290   0.75071   0.77278   0.80583   0.83145
 Alpha virt. eigenvalues --    0.86217   0.86730   0.93711   0.97652   0.98757
 Alpha virt. eigenvalues --    0.99481   0.99875   1.00181   1.01467   1.02281
 Alpha virt. eigenvalues --    1.03459   1.09319   1.11295   1.15621   1.18758
 Alpha virt. eigenvalues --    1.24063   1.26759   1.28805   1.37478   1.40353
 Alpha virt. eigenvalues --    1.48952   1.52759   1.53558   1.56083   1.57730
 Alpha virt. eigenvalues --    1.60862   1.62926   1.77313   1.81645   1.84247
 Alpha virt. eigenvalues --    1.88347   1.99947   2.01624   2.04184   2.09023
 Alpha virt. eigenvalues --    2.21795   2.28593   2.37123   2.55549   2.59733
 Alpha virt. eigenvalues --    2.63871   2.66634   2.68411   2.92406   3.08418
 Alpha virt. eigenvalues --    3.18872   4.04301   4.19172   4.21003   4.37399
 Alpha virt. eigenvalues --    4.41575   4.48017
          Condensed to atoms (all electrons):
               1          2          3          4          5          6
     1  C    5.241992   0.551150  -0.074973  -0.070586  -0.102095   0.017471
     2  O    0.551150   7.816489  -0.042110   0.005122   0.003415  -0.003534
     3  C   -0.074973  -0.042110   5.871530   0.395751   0.400705   0.331736
     4  H   -0.070586   0.005122   0.395751   0.392775  -0.015837  -0.019689
     5  H   -0.102095   0.003415   0.400705  -0.015837   0.433903  -0.021141
     6  H    0.017471  -0.003534   0.331736  -0.019689  -0.021141   0.422485
     7  Cl   0.182538  -0.034091  -0.090534  -0.001122  -0.002828   0.002698
     8  C   -0.377870  -0.072769  -0.035536   0.006369   0.026818  -0.022500
     9  N   -0.012585  -0.000299  -0.013099   0.000045  -0.000149  -0.000313
               7          8          9
     1  C    0.182538  -0.377870  -0.012585
     2  O   -0.034091  -0.072769  -0.000299
     3  C   -0.090534  -0.035536  -0.013099
     4  H   -0.001122   0.006369   0.000045
     5  H   -0.002828   0.026818  -0.000149
     6  H    0.002698  -0.022500  -0.000313
     7  Cl  17.953423  -0.070981  -0.003413
     8  C   -0.070981   5.935806   0.659392
     9  N   -0.003413   0.659392   6.941284
 Mulliken charges:
               1
     1  C    0.644958
     2  O   -0.223374
     3  C   -0.743470
     4  H    0.307172
     5  H    0.277210
     6  H    0.292786
     7  Cl  -0.935692
     8  C   -0.048728
     9  N   -0.570862
 Sum of Mulliken charges =  -1.00000
 Mulliken charges with hydrogens summed into heavy atoms:
               1
     1  C    0.644958
     2  O   -0.223374
     3  C    0.133698
     7  Cl  -0.935692
     8  C   -0.048728
     9  N   -0.570862
 Electronic spatial extent (au):  <R**2>=           1010.4049
 Charge=             -1.0000 electrons
 Dipole moment (field-independent basis, Debye):
    X=              4.9108    Y=              9.7867    Z=             -2.7275  Tot=             11.2843
 Quadrupole moment (field-independent basis, Debye-Ang):
   XX=            -82.5950   YY=            -52.5938   ZZ=            -46.0295
   XY=              4.3926   XZ=             -0.0509   YZ=             -4.5961
 Traceless Quadrupole moment (field-independent basis, Debye-Ang):
   XX=            -22.1889   YY=              7.8123   ZZ=             14.3766
   XY=              4.3926   XZ=             -0.0509   YZ=             -4.5961
 Octapole moment (field-independent basis, Debye-Ang**2):
  XXX=             24.4500  YYY=             43.5982  ZZZ=             -3.1718  XYY=            -10.6656
  XXY=             51.7451  XXZ=              1.0684  XZZ=              3.3091  YZZ=              7.0991
  YYZ=             -4.4542  XYZ=             -3.5973
 Hexadecapole moment (field-independent basis, Debye-Ang**3):
 XXXX=          -1114.8303 YYYY=           -437.5168 ZZZZ=           -181.3716 XXXY=             46.9608
 XXXZ=              9.1913 YYYX=             39.1060 YYYZ=            -10.3936 ZZZX=              1.9057
 ZZZY=             -5.0500 XXYY=           -280.5942 XXZZ=           -181.5328 YYZZ=            -99.8638
 XXYZ=             -4.9909 YYXZ=              0.9887 ZZXY=              2.5622
 N-N= 2.210689092526D+02 E-N=-2.119533579786D+03  KE= 7.024027513541D+02
 No NMR shielding tensors so no spin-rotation constants.
 Leave Link  601 at Wed Jan  8 03:18:12 2020, MaxMem=  4294967296 cpu:              14.5 elap:               1.1
 (Enter /home/cwagen/sw/g16/g16/l9999.exe)


 THE WHOLE OF SCIENCE IS NOTHING MORE THAN A REFINEMENT OF EVERYDAY THINKING.
                                                              -- A. EINSTEIN
 Error termination request processed by link 9999.
 Error termination via Lnk1e in /home/cwagen/sw/g16/g16/l9999.exe at Wed Jan  8 03:18:13 2020.
 Job cpu time:       0 days  7 hours  4 minutes 33.5 seconds.
 Elapsed time:       0 days  0 hours 31 minutes 12.5 seconds.
 File lengths (MBytes):  RWF=     42 Int=      0 D2E=      0 Chk=      4 Scr=      1
