 Entering Gaussian System, Link 0=g16
 Input=scan_180_240.gjf
 Output=scan_180_240.out
 Initial command:
 /home/cwagen/sw/g16/g16/l1.exe "/scratch/users/cwagen/cwagen_scan_180_240/Gau-7610.inp" -scrdir="/scratch/users/cwagen/cwagen_scan_180_240/"
 Entering Link 1 = /home/cwagen/sw/g16/g16/l1.exe PID=      7611.
  
 Copyright (c) 1988,1990,1992,1993,1995,1998,2003,2009,2016,
            Gaussian, Inc.  All Rights Reserved.
  
 This is part of the Gaussian(R) 16 program.  It is based on
 the Gaussian(R) 09 system (copyright 2009, Gaussian, Inc.),
 the Gaussian(R) 03 system (copyright 2003, Gaussian, Inc.),
 the Gaussian(R) 98 system (copyright 1998, Gaussian, Inc.),
 the Gaussian(R) 94 system (copyright 1995, Gaussian, Inc.),
 the Gaussian 92(TM) system (copyright 1992, Gaussian, Inc.),
 the Gaussian 90(TM) system (copyright 1990, Gaussian, Inc.),
 the Gaussian 88(TM) system (copyright 1988, Gaussian, Inc.),
 the Gaussian 86(TM) system (copyright 1986, Carnegie Mellon
 University), and the Gaussian 82(TM) system (copyright 1983,
 Carnegie Mellon University). Gaussian is a federally registered
 trademark of Gaussian, Inc.
  
 This software contains proprietary and confidential information,
 including trade secrets, belonging to Gaussian, Inc.
  
 This software is provided under written license and may be
 used, copied, transmitted, or stored only in accord with that
 written license.
  
 The following legend is applicable only to US Government
 contracts under FAR:
  
                    RESTRICTED RIGHTS LEGEND
  
 Use, reproduction and disclosure by the US Government is
 subject to restrictions as set forth in subparagraphs (a)
 and (c) of the Commercial Computer Software - Restricted
 Rights clause in FAR 52.227-19.
  
 Gaussian, Inc.
 340 Quinnipiac St., Bldg. 40, Wallingford CT 06492
  
  
 ---------------------------------------------------------------
 Warning -- This program may not be used in any manner that
 competes with the business of Gaussian, Inc. or will provide
 assistance to any competitor of Gaussian, Inc.  The licensee
 of this program is prohibited from giving any competitor of
 Gaussian, Inc. access to this program.  By using this program,
 the user acknowledges that Gaussian, Inc. is engaged in the
 business of creating and licensing software in the field of
 computational chemistry and represents and warrants to the
 licensee that it is not a competitor of Gaussian, Inc. and that
 it will not use this program in any manner prohibited above.
 ---------------------------------------------------------------
  

 Cite this work as:
 Gaussian 16, Revision A.03,
 M. J. Frisch, G. W. Trucks, H. B. Schlegel, G. E. Scuseria, 
 M. A. Robb, J. R. Cheeseman, G. Scalmani, V. Barone, 
 G. A. Petersson, H. Nakatsuji, X. Li, M. Caricato, A. V. Marenich, 
 J. Bloino, B. G. Janesko, R. Gomperts, B. Mennucci, H. P. Hratchian, 
 J. V. Ortiz, A. F. Izmaylov, J. L. Sonnenberg, D. Williams-Young, 
 F. Ding, F. Lipparini, F. Egidi, J. Goings, B. Peng, A. Petrone, 
 T. Henderson, D. Ranasinghe, V. G. Zakrzewski, J. Gao, N. Rega, 
 G. Zheng, W. Liang, M. Hada, M. Ehara, K. Toyota, R. Fukuda, 
 J. Hasegawa, M. Ishida, T. Nakajima, Y. Honda, O. Kitao, H. Nakai, 
 T. Vreven, K. Throssell, J. A. Montgomery, Jr., J. E. Peralta, 
 F. Ogliaro, M. J. Bearpark, J. J. Heyd, E. N. Brothers, K. N. Kudin, 
 V. N. Staroverov, T. A. Keith, R. Kobayashi, J. Normand, 
 K. Raghavachari, A. P. Rendell, J. C. Burant, S. S. Iyengar, 
 J. Tomasi, M. Cossi, J. M. Millam, M. Klene, C. Adamo, R. Cammi, 
 J. W. Ochterski, R. L. Martin, K. Morokuma, O. Farkas, 
 J. B. Foresman, and D. J. Fox, Gaussian, Inc., Wallingford CT, 2016.
 
 ******************************************
 Gaussian 16:  AS64L-G16RevA.03 25-Dec-2016
                 7-Jan-2020 
 ******************************************
 %nprocshared=16
 Will use up to   16 processors via shared memory.
 %mem=32GB
 ----------------------------------------------------------------------
 #p opt=modredundant b3lyp/6-31+g(d) scrf=(smd, solvent=tetrahydrofuran
 )
 ----------------------------------------------------------------------
 1/18=120,19=15,26=3,38=1/1,3;
 2/9=110,12=2,17=6,18=5,40=1/2;
 3/5=1,6=6,7=11,11=2,25=1,30=1,70=32201,71=1,72=20,74=-5/1,2,3;
 4//1;
 5/5=2,38=5,53=20/2;
 6/7=2,8=2,9=2,10=2,28=1/1;
 7//1,2,3,16;
 1/18=20,19=15,26=3/3(2);
 2/9=110/2;
 99//99;
 2/9=110/2;
 3/5=1,6=6,7=11,11=2,25=1,30=1,70=32205,71=1,72=20,74=-5/1,2,3;
 4/5=5,16=3,69=1/1;
 5/5=2,38=5,53=20/2;
 7//1,2,3,16;
 1/18=20,19=15,26=3/3(-5);
 2/9=110/2;
 6/7=2,8=2,9=2,10=2,19=2,28=1/1;
 99/9=1/99;
 Leave Link    1 at Tue Jan  7 23:41:56 2020, MaxMem=  4294967296 cpu:               1.9 elap:               0.1
 (Enter /home/cwagen/sw/g16/g16/l101.exe)
 -----
 title
 -----
 Symbolic Z-matrix:
 Charge = -1 Multiplicity = 1
 6                    -0.19426  -0.292    -0.21291 
 8                    -0.25532  -0.66526  -1.45426 
 6                    -0.33095  -1.45422   0.81632 
 1                    -0.18039  -1.13044   1.85373 
 1                    -1.34067  -1.87301   0.71427 
 1                     0.39707  -2.23395   0.57058 
 17                   -1.27199   1.07519   0.24456 
 6                     2.03083   0.48717   0.23638 
 7                     3.1654    0.76747   0.26668 
 
 Add virtual bond connecting atoms C8         and C1         Dist= 4.54D+00.
 The following ModRedundant input section has been read:
 B       1       7 F                                                           
 B       1       8 F                                                           
 
 ITRead=  0  0  0  0  0  0  0  0  0
 MicOpt= -1 -1 -1 -1 -1 -1 -1 -1 -1
 NAtoms=      9 NQM=        9 NQMF=       0 NMMI=      0 NMMIF=      0
                NMic=       0 NMicF=      0.
                    Isotopes and Nuclear Properties:
 (Nuclear quadrupole moments (NQMom) in fm**2, nuclear magnetic moments (NMagM)
  in nuclear magnetons)

  Atom         1           2           3           4           5           6           7           8           9
 IAtWgt=          12          16          12           1           1           1          35          12          14
 AtmWgt=  12.0000000  15.9949146  12.0000000   1.0078250   1.0078250   1.0078250  34.9688527  12.0000000  14.0030740
 NucSpn=           0           0           0           1           1           1           3           0           2
 AtZEff=   0.0000000   0.0000000   0.0000000   0.0000000   0.0000000   0.0000000   0.0000000   0.0000000   0.0000000
 NQMom=    0.0000000   0.0000000   0.0000000   0.0000000   0.0000000   0.0000000  -8.1650000   0.0000000   2.0440000
 NMagM=    0.0000000   0.0000000   0.0000000   2.7928460   2.7928460   2.7928460   0.8218740   0.0000000   0.4037610
 AtZNuc=   6.0000000   8.0000000   6.0000000   1.0000000   1.0000000   1.0000000  17.0000000   6.0000000   7.0000000
 Leave Link  101 at Tue Jan  7 23:41:57 2020, MaxMem=  4294967296 cpu:               7.6 elap:               0.6
 (Enter /home/cwagen/sw/g16/g16/l103.exe)

 GradGradGradGradGradGradGradGradGradGradGradGradGradGradGradGradGradGrad
 Berny optimization.
 Initialization pass.
                           ----------------------------
                           !    Initial Parameters    !
                           ! (Angstroms and Degrees)  !
 --------------------------                            --------------------------
 ! Name  Definition              Value          Derivative Info.                !
 --------------------------------------------------------------------------------
 ! R1    R(1,2)                  1.2977         estimate D2E/DX2                !
 ! R2    R(1,3)                  1.5584         estimate D2E/DX2                !
 ! R3    R(1,7)                  1.8            Frozen                          !
 ! R4    R(1,8)                  2.4            Frozen                          !
 ! R5    R(3,4)                  1.0971         estimate D2E/DX2                !
 ! R6    R(3,5)                  1.0979         estimate D2E/DX2                !
 ! R7    R(3,6)                  1.0947         estimate D2E/DX2                !
 ! R8    R(8,9)                  1.1691         estimate D2E/DX2                !
 ! A1    A(2,1,3)              114.4006         estimate D2E/DX2                !
 ! A2    A(2,1,7)              115.6846         estimate D2E/DX2                !
 ! A3    A(2,1,8)              108.426          estimate D2E/DX2                !
 ! A4    A(3,1,7)              110.248          estimate D2E/DX2                !
 ! A5    A(3,1,8)              101.5248         estimate D2E/DX2                !
 ! A6    A(7,1,8)              105.1256         estimate D2E/DX2                !
 ! A7    A(1,3,4)              113.1005         estimate D2E/DX2                !
 ! A8    A(1,3,5)              107.683          estimate D2E/DX2                !
 ! A9    A(1,3,6)              108.9421         estimate D2E/DX2                !
 ! A10   A(4,3,5)              109.0662         estimate D2E/DX2                !
 ! A11   A(4,3,6)              109.3417         estimate D2E/DX2                !
 ! A12   A(5,3,6)              108.6067         estimate D2E/DX2                !
 ! A13   L(1,8,9,6,-1)         177.2697         estimate D2E/DX2                !
 ! A14   L(1,8,9,6,-2)         165.0922         estimate D2E/DX2                !
 ! D1    D(2,1,3,4)            174.4714         estimate D2E/DX2                !
 ! D2    D(2,1,3,5)            -64.9488         estimate D2E/DX2                !
 ! D3    D(2,1,3,6)             52.6633         estimate D2E/DX2                !
 ! D4    D(7,1,3,4)            -53.1046         estimate D2E/DX2                !
 ! D5    D(7,1,3,5)             67.4752         estimate D2E/DX2                !
 ! D6    D(7,1,3,6)           -174.9127         estimate D2E/DX2                !
 ! D7    D(8,1,3,4)             57.938          estimate D2E/DX2                !
 ! D8    D(8,1,3,5)            178.5177         estimate D2E/DX2                !
 ! D9    D(8,1,3,6)            -63.8702         estimate D2E/DX2                !
 --------------------------------------------------------------------------------
 Trust Radius=3.00D-01 FncErr=1.00D-07 GrdErr=1.00D-06 EigMax=2.50D+02 EigMin=1.00D-04
 Number of steps in this run=     41 maximum allowed number of steps=    100.
 GradGradGradGradGradGradGradGradGradGradGradGradGradGradGradGradGradGrad

 Leave Link  103 at Tue Jan  7 23:41:57 2020, MaxMem=  4294967296 cpu:               0.9 elap:               0.1
 (Enter /home/cwagen/sw/g16/g16/l202.exe)
                          Input orientation:                          
 ---------------------------------------------------------------------
 Center     Atomic      Atomic             Coordinates (Angstroms)
 Number     Number       Type             X           Y           Z
 ---------------------------------------------------------------------
      1          6           0       -0.194263   -0.291999   -0.212908
      2          8           0       -0.255321   -0.665256   -1.454255
      3          6           0       -0.330945   -1.454221    0.816316
      4          1           0       -0.180394   -1.130438    1.853734
      5          1           0       -1.340665   -1.873010    0.714272
      6          1           0        0.397068   -2.233949    0.570583
      7         17           0       -1.271993    1.075194    0.244564
      8          6           0        2.030829    0.487169    0.236382
      9          7           0        3.165400    0.767467    0.266685
 ---------------------------------------------------------------------
                    Distance matrix (angstroms):
                    1          2          3          4          5
     1  C    0.000000
     2  O    1.297687   0.000000
     3  C    1.558443   2.404928   0.000000
     4  H    2.230287   3.341377   1.097150   0.000000
     5  H    2.161827   2.709087   1.097876   1.787740   0.000000
     6  H    2.175937   2.643176   1.094698   1.788205   1.780629
     7  Cl   1.800000   2.636053   2.758698   2.940379   2.986176
     8  C    2.400000   3.068032   3.111800   3.181507   4.143163
     9  N    3.555252   4.088479   4.178806   4.161143   5.241858
                    6          7          8          9
     6  H    0.000000
     7  Cl   3.720548   0.000000
     8  C    3.191450   3.354770   0.000000
     9  N    4.094449   4.448106   1.169075   0.000000
 Stoichiometry    C3H3ClNO(1-)
 Framework group  C1[X(C3H3ClNO)]
 Deg. of freedom    21
 Full point group                 C1      NOp   1
 Largest Abelian subgroup         C1      NOp   1
 Largest concise Abelian subgroup C1      NOp   1
                         Standard orientation:                         
 ---------------------------------------------------------------------
 Center     Atomic      Atomic             Coordinates (Angstroms)
 Number     Number       Type             X           Y           Z
 ---------------------------------------------------------------------
      1          6           0       -0.353707    0.394175    0.210379
      2          8           0       -0.491497    0.879766    1.405873
      3          6           0       -0.535298    1.437336   -0.933118
      4          1           0       -0.320095    1.027500   -1.927833
      5          1           0       -1.576559    1.784265   -0.905766
      6          1           0        0.122531    2.291382   -0.742776
      7         17           0       -1.308025   -1.090447   -0.143423
      8          6           0        1.939133   -0.249434   -0.087366
      9          7           0        3.091680   -0.442304   -0.053112
 ---------------------------------------------------------------------
 Rotational constants (GHZ):           3.5680947           1.6953425           1.4680774
 Leave Link  202 at Tue Jan  7 23:41:57 2020, MaxMem=  4294967296 cpu:               2.2 elap:               0.2
 (Enter /home/cwagen/sw/g16/g16/l301.exe)
 Standard basis: 6-31+G(d) (6D, 7F)
 Ernie: Thresh=  0.10000D-02 Tol=  0.10000D-05 Strict=F.
 There are   124 symmetry adapted cartesian basis functions of A   symmetry.
 There are   124 symmetry adapted basis functions of A   symmetry.
   124 basis functions,   228 primitive gaussians,   124 cartesian basis functions
    27 alpha electrons       27 beta electrons
       nuclear repulsion energy       241.7368435031 Hartrees.
 IExCor=  402 DFT=T Ex+Corr=B3LYP ExCW=0 ScaHFX=  0.200000
 ScaDFX=  0.800000  0.720000  1.000000  0.810000 ScalE2=  1.000000  1.000000
 IRadAn=      5 IRanWt=     -1 IRanGd=            0 ICorTp=0 IEmpDi=  4
 NAtoms=    9 NActive=    9 NUniq=    9 SFac= 1.00D+00 NAtFMM=   60 NAOKFM=F Big=F
 Integral buffers will be    131072 words long.
 Raffenetti 2 integral format.
 Two-electron integral symmetry is turned on.
 ------------------------------------------------------------------------------
 Polarizable Continuum Model (PCM)
 =================================
 Model                : PCM.
 Atomic radii         : SMD-Coulomb.
 Polarization charges : Total charges.
 Charge compensation  : None.
 Solution method      : On-the-fly selection.
 Cavity type          : VdW (van der Waals Surface) (Alpha=1.000).
 Cavity algorithm     : GePol (No added spheres)
                        Default sphere list used, NSphG=    9.
                        Lebedev-Laikov grids with approx.  5.0 points / Ang**2.
                        Smoothing algorithm: York/Karplus (Gamma=1.0000).
                        Polarization charges: spherical gaussians, with
                                              point-specific exponents (IZeta= 3).
                        Self-potential: point-specific (ISelfS= 7).
                        Self-field    : sphere-specific E.n sum rule (ISelfD= 2).
 1st derivatives      : Analytical E(r).r(x)/FMM algorithm (CHGder, D1EAlg=3).
                        Cavity 1st derivative terms included.
 Solvent              : TetraHydroFuran, Eps=   7.425700 Eps(inf)=   1.974025
 ------------------------------------------------------------------------------
 Spheres list:
 ISph  on   Nord     Re0    Alpha      Xe            Ye            Ze
    1   C      1    1.8500  1.000     -0.353707      0.394175      0.210379
    2   O      2    2.2940  1.000     -0.491497      0.879766      1.405873
    3   C      3    1.8500  1.000     -0.535298      1.437336     -0.933118
    4   H      4    1.2000  1.000     -0.320095      1.027500     -1.927833
    5   H      5    1.2000  1.000     -1.576559      1.784265     -0.905766
    6   H      6    1.2000  1.000      0.122531      2.291382     -0.742776
    7  Cl      7    2.3800  1.000     -1.308025     -1.090447     -0.143423
    8   C      8    1.8500  1.000      1.939133     -0.249434     -0.087366
    9   N      9    1.8900  1.000      3.091680     -0.442304     -0.053112
 ------------------------------------------------------------------------------
 GePol: Number of generator spheres                  =       9
 GePol: Total number of spheres                      =       9
 GePol: Number of exposed spheres                    =       9 (100.00%)
 GePol: Number of points                             =    1196
 GePol: Average weight of points                     =       0.14
 GePol: Minimum weight of points                     =   0.13D-10
 GePol: Maximum weight of points                     =    0.18138
 GePol: Number of points with low weight             =      31
 GePol: Fraction of low-weight points (<1% of avg)   =       2.59%
 GePol: Cavity surface area                          =    162.241 Ang**2
 GePol: Cavity volume                                =    147.407 Ang**3
 ------------------------------------------------------------------------------
 Atomic radii for non-electrostatic terms: SMD-CDS.
 ------------------------------------------------------------------------------
 PCM non-electrostatic energy =         0.0008583650 Hartrees.
 Nuclear repulsion after PCM non-electrostatic terms =      241.7377018681 Hartrees.
 Leave Link  301 at Tue Jan  7 23:41:57 2020, MaxMem=  4294967296 cpu:               2.4 elap:               0.2
 (Enter /home/cwagen/sw/g16/g16/l302.exe)
 NPDir=0 NMtPBC=     1 NCelOv=     1 NCel=       1 NClECP=     1 NCelD=      1
         NCelK=      1 NCelE2=     1 NClLst=     1 CellRange=     0.0.
 One-electron integrals computed using PRISM.
 One-electron integral symmetry used in STVInt
 NBasis=   124 RedAO= T EigKep=  8.40D-05  NBF=   124
 NBsUse=   124 1.00D-06 EigRej= -1.00D+00 NBFU=   124
 Precomputing XC quadrature grid using
 IXCGrd= 4 IRadAn=           5 IRanWt=          -1 IRanGd=           0 AccXCQ= 0.00D+00.
 Generated NRdTot=       0 NPtTot=           0 NUsed=           0 NTot=          32
 NSgBfM=   124   124   124   124   124 MxSgAt=     9 MxSgA2=     9.
 Leave Link  302 at Tue Jan  7 23:41:59 2020, MaxMem=  4294967296 cpu:              25.1 elap:               2.0
 (Enter /home/cwagen/sw/g16/g16/l303.exe)
 DipDrv:  MaxL=1.
 Leave Link  303 at Tue Jan  7 23:41:59 2020, MaxMem=  4294967296 cpu:               2.8 elap:               0.3
 (Enter /home/cwagen/sw/g16/g16/l401.exe)
 ExpMin= 4.38D-02 ExpMax= 2.52D+04 ExpMxC= 3.78D+03 IAcc=3 IRadAn=         5 AccDes= 0.00D+00
 Harris functional with IExCor=  402 and IRadAn=       5 diagonalized for initial guess.
 HarFok:  IExCor=  402 AccDes= 0.00D+00 IRadAn=         5 IDoV= 1 UseB2=F ITyADJ=14
 ICtDFT=  3500011 ScaDFX=  1.000000  1.000000  1.000000  1.000000
 FoFCou: FMM=F IPFlag=           0 FMFlag=      100000 FMFlg1=           0
         NFxFlg=           0 DoJE=T BraDBF=F KetDBF=T FulRan=T
         wScrn=  0.000000 ICntrl=       500 IOpCl=  0 I1Cent=   200000004 NGrid=           0
         NMat0=    1 NMatS0=      1 NMatT0=    0 NMatD0=    1 NMtDS0=    0 NMtDT0=    0
 Petite list used in FoFCou.
 Harris En= -706.404553261905    
 JPrj=0 DoOrth=F DoCkMO=F.
 Leave Link  401 at Tue Jan  7 23:42:01 2020, MaxMem=  4294967296 cpu:              23.1 elap:               1.7
 (Enter /home/cwagen/sw/g16/g16/l502.exe)
 Keep R1 ints in memory in canonical form, NReq=45236517.
 FoFCou: FMM=F IPFlag=           0 FMFlag=           0 FMFlg1=           0
         NFxFlg=           0 DoJE=F BraDBF=F KetDBF=F FulRan=T
         wScrn=  0.000000 ICntrl=       600 IOpCl=  0 I1Cent=           0 NGrid=           0
         NMat0=    1 NMatS0=   7750 NMatT0=    0 NMatD0=    1 NMtDS0=    0 NMtDT0=    0
 Symmetry not used in FoFCou.
 Two-electron integral symmetry not used.
 Closed shell SCF:
 Using DIIS extrapolation, IDIIS=  1040.
 NGot=  4294967296 LenX=  4264898079 LenY=  4264882262
 Requested convergence on RMS density matrix=1.00D-08 within 128 cycles.
 Requested convergence on MAX density matrix=1.00D-06.
 Requested convergence on             energy=1.00D-06.
 No special actions if energy rises.

 Cycle   1  Pass 1  IDiag  1:
 Inv3:  Mode=1 IEnd=     4291248.
 Iteration    1 A*A^-1 deviation from unit magnitude is 3.77D-15 for   1182.
 Iteration    1 A*A^-1 deviation from orthogonality  is 1.48D-15 for   1182    939.
 Iteration    1 A^-1*A deviation from unit magnitude is 3.77D-15 for   1186.
 Iteration    1 A^-1*A deviation from orthogonality  is 3.33D-15 for    346    327.
 E= -706.148913575375    
 DIIS: error= 2.69D-02 at cycle   1 NSaved=   1.
 NSaved= 1 IEnMin= 1 EnMin= -706.148913575375     IErMin= 1 ErrMin= 2.69D-02
 ErrMax= 2.69D-02  0.00D+00 EMaxC= 1.00D-01 BMatC= 2.54D-01 BMatP= 2.54D-01
 IDIUse=3 WtCom= 7.31D-01 WtEn= 2.69D-01
 Coeff-Com:  0.100D+01
 Coeff-En:   0.100D+01
 Coeff:      0.100D+01
 Gap=     0.311 Goal=   None    Shift=    0.000
 GapD=    0.311 DampG=1.000 DampE=0.500 DampFc=0.5000 IDamp=-1.
 Damping current iteration by 5.00D-01
 RMSDP=1.97D-02 MaxDP=8.14D-01              OVMax= 4.95D-01

 Cycle   2  Pass 1  IDiag  1:
 E= -706.067696275433     Delta-E=        0.081217299941 Rises=F Damp=T
 DIIS: error= 2.61D-02 at cycle   2 NSaved=   2.
 NSaved= 2 IEnMin= 1 EnMin= -706.148913575375     IErMin= 2 ErrMin= 2.61D-02
 ErrMax= 2.61D-02  0.00D+00 EMaxC= 1.00D-01 BMatC= 1.38D-01 BMatP= 2.54D-01
 IDIUse=3 WtCom= 7.39D-01 WtEn= 2.61D-01
 Coeff-Com:  0.408D+00 0.592D+00
 Coeff-En:   0.599D+00 0.401D+00
 Coeff:      0.458D+00 0.542D+00
 Gap=     0.145 Goal=   None    Shift=    0.000
 RMSDP=7.23D-03 MaxDP=1.37D-01 DE= 8.12D-02 OVMax= 3.94D-01

 Cycle   3  Pass 1  IDiag  1:
 E= -706.327234333433     Delta-E=       -0.259538058000 Rises=F Damp=F
 DIIS: error= 1.43D-02 at cycle   3 NSaved=   3.
 NSaved= 3 IEnMin= 3 EnMin= -706.327234333433     IErMin= 3 ErrMin= 1.43D-02
 ErrMax= 1.43D-02  0.00D+00 EMaxC= 1.00D-01 BMatC= 5.74D-02 BMatP= 1.38D-01
 IDIUse=3 WtCom= 8.57D-01 WtEn= 1.43D-01
 Coeff-Com:  0.193D+00 0.371D+00 0.435D+00
 Coeff-En:   0.000D+00 0.000D+00 0.100D+01
 Coeff:      0.166D+00 0.318D+00 0.516D+00
 Gap=     0.212 Goal=   None    Shift=    0.000
 RMSDP=4.85D-03 MaxDP=2.42D-01 DE=-2.60D-01 OVMax= 1.31D-01

 Cycle   4  Pass 1  IDiag  1:
 E= -706.380454955874     Delta-E=       -0.053220622442 Rises=F Damp=F
 DIIS: error= 3.88D-03 at cycle   4 NSaved=   4.
 NSaved= 4 IEnMin= 4 EnMin= -706.380454955874     IErMin= 4 ErrMin= 3.88D-03
 ErrMax= 3.88D-03  0.00D+00 EMaxC= 1.00D-01 BMatC= 5.92D-03 BMatP= 5.74D-02
 IDIUse=3 WtCom= 9.61D-01 WtEn= 3.88D-02
 Coeff-Com:  0.218D-01 0.537D-01 0.254D+00 0.670D+00
 Coeff-En:   0.000D+00 0.000D+00 0.598D-01 0.940D+00
 Coeff:      0.210D-01 0.516D-01 0.247D+00 0.681D+00
 Gap=     0.203 Goal=   None    Shift=    0.000
 RMSDP=8.37D-04 MaxDP=1.58D-02 DE=-5.32D-02 OVMax= 2.78D-02

 Cycle   5  Pass 1  IDiag  1:
 E= -706.385172246338     Delta-E=       -0.004717290463 Rises=F Damp=F
 DIIS: error= 2.11D-03 at cycle   5 NSaved=   5.
 NSaved= 5 IEnMin= 5 EnMin= -706.385172246338     IErMin= 5 ErrMin= 2.11D-03
 ErrMax= 2.11D-03  0.00D+00 EMaxC= 1.00D-01 BMatC= 8.38D-04 BMatP= 5.92D-03
 IDIUse=3 WtCom= 9.79D-01 WtEn= 2.11D-02
 Coeff-Com: -0.276D-03 0.621D-02 0.124D+00 0.428D+00 0.442D+00
 Coeff-En:   0.000D+00 0.000D+00 0.000D+00 0.259D-01 0.974D+00
 Coeff:     -0.271D-03 0.608D-02 0.121D+00 0.420D+00 0.453D+00
 Gap=     0.198 Goal=   None    Shift=    0.000
 RMSDP=4.53D-04 MaxDP=2.07D-02 DE=-4.72D-03 OVMax= 1.18D-02

 Cycle   6  Pass 1  IDiag  1:
 E= -706.385811135769     Delta-E=       -0.000638889432 Rises=F Damp=F
 DIIS: error= 8.20D-04 at cycle   6 NSaved=   6.
 NSaved= 6 IEnMin= 6 EnMin= -706.385811135769     IErMin= 6 ErrMin= 8.20D-04
 ErrMax= 8.20D-04  0.00D+00 EMaxC= 1.00D-01 BMatC= 1.25D-04 BMatP= 8.38D-04
 IDIUse=3 WtCom= 9.92D-01 WtEn= 8.20D-03
 Coeff-Com: -0.134D-02-0.163D-02 0.458D-01 0.166D+00 0.301D+00 0.491D+00
 Coeff-En:   0.000D+00 0.000D+00 0.000D+00 0.000D+00 0.143D+00 0.857D+00
 Coeff:     -0.133D-02-0.162D-02 0.454D-01 0.164D+00 0.300D+00 0.494D+00
 Gap=     0.199 Goal=   None    Shift=    0.000
 RMSDP=9.87D-05 MaxDP=2.64D-03 DE=-6.39D-04 OVMax= 3.52D-03

 Cycle   7  Pass 1  IDiag  1:
 E= -706.385922234920     Delta-E=       -0.000111099150 Rises=F Damp=F
 DIIS: error= 1.35D-04 at cycle   7 NSaved=   7.
 NSaved= 7 IEnMin= 7 EnMin= -706.385922234920     IErMin= 7 ErrMin= 1.35D-04
 ErrMax= 1.35D-04  0.00D+00 EMaxC= 1.00D-01 BMatC= 4.45D-06 BMatP= 1.25D-04
 IDIUse=3 WtCom= 9.99D-01 WtEn= 1.35D-03
 Coeff-Com:  0.697D-04-0.223D-02 0.712D-02 0.212D-01 0.810D-01 0.204D+00
 Coeff-Com:  0.688D+00
 Coeff-En:   0.000D+00 0.000D+00 0.000D+00 0.000D+00 0.000D+00 0.000D+00
 Coeff-En:   0.100D+01
 Coeff:      0.696D-04-0.223D-02 0.711D-02 0.212D-01 0.809D-01 0.204D+00
 Coeff:      0.689D+00
 Gap=     0.199 Goal=   None    Shift=    0.000
 RMSDP=3.77D-05 MaxDP=8.24D-04 DE=-1.11D-04 OVMax= 7.86D-04

 Cycle   8  Pass 1  IDiag  1:
 E= -706.385926301130     Delta-E=       -0.000004066210 Rises=F Damp=F
 DIIS: error= 3.73D-05 at cycle   8 NSaved=   8.
 NSaved= 8 IEnMin= 8 EnMin= -706.385926301130     IErMin= 8 ErrMin= 3.73D-05
 ErrMax= 3.73D-05  0.00D+00 EMaxC= 1.00D-01 BMatC= 3.65D-07 BMatP= 4.45D-06
 IDIUse=1 WtCom= 1.00D+00 WtEn= 0.00D+00
 Coeff-Com:  0.207D-03-0.117D-02 0.216D-02 0.436D-02 0.271D-01 0.748D-01
 Coeff-Com:  0.312D+00 0.581D+00
 Coeff:      0.207D-03-0.117D-02 0.216D-02 0.436D-02 0.271D-01 0.748D-01
 Coeff:      0.312D+00 0.581D+00
 Gap=     0.199 Goal=   None    Shift=    0.000
 RMSDP=8.64D-06 MaxDP=1.91D-04 DE=-4.07D-06 OVMax= 1.82D-04

 Cycle   9  Pass 1  IDiag  1:
 E= -706.385926592375     Delta-E=       -0.000000291245 Rises=F Damp=F
 DIIS: error= 1.44D-05 at cycle   9 NSaved=   9.
 NSaved= 9 IEnMin= 9 EnMin= -706.385926592375     IErMin= 9 ErrMin= 1.44D-05
 ErrMax= 1.44D-05  0.00D+00 EMaxC= 1.00D-01 BMatC= 6.67D-08 BMatP= 3.65D-07
 IDIUse=1 WtCom= 1.00D+00 WtEn= 0.00D+00
 Coeff-Com:  0.177D-03-0.331D-03-0.137D-03-0.214D-02-0.492D-03 0.233D-02
 Coeff-Com:  0.364D-01 0.298D+00 0.667D+00
 Coeff:      0.177D-03-0.331D-03-0.137D-03-0.214D-02-0.492D-03 0.233D-02
 Coeff:      0.364D-01 0.298D+00 0.667D+00
 Gap=     0.199 Goal=   None    Shift=    0.000
 RMSDP=3.61D-06 MaxDP=7.69D-05 DE=-2.91D-07 OVMax= 1.08D-04

 Cycle  10  Pass 1  IDiag  1:
 E= -706.385926665508     Delta-E=       -0.000000073133 Rises=F Damp=F
 DIIS: error= 2.43D-06 at cycle  10 NSaved=  10.
 NSaved=10 IEnMin=10 EnMin= -706.385926665508     IErMin=10 ErrMin= 2.43D-06
 ErrMax= 2.43D-06  0.00D+00 EMaxC= 1.00D-01 BMatC= 1.68D-09 BMatP= 6.67D-08
 IDIUse=1 WtCom= 1.00D+00 WtEn= 0.00D+00
 Coeff-Com:  0.411D-04-0.441D-04-0.492D-04-0.509D-03-0.132D-02-0.335D-02
 Coeff-Com: -0.109D-01 0.300D-01 0.174D+00 0.812D+00
 Coeff:      0.411D-04-0.441D-04-0.492D-04-0.509D-03-0.132D-02-0.335D-02
 Coeff:     -0.109D-01 0.300D-01 0.174D+00 0.812D+00
 Gap=     0.199 Goal=   None    Shift=    0.000
 RMSDP=9.18D-07 MaxDP=2.87D-05 DE=-7.31D-08 OVMax= 1.54D-05

 Cycle  11  Pass 1  IDiag  1:
 E= -706.385926667173     Delta-E=       -0.000000001665 Rises=F Damp=F
 DIIS: error= 5.08D-07 at cycle  11 NSaved=  11.
 NSaved=11 IEnMin=11 EnMin= -706.385926667173     IErMin=11 ErrMin= 5.08D-07
 ErrMax= 5.08D-07  0.00D+00 EMaxC= 1.00D-01 BMatC= 7.59D-11 BMatP= 1.68D-09
 IDIUse=1 WtCom= 1.00D+00 WtEn= 0.00D+00
 Coeff-Com:  0.648D-05 0.324D-06-0.102D-05-0.663D-04-0.419D-03-0.128D-02
 Coeff-Com: -0.561D-02-0.671D-02 0.285D-01 0.267D+00 0.719D+00
 Coeff:      0.648D-05 0.324D-06-0.102D-05-0.663D-04-0.419D-03-0.128D-02
 Coeff:     -0.561D-02-0.671D-02 0.285D-01 0.267D+00 0.719D+00
 Gap=     0.199 Goal=   None    Shift=    0.000
 RMSDP=1.71D-07 MaxDP=6.12D-06 DE=-1.67D-09 OVMax= 5.37D-06

 Cycle  12  Pass 1  IDiag  1:
 E= -706.385926667250     Delta-E=       -0.000000000076 Rises=F Damp=F
 DIIS: error= 1.48D-07 at cycle  12 NSaved=  12.
 NSaved=12 IEnMin=12 EnMin= -706.385926667250     IErMin=12 ErrMin= 1.48D-07
 ErrMax= 1.48D-07  0.00D+00 EMaxC= 1.00D-01 BMatC= 9.26D-12 BMatP= 7.59D-11
 IDIUse=1 WtCom= 1.00D+00 WtEn= 0.00D+00
 Coeff-Com: -0.365D-07 0.254D-05 0.701D-05 0.139D-04-0.706D-04-0.286D-03
 Coeff-Com: -0.165D-02-0.545D-02-0.856D-04 0.596D-01 0.328D+00 0.620D+00
 Coeff:     -0.365D-07 0.254D-05 0.701D-05 0.139D-04-0.706D-04-0.286D-03
 Coeff:     -0.165D-02-0.545D-02-0.856D-04 0.596D-01 0.328D+00 0.620D+00
 Gap=     0.199 Goal=   None    Shift=    0.000
 RMSDP=6.91D-08 MaxDP=2.93D-06 DE=-7.64D-11 OVMax= 1.36D-06

 Cycle  13  Pass 1  IDiag  1:
 E= -706.385926667261     Delta-E=       -0.000000000012 Rises=F Damp=F
 DIIS: error= 4.22D-08 at cycle  13 NSaved=  13.
 NSaved=13 IEnMin=13 EnMin= -706.385926667261     IErMin=13 ErrMin= 4.22D-08
 ErrMax= 4.22D-08  0.00D+00 EMaxC= 1.00D-01 BMatC= 4.03D-13 BMatP= 9.26D-12
 IDIUse=1 WtCom= 1.00D+00 WtEn= 0.00D+00
 Coeff-Com: -0.610D-06 0.669D-06 0.154D-05 0.575D-05 0.210D-04 0.549D-04
 Coeff-Com:  0.166D-03-0.800D-03-0.340D-02-0.130D-01 0.126D-01 0.162D+00
 Coeff-Com:  0.843D+00
 Coeff:     -0.610D-06 0.669D-06 0.154D-05 0.575D-05 0.210D-04 0.549D-04
 Coeff:      0.166D-03-0.800D-03-0.340D-02-0.130D-01 0.126D-01 0.162D+00
 Coeff:      0.843D+00
 Gap=     0.199 Goal=   None    Shift=    0.000
 RMSDP=1.37D-08 MaxDP=2.33D-07 DE=-1.16D-11 OVMax= 6.07D-07

 Cycle  14  Pass 1  IDiag  1:
 E= -706.385926667261     Delta-E=        0.000000000001 Rises=F Damp=F
 DIIS: error= 3.95D-09 at cycle  14 NSaved=  14.
 NSaved=14 IEnMin=13 EnMin= -706.385926667261     IErMin=14 ErrMin= 3.95D-09
 ErrMax= 3.95D-09  0.00D+00 EMaxC= 1.00D-01 BMatC= 6.92D-15 BMatP= 4.03D-13
 IDIUse=1 WtCom= 1.00D+00 WtEn= 0.00D+00
 Coeff-Com: -0.105D-06 0.601D-07-0.375D-07 0.437D-06 0.590D-05 0.208D-04
 Coeff-Com:  0.838D-04 0.759D-04-0.558D-03-0.406D-02-0.105D-01-0.167D-02
 Coeff-Com:  0.123D+00 0.894D+00
 Coeff:     -0.105D-06 0.601D-07-0.375D-07 0.437D-06 0.590D-05 0.208D-04
 Coeff:      0.838D-04 0.759D-04-0.558D-03-0.406D-02-0.105D-01-0.167D-02
 Coeff:      0.123D+00 0.894D+00
 Gap=     0.199 Goal=   None    Shift=    0.000
 RMSDP=2.47D-09 MaxDP=5.45D-08 DE= 6.82D-13 OVMax= 1.18D-07

 Error on total polarization charges =  0.02422
 SCF Done:  E(RB3LYP) =  -706.385926667     A.U. after   14 cycles
            NFock= 14  Conv=0.25D-08     -V/T= 2.0057
 KE= 7.023509071518D+02 PE=-2.161133562616D+03 EE= 5.106590269285D+02
 SMD-CDS (non-electrostatic) energy       (kcal/mol) =       0.54
 (included in total energy above)
 Leave Link  502 at Tue Jan  7 23:42:35 2020, MaxMem=  4294967296 cpu:             453.7 elap:              33.9
 (Enter /home/cwagen/sw/g16/g16/l601.exe)
 Copying SCF densities to generalized density rwf, IOpCl= 0 IROHF=0.

 **********************************************************************

            Population analysis using the SCF density.

 **********************************************************************

 Orbital symmetries:
       Occupied  (A) (A) (A) (A) (A) (A) (A) (A) (A) (A) (A) (A)
                 (A) (A) (A) (A) (A) (A) (A) (A) (A) (A) (A) (A)
                 (A) (A) (A)
       Virtual   (A) (A) (A) (A) (A) (A) (A) (A) (A) (A) (A) (A)
                 (A) (A) (A) (A) (A) (A) (A) (A) (A) (A) (A) (A)
                 (A) (A) (A) (A) (A) (A) (A) (A) (A) (A) (A) (A)
                 (A) (A) (A) (A) (A) (A) (A) (A) (A) (A) (A) (A)
                 (A) (A) (A) (A) (A) (A) (A) (A) (A) (A) (A) (A)
                 (A) (A) (A) (A) (A) (A) (A) (A) (A) (A) (A) (A)
                 (A) (A) (A) (A) (A) (A) (A) (A) (A) (A) (A) (A)
                 (A) (A) (A) (A) (A) (A) (A) (A) (A) (A) (A) (A)
                 (A)
 The electronic state is 1-A.
 Alpha  occ. eigenvalues -- -101.52706 -19.12664 -14.27607 -10.32194 -10.18059
 Alpha  occ. eigenvalues --  -10.14819  -9.44384  -7.20702  -7.19861  -7.19795
 Alpha  occ. eigenvalues --   -0.99264  -0.83737  -0.82248  -0.71004  -0.53379
 Alpha  occ. eigenvalues --   -0.43880  -0.42994  -0.41313  -0.37383  -0.36855
 Alpha  occ. eigenvalues --   -0.34056  -0.29633  -0.29390  -0.28324  -0.27997
 Alpha  occ. eigenvalues --   -0.24908  -0.24057
 Alpha virt. eigenvalues --   -0.04129   0.02884   0.04256   0.05386   0.05618
 Alpha virt. eigenvalues --    0.06256   0.07856   0.08494   0.09095   0.09757
 Alpha virt. eigenvalues --    0.10510   0.11101   0.11466   0.13578   0.13604
 Alpha virt. eigenvalues --    0.14198   0.15388   0.16437   0.18696   0.22019
 Alpha virt. eigenvalues --    0.23326   0.24205   0.24632   0.25842   0.26717
 Alpha virt. eigenvalues --    0.26933   0.28669   0.29727   0.31616   0.34358
 Alpha virt. eigenvalues --    0.35342   0.38998   0.42389   0.56946   0.58219
 Alpha virt. eigenvalues --    0.62907   0.64456   0.65486   0.67192   0.68790
 Alpha virt. eigenvalues --    0.71833   0.73372   0.75550   0.78800   0.80568
 Alpha virt. eigenvalues --    0.82833   0.86322   0.90504   0.91250   0.94923
 Alpha virt. eigenvalues --    0.99676   1.01502   1.02873   1.03700   1.07016
 Alpha virt. eigenvalues --    1.07887   1.09131   1.16368   1.19953   1.25099
 Alpha virt. eigenvalues --    1.31271   1.33288   1.36290   1.39974   1.51017
 Alpha virt. eigenvalues --    1.54457   1.59247   1.59632   1.59901   1.62802
 Alpha virt. eigenvalues --    1.66158   1.79097   1.79653   1.84381   1.91838
 Alpha virt. eigenvalues --    1.93165   1.99556   2.02579   2.02939   2.18175
 Alpha virt. eigenvalues --    2.21640   2.26428   2.31074   2.50341   2.51646
 Alpha virt. eigenvalues --    2.57515   2.66381   2.66664   2.73734   2.99231
 Alpha virt. eigenvalues --    3.11065   4.02664   4.17451   4.28816   4.31357
 Alpha virt. eigenvalues --    4.36193   4.49922
          Condensed to atoms (all electrons):
               1          2          3          4          5          6
     1  C    5.933563   0.464877  -0.178887  -0.065125   0.000460  -0.076191
     2  O    0.464877   8.257531  -0.124068   0.008907  -0.010917  -0.001507
     3  C   -0.178887  -0.124068   5.976138   0.372808   0.352591   0.404206
     4  H   -0.065125   0.008907   0.372808   0.485340  -0.028928  -0.024300
     5  H    0.000460  -0.010917   0.352591  -0.028928   0.471558  -0.023820
     6  H   -0.076191  -0.001507   0.404206  -0.024300  -0.023820   0.465422
     7  Cl  -0.277324  -0.120172   0.031353   0.013014  -0.012663   0.012151
     8  C    0.261980  -0.089783  -0.292402   0.003953   0.005737  -0.000757
     9  N   -0.018593  -0.000464   0.005006  -0.000359  -0.000017  -0.000159
               7          8          9
     1  C   -0.277324   0.261980  -0.018593
     2  O   -0.120172  -0.089783  -0.000464
     3  C    0.031353  -0.292402   0.005006
     4  H    0.013014   0.003953  -0.000359
     5  H   -0.012663   0.005737  -0.000017
     6  H    0.012151  -0.000757  -0.000159
     7  Cl  17.408864  -0.062077  -0.003893
     8  C   -0.062077   5.635917   0.641725
     9  N   -0.003893   0.641725   7.032941
 Mulliken charges:
               1
     1  C   -0.044760
     2  O   -0.384404
     3  C   -0.546744
     4  H    0.234689
     5  H    0.245999
     6  H    0.244954
     7  Cl   0.010746
     8  C   -0.104293
     9  N   -0.656187
 Sum of Mulliken charges =  -1.00000
 Mulliken charges with hydrogens summed into heavy atoms:
               1
     1  C   -0.044760
     2  O   -0.384404
     3  C    0.178899
     7  Cl   0.010746
     8  C   -0.104293
     9  N   -0.656187
 Electronic spatial extent (au):  <R**2>=            855.6211
 Charge=             -1.0000 electrons
 Dipole moment (field-independent basis, Debye):
    X=             -8.3044    Y=              2.1180    Z=             -3.2016  Tot=              9.1487
 Quadrupole moment (field-independent basis, Debye-Ang):
   XX=            -77.0629   YY=            -46.9083   ZZ=            -50.2129
   XY=              3.2822   XZ=              2.5779   YZ=             -4.1037
 Traceless Quadrupole moment (field-independent basis, Debye-Ang):
   XX=            -19.0015   YY=             11.1530   ZZ=              7.8485
   XY=              3.2822   XZ=              2.5779   YZ=             -4.1037
 Octapole moment (field-independent basis, Debye-Ang**2):
  XXX=           -121.1047  YYY=              3.9170  ZZZ=             -6.6493  XYY=             -9.9653
  XXY=             16.6580  XXZ=              1.5118  XZZ=             -5.2884  YZZ=             -3.0090
  YYZ=             -3.5773  XYZ=              1.4953
 Hexadecapole moment (field-independent basis, Debye-Ang**3):
 XXXX=          -1094.4597 YYYY=           -293.1137 ZZZZ=           -190.7058 XXXY=             53.9783
 XXXZ=              8.3025 YYYX=             14.5114 YYYZ=             -2.6898 ZZZX=              4.9020
 ZZZY=             -4.6499 XXYY=           -181.5432 XXZZ=           -162.2877 YYZZ=            -85.2441
 XXYZ=             -1.1001 YYXZ=              3.3261 ZZXY=              4.6376
 N-N= 2.417377018681D+02 E-N=-2.161133562728D+03  KE= 7.023509071518D+02
 No NMR shielding tensors so no spin-rotation constants.
 Leave Link  601 at Tue Jan  7 23:42:36 2020, MaxMem=  4294967296 cpu:              13.5 elap:               1.1
 (Enter /home/cwagen/sw/g16/g16/l701.exe)
 ... and contract with generalized density number  0.
 Compute integral first derivatives.
 D1PCM: PCM CHGder 1st derivatives, ID1Alg=3 FixD1E=F DoIter=F DoCFld=F I1PDM=0.
 GePol: Maximum number of non-zero 1st derivatives   =     335
 Leave Link  701 at Tue Jan  7 23:42:41 2020, MaxMem=  4294967296 cpu:              60.9 elap:               4.4
 (Enter /home/cwagen/sw/g16/g16/l702.exe)
 L702 exits ... SP integral derivatives will be done elsewhere.
 Leave Link  702 at Tue Jan  7 23:42:41 2020, MaxMem=  4294967296 cpu:               1.2 elap:               0.1
 (Enter /home/cwagen/sw/g16/g16/l703.exe)
 Integral derivatives from FoFJK, PRISM(SPDF).
 Compute integral first derivatives, UseDBF=F ICtDFT=           0.
 Calling FoFJK, ICntrl=      2127 FMM=F ISym2X=0 I1Cent= 0 IOpClX= 0 NMat=1 NMatS=1 NMatT=0.
 FoFJK:  IHMeth= 1 ICntrl=    2127 DoSepK=F KAlg= 0 I1Cent=           0 FoldK=F
 IRaf=         0 NMat=       1 IRICut=       1 DoRegI=T DoRafI=F ISym2E= 0 IDoP0=0 IntGTp=1.
 FoFCou: FMM=F IPFlag=           0 FMFlag=      100000 FMFlg1=         800
         NFxFlg=           0 DoJE=F BraDBF=F KetDBF=F FulRan=T
         wScrn=  0.000000 ICntrl=      2127 IOpCl=  0 I1Cent=           0 NGrid=           0
         NMat0=    1 NMatS0=      1 NMatT0=    0 NMatD0=    1 NMtDS0=    0 NMtDT0=    0
 Symmetry not used in FoFCou.
 Leave Link  703 at Tue Jan  7 23:42:43 2020, MaxMem=  4294967296 cpu:              32.8 elap:               2.4
 (Enter /home/cwagen/sw/g16/g16/l716.exe)
 Dipole        =-3.26720222D+00 8.33280118D-01-1.25962229D+00
 ***** Axes restored to original set *****
 -------------------------------------------------------------------
 Center     Atomic                   Forces (Hartrees/Bohr)
 Number     Number              X              Y              Z
 -------------------------------------------------------------------
      1        6          -0.031208616   -0.079738680   -0.085979398
      2        8           0.019024516    0.040993690    0.082522256
      3        6           0.017593854    0.016812846    0.002765147
      4        1           0.000130111    0.000221000   -0.002410346
      5        1           0.000772156    0.003687479   -0.002005324
      6        1           0.000054942    0.001655021   -0.000476900
      7       17           0.002816252    0.018447318    0.004826592
      8        6          -0.025145308   -0.006102647    0.000501216
      9        7           0.015962095    0.004023974    0.000256758
 -------------------------------------------------------------------
 Cartesian Forces:  Max     0.085979398 RMS     0.030741641
 Leave Link  716 at Tue Jan  7 23:42:43 2020, MaxMem=  4294967296 cpu:               1.2 elap:               0.1
 (Enter /home/cwagen/sw/g16/g16/l103.exe)

 GradGradGradGradGradGradGradGradGradGradGradGradGradGradGradGradGradGrad
 Berny optimization.
 FormGI is forming the generalized inverse of G from B-inverse, IUseBI=4.
 Internal  Forces:  Max     0.091623885 RMS     0.019453407
 Search for a local minimum.
 Step number   1 out of a maximum of   41
 All quantities printed in internal units (Hartrees-Bohrs-Radians)
 RMS Force = .19884D-01 SwitMx=.10000D-02 MixMth= 1
 Mixed Optimization -- RFO/linear search
 Second derivative matrix not updated -- first step.
 ITU=  0
     Eigenvalues ---    0.00230   0.04746   0.04746   0.05330   0.05908
     Eigenvalues ---    0.07453   0.10176   0.16000   0.16000   0.16000
     Eigenvalues ---    0.25000   0.25000   0.25000   0.26946   0.33918
     Eigenvalues ---    0.33999   0.34275   0.67840   1.220341000.00000
     Eigenvalues --- 1000.000001000.000001000.000001000.000001000.00000
     Eigenvalues --- 1000.000001000.000001000.000001000.000001000.00000
     Eigenvalues --- 1000.00000
 RFO step:  Lambda=-2.84045674D-02 EMin= 2.30000000D-03
 Linear search not attempted -- first point.
 Iteration  1 RMS(Cart)=  0.07803229 RMS(Int)=  0.00743598
 Iteration  2 RMS(Cart)=  0.00709367 RMS(Int)=  0.00461980
 Iteration  3 RMS(Cart)=  0.00004532 RMS(Int)=  0.00461964
 Iteration  4 RMS(Cart)=  0.00000072 RMS(Int)=  0.00461964
 Iteration  1 RMS(Cart)=  0.00000000 RMS(Int)=  0.00000000
 ITry= 1 IFail=0 DXMaxC= 1.59D-01 DCOld= 1.00D+10 DXMaxT= 3.00D-01 DXLimC= 3.00D+00 Rises=F
 Variable       Old X    -DE/DX   Delta X   Delta X   Delta X     New X
                                 (Linear)    (Quad)   (Total)
    R1        2.45227  -0.09162   0.00000  -0.12963  -0.12963   2.32264
    R2        2.94503  -0.01970   0.00000  -0.06614  -0.06614   2.87889
    R3        3.40151   0.01355   0.00000   0.00000   0.00000   3.40151
    R4        4.53534  -0.00907   0.00000   0.00000   0.00000   4.53534
    R5        2.07331  -0.00219   0.00000  -0.00594  -0.00594   2.06738
    R6        2.07468  -0.00194   0.00000  -0.00527  -0.00527   2.06941
    R7        2.06868  -0.00101   0.00000  -0.00273  -0.00273   2.06595
    R8        2.20923   0.01646   0.00000   0.01318   0.01318   2.22241
    A1        1.99667   0.03069   0.00000   0.13655   0.12587   2.12254
    A2        2.01908  -0.01168   0.00000   0.01852   0.00301   2.02209
    A3        1.89239  -0.00992   0.00000  -0.06794  -0.06180   1.83059
    A4        1.92419   0.01083   0.00000   0.06015   0.04751   1.97170
    A5        1.77194  -0.01400   0.00000  -0.09187  -0.08756   1.68439
    A6        1.83479  -0.01119   0.00000  -0.09962  -0.09777   1.73702
    A7        1.97398  -0.00033   0.00000  -0.00196  -0.00201   1.97196
    A8        1.87942  -0.00503   0.00000  -0.02775  -0.02785   1.85157
    A9        1.90140  -0.00084   0.00000  -0.00318  -0.00321   1.89818
   A10        1.90356   0.00246   0.00000   0.01069   0.01057   1.91414
   A11        1.90837   0.00098   0.00000   0.00698   0.00698   1.91535
   A12        1.89554   0.00284   0.00000   0.01565   0.01557   1.91111
   A13        3.09394   0.00028   0.00000   0.00372   0.00372   3.09766
   A14        2.88140  -0.00028   0.00000  -0.00365  -0.00365   2.87775
    D1        3.04510  -0.00914   0.00000  -0.09422  -0.09851   2.94659
    D2       -1.13357  -0.00970   0.00000  -0.10103  -0.10528  -1.23885
    D3        0.91915  -0.00957   0.00000  -0.09954  -0.10377   0.81538
    D4       -0.92685   0.01255   0.00000   0.11433   0.11745  -0.80940
    D5        1.17766   0.01198   0.00000   0.10752   0.11068   1.28834
    D6       -3.05280   0.01212   0.00000   0.10901   0.11219  -2.94062
    D7        1.01121  -0.00277   0.00000  -0.01960  -0.01853   0.99268
    D8        3.11572  -0.00334   0.00000  -0.02641  -0.02530   3.09042
    D9       -1.11475  -0.00320   0.00000  -0.02492  -0.02379  -1.13854
         Item               Value     Threshold  Converged?
 Maximum Force            0.091624     0.000450     NO 
 RMS     Force            0.019884     0.000300     NO 
 Maximum Displacement     0.158815     0.001800     NO 
 RMS     Displacement     0.077922     0.001200     NO 
 Predicted change in Energy=-1.672518D-02
 Lowest energy point so far.  Saving SCF results.
 GradGradGradGradGradGradGradGradGradGradGradGradGradGradGradGradGradGrad

 Leave Link  103 at Tue Jan  7 23:42:49 2020, MaxMem=  4294967296 cpu:              73.3 elap:               5.7
 (Enter /home/cwagen/sw/g16/g16/l202.exe)
                          Input orientation:                          
 ---------------------------------------------------------------------
 Center     Atomic      Atomic             Coordinates (Angstroms)
 Number     Number       Type             X           Y           Z
 ---------------------------------------------------------------------
      1          6           0       -0.266148   -0.349794   -0.245268
      2          8           0       -0.244036   -0.610393   -1.446208
      3          6           0       -0.304854   -1.448225    0.809639
      4          1           0       -0.126045   -1.074586    1.822198
      5          1           0       -1.305110   -1.890117    0.751037
      6          1           0        0.443451   -2.204315    0.557512
      7         17           0       -1.210775    1.108699    0.224286
      8          6           0        1.946788    0.431735    0.256855
      9          7           0        3.086447    0.717954    0.305322
 ---------------------------------------------------------------------
                    Distance matrix (angstroms):
                    1          2          3          4          5
     1  C    0.000000
     2  O    1.229089   0.000000
     3  C    1.523442   2.407178   0.000000
     4  H    2.195306   3.303313   1.094009   0.000000
     5  H    2.108236   2.755260   1.095086   1.789600   0.000000
     6  H    2.141783   2.651060   1.093252   1.788866   1.787075
     7  Cl   1.800000   2.584649   2.775102   2.914909   3.046188
     8  C    2.400000   2.964146   2.984914   3.002656   4.026171
     9  N    3.561338   3.990549   4.055563   3.979223   5.127032
                    6          7          8          9
     6  H    0.000000
     7  Cl   3.718005   0.000000
     8  C    3.049455   3.229481   0.000000
     9  N    3.948250   4.315711   1.176049   0.000000
 Stoichiometry    C3H3ClNO(1-)
 Framework group  C1[X(C3H3ClNO)]
 Deg. of freedom    21
 Full point group                 C1      NOp   1
 RotChk:  IX=0 Diff= 5.74D-02
 Largest Abelian subgroup         C1      NOp   1
 Largest concise Abelian subgroup C1      NOp   1
                         Standard orientation:                         
 ---------------------------------------------------------------------
 Center     Atomic      Atomic             Coordinates (Angstroms)
 Number     Number       Type             X           Y           Z
 ---------------------------------------------------------------------
      1          6           0       -0.424355    0.455628    0.231918
      2          8           0       -0.488499    0.807066    1.407943
      3          6           0       -0.451175    1.467596   -0.906536
      4          1           0       -0.192827    1.028440   -1.874655
      5          1           0       -1.473265    1.859260   -0.940371
      6          1           0        0.242970    2.279007   -0.672073
      7         17           0       -1.267057   -1.081990   -0.175005
      8          6           0        1.850279   -0.243771   -0.079344
      9          7           0        3.003227   -0.472304   -0.039656
 ---------------------------------------------------------------------
 Rotational constants (GHZ):           3.5840010           1.7933610           1.5414184
 Leave Link  202 at Tue Jan  7 23:42:49 2020, MaxMem=  4294967296 cpu:               2.0 elap:               0.2
 (Enter /home/cwagen/sw/g16/g16/l301.exe)
 Standard basis: 6-31+G(d) (6D, 7F)
 Ernie: Thresh=  0.10000D-02 Tol=  0.10000D-05 Strict=F.
 There are   124 symmetry adapted cartesian basis functions of A   symmetry.
 There are   124 symmetry adapted basis functions of A   symmetry.
   124 basis functions,   228 primitive gaussians,   124 cartesian basis functions
    27 alpha electrons       27 beta electrons
       nuclear repulsion energy       245.6246130028 Hartrees.
 IExCor=  402 DFT=T Ex+Corr=B3LYP ExCW=0 ScaHFX=  0.200000
 ScaDFX=  0.800000  0.720000  1.000000  0.810000 ScalE2=  1.000000  1.000000
 IRadAn=      5 IRanWt=     -1 IRanGd=            0 ICorTp=0 IEmpDi=  4
 NAtoms=    9 NActive=    9 NUniq=    9 SFac= 1.00D+00 NAtFMM=   60 NAOKFM=F Big=F
 Integral buffers will be    131072 words long.
 Raffenetti 2 integral format.
 Two-electron integral symmetry is turned on.
 ------------------------------------------------------------------------------
 Polarizable Continuum Model (PCM)
 =================================
 Model                : PCM.
 Atomic radii         : SMD-Coulomb.
 Polarization charges : Total charges.
 Charge compensation  : None.
 Solution method      : On-the-fly selection.
 Cavity type          : VdW (van der Waals Surface) (Alpha=1.000).
 Cavity algorithm     : GePol (No added spheres)
                        Default sphere list used, NSphG=    9.
                        Lebedev-Laikov grids with approx.  5.0 points / Ang**2.
                        Smoothing algorithm: York/Karplus (Gamma=1.0000).
                        Polarization charges: spherical gaussians, with
                                              point-specific exponents (IZeta= 3).
                        Self-potential: point-specific (ISelfS= 7).
                        Self-field    : sphere-specific E.n sum rule (ISelfD= 2).
 1st derivatives      : Analytical E(r).r(x)/FMM algorithm (CHGder, D1EAlg=3).
                        Cavity 1st derivative terms included.
 Solvent              : TetraHydroFuran, Eps=   7.425700 Eps(inf)=   1.974025
 ------------------------------------------------------------------------------
 Spheres list:
 ISph  on   Nord     Re0    Alpha      Xe            Ye            Ze
    1   C      1    1.8500  1.000     -0.424355      0.455628      0.231918
    2   O      2    2.2940  1.000     -0.488499      0.807066      1.407943
    3   C      3    1.8500  1.000     -0.451175      1.467596     -0.906536
    4   H      4    1.2000  1.000     -0.192827      1.028440     -1.874655
    5   H      5    1.2000  1.000     -1.473265      1.859260     -0.940371
    6   H      6    1.2000  1.000      0.242970      2.279007     -0.672073
    7  Cl      7    2.3800  1.000     -1.267057     -1.081990     -0.175005
    8   C      8    1.8500  1.000      1.850279     -0.243771     -0.079344
    9   N      9    1.8900  1.000      3.003227     -0.472304     -0.039656
 ------------------------------------------------------------------------------
 GePol: Number of generator spheres                  =       9
 GePol: Total number of spheres                      =       9
 GePol: Number of exposed spheres                    =       9 (100.00%)
 GePol: Number of points                             =    1179
 GePol: Average weight of points                     =       0.14
 GePol: Minimum weight of points                     =   0.88D-07
 GePol: Maximum weight of points                     =    0.18138
 GePol: Number of points with low weight             =      33
 GePol: Fraction of low-weight points (<1% of avg)   =       2.80%
 GePol: Cavity surface area                          =    160.308 Ang**2
 GePol: Cavity volume                                =    146.025 Ang**3
 ------------------------------------------------------------------------------
 Atomic radii for non-electrostatic terms: SMD-CDS.
 ------------------------------------------------------------------------------
 PCM non-electrostatic energy =         0.0007401274 Hartrees.
 Nuclear repulsion after PCM non-electrostatic terms =      245.6253531303 Hartrees.
 Leave Link  301 at Tue Jan  7 23:42:49 2020, MaxMem=  4294967296 cpu:               2.3 elap:               0.2
 (Enter /home/cwagen/sw/g16/g16/l302.exe)
 NPDir=0 NMtPBC=     1 NCelOv=     1 NCel=       1 NClECP=     1 NCelD=      1
         NCelK=      1 NCelE2=     1 NClLst=     1 CellRange=     0.0.
 One-electron integrals computed using PRISM.
 One-electron integral symmetry used in STVInt
 NBasis=   124 RedAO= T EigKep=  6.69D-05  NBF=   124
 NBsUse=   124 1.00D-06 EigRej= -1.00D+00 NBFU=   124
 Precomputing XC quadrature grid using
 IXCGrd= 4 IRadAn=           5 IRanWt=          -1 IRanGd=           0 AccXCQ= 0.00D+00.
 Generated NRdTot=       0 NPtTot=           0 NUsed=           0 NTot=          32
 NSgBfM=   124   124   124   124   124 MxSgAt=     9 MxSgA2=     9.
 Leave Link  302 at Tue Jan  7 23:42:52 2020, MaxMem=  4294967296 cpu:              29.7 elap:               2.3
 (Enter /home/cwagen/sw/g16/g16/l303.exe)
 DipDrv:  MaxL=1.
 Leave Link  303 at Tue Jan  7 23:42:52 2020, MaxMem=  4294967296 cpu:               3.9 elap:               0.4
 (Enter /home/cwagen/sw/g16/g16/l401.exe)
 Initial guess from the checkpoint file:  "/scratch/users/cwagen/cwagen_scan_180_240/Gau-7611.chk"
 B after Tr=     0.000000    0.000000    0.000000
         Rot=    0.999886   -0.012658    0.006649    0.004790 Ang=  -1.73 deg.
 Guess basis will be translated and rotated to current coordinates.
 JPrj=2 DoOrth=T DoCkMO=T.
 Generating alternative initial guess.
 ExpMin= 4.38D-02 ExpMax= 2.52D+04 ExpMxC= 3.78D+03 IAcc=2 IRadAn=         4 AccDes= 0.00D+00
 Harris functional with IExCor=  402 and IRadAn=       4 diagonalized for initial guess.
 HarFok:  IExCor=  402 AccDes= 0.00D+00 IRadAn=         4 IDoV= 1 UseB2=F ITyADJ=14
 ICtDFT=  3500011 ScaDFX=  1.000000  1.000000  1.000000  1.000000
 FoFCou: FMM=F IPFlag=           0 FMFlag=      100000 FMFlg1=           0
         NFxFlg=           0 DoJE=T BraDBF=F KetDBF=T FulRan=T
         wScrn=  0.000000 ICntrl=       500 IOpCl=  0 I1Cent=   200000004 NGrid=           0
         NMat0=    1 NMatS0=      1 NMatT0=    0 NMatD0=    1 NMtDS0=    0 NMtDT0=    0
 Petite list used in FoFCou.
 Harris En= -706.420039813350    
 Leave Link  401 at Tue Jan  7 23:42:55 2020, MaxMem=  4294967296 cpu:              39.3 elap:               2.9
 (Enter /home/cwagen/sw/g16/g16/l502.exe)
 Keep R1 ints in memory in canonical form, NReq=45236517.
 FoFCou: FMM=F IPFlag=           0 FMFlag=           0 FMFlg1=           0
         NFxFlg=           0 DoJE=F BraDBF=F KetDBF=F FulRan=T
         wScrn=  0.000000 ICntrl=       600 IOpCl=  0 I1Cent=           0 NGrid=           0
         NMat0=    1 NMatS0=   7750 NMatT0=    0 NMatD0=    1 NMtDS0=    0 NMtDT0=    0
 Symmetry not used in FoFCou.
 Two-electron integral symmetry not used.
 Closed shell SCF:
 Using DIIS extrapolation, IDIIS=  1040.
 NGot=  4294967296 LenX=  4264898079 LenY=  4264882262
 Requested convergence on RMS density matrix=1.00D-08 within 128 cycles.
 Requested convergence on MAX density matrix=1.00D-06.
 Requested convergence on             energy=1.00D-06.
 No special actions if energy rises.

 Cycle   1  Pass 1  IDiag  1:
 Inv3:  Mode=1 IEnd=     4170123.
 Iteration    1 A*A^-1 deviation from unit magnitude is 3.44D-15 for    122.
 Iteration    1 A*A^-1 deviation from orthogonality  is 1.71D-15 for    313     44.
 Iteration    1 A^-1*A deviation from unit magnitude is 3.00D-15 for    122.
 Iteration    1 A^-1*A deviation from orthogonality  is 1.41D-15 for   1176    967.
 E= -706.390164543153    
 DIIS: error= 4.59D-03 at cycle   1 NSaved=   1.
 NSaved= 1 IEnMin= 1 EnMin= -706.390164543153     IErMin= 1 ErrMin= 4.59D-03
 ErrMax= 4.59D-03  0.00D+00 EMaxC= 1.00D-01 BMatC= 8.88D-03 BMatP= 8.88D-03
 IDIUse=3 WtCom= 9.54D-01 WtEn= 4.59D-02
 Coeff-Com:  0.100D+01
 Coeff-En:   0.100D+01
 Coeff:      0.100D+01
 Gap=     0.622 Goal=   None    Shift=    0.000
 GapD=    0.622 DampG=2.000 DampE=1.000 DampFc=2.0000 IDamp=-1.
 RMSDP=3.91D-03 MaxDP=2.17D-01              OVMax= 3.78D-02

 Cycle   2  Pass 1  IDiag  1:
 E= -706.404597565915     Delta-E=       -0.014433022761 Rises=F Damp=F
 DIIS: error= 1.22D-03 at cycle   2 NSaved=   2.
 NSaved= 2 IEnMin= 2 EnMin= -706.404597565915     IErMin= 2 ErrMin= 1.22D-03
 ErrMax= 1.22D-03  0.00D+00 EMaxC= 1.00D-01 BMatC= 6.65D-04 BMatP= 8.88D-03
 IDIUse=3 WtCom= 9.88D-01 WtEn= 1.22D-02
 Coeff-Com:  0.816D-01 0.918D+00
 Coeff-En:   0.000D+00 0.100D+01
 Coeff:      0.806D-01 0.919D+00
 Gap=     0.225 Goal=   None    Shift=    0.000
 RMSDP=6.21D-04 MaxDP=1.64D-02 DE=-1.44D-02 OVMax= 2.05D-02

 Cycle   3  Pass 1  IDiag  1:
 E= -706.404209464225     Delta-E=        0.000388101690 Rises=F Damp=F
 DIIS: error= 2.04D-03 at cycle   3 NSaved=   3.
 NSaved= 3 IEnMin= 2 EnMin= -706.404597565915     IErMin= 2 ErrMin= 1.22D-03
 ErrMax= 2.04D-03  0.00D+00 EMaxC= 1.00D-01 BMatC= 1.16D-03 BMatP= 6.65D-04
 IDIUse=3 WtCom= 1.81D-01 WtEn= 8.19D-01
 Coeff-Com: -0.256D-01 0.582D+00 0.444D+00
 Coeff-En:   0.000D+00 0.603D+00 0.397D+00
 Coeff:     -0.463D-02 0.599D+00 0.405D+00
 Gap=     0.221 Goal=   None    Shift=    0.000
 RMSDP=4.09D-04 MaxDP=7.06D-03 DE= 3.88D-04 OVMax= 9.94D-03

 Cycle   4  Pass 1  IDiag  1:
 E= -706.405236501408     Delta-E=       -0.001027037183 Rises=F Damp=F
 DIIS: error= 5.97D-04 at cycle   4 NSaved=   4.
 NSaved= 4 IEnMin= 4 EnMin= -706.405236501408     IErMin= 4 ErrMin= 5.97D-04
 ErrMax= 5.97D-04  0.00D+00 EMaxC= 1.00D-01 BMatC= 7.05D-05 BMatP= 6.65D-04
 IDIUse=3 WtCom= 9.94D-01 WtEn= 5.97D-03
 Coeff-Com: -0.223D-01 0.277D+00 0.255D+00 0.490D+00
 Coeff-En:   0.000D+00 0.000D+00 0.000D+00 0.100D+01
 Coeff:     -0.221D-01 0.275D+00 0.253D+00 0.494D+00
 Gap=     0.219 Goal=   None    Shift=    0.000
 RMSDP=1.40D-04 MaxDP=7.27D-03 DE=-1.03D-03 OVMax= 2.16D-03

 Cycle   5  Pass 1  IDiag  1:
 E= -706.405286920052     Delta-E=       -0.000050418644 Rises=F Damp=F
 DIIS: error= 1.67D-04 at cycle   5 NSaved=   5.
 NSaved= 5 IEnMin= 5 EnMin= -706.405286920052     IErMin= 5 ErrMin= 1.67D-04
 ErrMax= 1.67D-04  0.00D+00 EMaxC= 1.00D-01 BMatC= 1.07D-05 BMatP= 7.05D-05
 IDIUse=3 WtCom= 9.98D-01 WtEn= 1.67D-03
 Coeff-Com: -0.726D-02 0.689D-01 0.850D-01 0.304D+00 0.550D+00
 Coeff-En:   0.000D+00 0.000D+00 0.000D+00 0.144D+00 0.856D+00
 Coeff:     -0.725D-02 0.687D-01 0.849D-01 0.303D+00 0.550D+00
 Gap=     0.220 Goal=   None    Shift=    0.000
 RMSDP=5.39D-05 MaxDP=2.20D-03 DE=-5.04D-05 OVMax= 7.83D-04

 Cycle   6  Pass 1  IDiag  1:
 E= -706.405297299481     Delta-E=       -0.000010379429 Rises=F Damp=F
 DIIS: error= 2.44D-05 at cycle   6 NSaved=   6.
 NSaved= 6 IEnMin= 6 EnMin= -706.405297299481     IErMin= 6 ErrMin= 2.44D-05
 ErrMax= 2.44D-05  0.00D+00 EMaxC= 1.00D-01 BMatC= 2.19D-07 BMatP= 1.07D-05
 IDIUse=1 WtCom= 1.00D+00 WtEn= 0.00D+00
 Coeff-Com: -0.115D-02 0.464D-02 0.120D-01 0.789D-01 0.191D+00 0.714D+00
 Coeff:     -0.115D-02 0.464D-02 0.120D-01 0.789D-01 0.191D+00 0.714D+00
 Gap=     0.220 Goal=   None    Shift=    0.000
 RMSDP=8.86D-06 MaxDP=2.04D-04 DE=-1.04D-05 OVMax= 1.93D-04

 Cycle   7  Pass 1  IDiag  1:
 E= -706.405297405745     Delta-E=       -0.000000106264 Rises=F Damp=F
 DIIS: error= 3.35D-05 at cycle   7 NSaved=   7.
 NSaved= 7 IEnMin= 7 EnMin= -706.405297405745     IErMin= 6 ErrMin= 2.44D-05
 ErrMax= 3.35D-05  0.00D+00 EMaxC= 1.00D-01 BMatC= 1.55D-07 BMatP= 2.19D-07
 IDIUse=1 WtCom= 1.00D+00 WtEn= 0.00D+00
 Coeff-Com:  0.549D-04-0.547D-02-0.207D-02 0.231D-01 0.773D-01 0.489D+00
 Coeff-Com:  0.418D+00
 Coeff:      0.549D-04-0.547D-02-0.207D-02 0.231D-01 0.773D-01 0.489D+00
 Coeff:      0.418D+00
 Gap=     0.220 Goal=   None    Shift=    0.000
 RMSDP=5.66D-06 MaxDP=2.37D-04 DE=-1.06D-07 OVMax= 1.31D-04

 Cycle   8  Pass 1  IDiag  1:
 E= -706.405297534608     Delta-E=       -0.000000128863 Rises=F Damp=F
 DIIS: error= 6.39D-06 at cycle   8 NSaved=   8.
 NSaved= 8 IEnMin= 8 EnMin= -706.405297534608     IErMin= 8 ErrMin= 6.39D-06
 ErrMax= 6.39D-06  0.00D+00 EMaxC= 1.00D-01 BMatC= 8.43D-09 BMatP= 1.55D-07
 IDIUse=1 WtCom= 1.00D+00 WtEn= 0.00D+00
 Coeff-Com:  0.147D-03-0.303D-02-0.284D-02 0.145D-02 0.133D-01 0.139D+00
 Coeff-Com:  0.228D+00 0.624D+00
 Coeff:      0.147D-03-0.303D-02-0.284D-02 0.145D-02 0.133D-01 0.139D+00
 Coeff:      0.228D+00 0.624D+00
 Gap=     0.220 Goal=   None    Shift=    0.000
 RMSDP=1.06D-06 MaxDP=2.46D-05 DE=-1.29D-07 OVMax= 2.39D-05

 Cycle   9  Pass 1  IDiag  1:
 E= -706.405297541926     Delta-E=       -0.000000007317 Rises=F Damp=F
 DIIS: error= 1.11D-06 at cycle   9 NSaved=   9.
 NSaved= 9 IEnMin= 9 EnMin= -706.405297541926     IErMin= 9 ErrMin= 1.11D-06
 ErrMax= 1.11D-06  0.00D+00 EMaxC= 1.00D-01 BMatC= 4.02D-10 BMatP= 8.43D-09
 IDIUse=1 WtCom= 1.00D+00 WtEn= 0.00D+00
 Coeff-Com:  0.627D-04-0.796D-03-0.116D-02-0.118D-02-0.714D-03 0.151D-01
 Coeff-Com:  0.641D-01 0.237D+00 0.688D+00
 Coeff:      0.627D-04-0.796D-03-0.116D-02-0.118D-02-0.714D-03 0.151D-01
 Coeff:      0.641D-01 0.237D+00 0.688D+00
 Gap=     0.220 Goal=   None    Shift=    0.000
 RMSDP=5.08D-07 MaxDP=2.15D-05 DE=-7.32D-09 OVMax= 1.08D-05

 Cycle  10  Pass 1  IDiag  1:
 E= -706.405297542399     Delta-E=       -0.000000000473 Rises=F Damp=F
 DIIS: error= 2.70D-07 at cycle  10 NSaved=  10.
 NSaved=10 IEnMin=10 EnMin= -706.405297542399     IErMin=10 ErrMin= 2.70D-07
 ErrMax= 2.70D-07  0.00D+00 EMaxC= 1.00D-01 BMatC= 2.75D-11 BMatP= 4.02D-10
 IDIUse=1 WtCom= 1.00D+00 WtEn= 0.00D+00
 Coeff-Com:  0.919D-05 0.754D-06-0.181D-03-0.577D-03-0.172D-02-0.854D-02
 Coeff-Com:  0.165D-04 0.197D-01 0.244D+00 0.748D+00
 Coeff:      0.919D-05 0.754D-06-0.181D-03-0.577D-03-0.172D-02-0.854D-02
 Coeff:      0.165D-04 0.197D-01 0.244D+00 0.748D+00
 Gap=     0.220 Goal=   None    Shift=    0.000
 RMSDP=2.02D-07 MaxDP=1.05D-05 DE=-4.73D-10 OVMax= 2.11D-06

 Cycle  11  Pass 1  IDiag  1:
 E= -706.405297542429     Delta-E=       -0.000000000030 Rises=F Damp=F
 DIIS: error= 5.83D-08 at cycle  11 NSaved=  11.
 NSaved=11 IEnMin=11 EnMin= -706.405297542429     IErMin=11 ErrMin= 5.83D-08
 ErrMax= 5.83D-08  0.00D+00 EMaxC= 1.00D-01 BMatC= 1.14D-12 BMatP= 2.75D-11
 IDIUse=1 WtCom= 1.00D+00 WtEn= 0.00D+00
 Coeff-Com:  0.393D-06 0.335D-04-0.407D-05-0.130D-03-0.513D-03-0.299D-02
 Coeff-Com: -0.291D-02-0.223D-02 0.508D-01 0.239D+00 0.719D+00
 Coeff:      0.393D-06 0.335D-04-0.407D-05-0.130D-03-0.513D-03-0.299D-02
 Coeff:     -0.291D-02-0.223D-02 0.508D-01 0.239D+00 0.719D+00
 Gap=     0.220 Goal=   None    Shift=    0.000
 RMSDP=2.78D-08 MaxDP=1.32D-06 DE=-2.99D-11 OVMax= 5.99D-07

 Cycle  12  Pass 1  IDiag  1:
 E= -706.405297542437     Delta-E=       -0.000000000008 Rises=F Damp=F
 DIIS: error= 1.52D-08 at cycle  12 NSaved=  12.
 NSaved=12 IEnMin=12 EnMin= -706.405297542437     IErMin=12 ErrMin= 1.52D-08
 ErrMax= 1.52D-08  0.00D+00 EMaxC= 1.00D-01 BMatC= 9.45D-14 BMatP= 1.14D-12
 IDIUse=1 WtCom= 1.00D+00 WtEn= 0.00D+00
 Coeff-Com: -0.538D-06 0.985D-05 0.130D-04 0.822D-06-0.502D-04-0.245D-03
 Coeff-Com: -0.109D-02-0.228D-02-0.298D-02 0.195D-01 0.250D+00 0.737D+00
 Coeff:     -0.538D-06 0.985D-05 0.130D-04 0.822D-06-0.502D-04-0.245D-03
 Coeff:     -0.109D-02-0.228D-02-0.298D-02 0.195D-01 0.250D+00 0.737D+00
 Gap=     0.220 Goal=   None    Shift=    0.000
 RMSDP=1.08D-08 MaxDP=6.20D-07 DE=-8.07D-12 OVMax= 1.15D-07

 Cycle  13  Pass 1  IDiag  1:
 E= -706.405297542431     Delta-E=        0.000000000006 Rises=F Damp=F
 DIIS: error= 2.60D-09 at cycle  13 NSaved=  13.
 NSaved=13 IEnMin=12 EnMin= -706.405297542437     IErMin=13 ErrMin= 2.60D-09
 ErrMax= 2.60D-09  0.00D+00 EMaxC= 1.00D-01 BMatC= 2.03D-15 BMatP= 9.45D-14
 IDIUse=1 WtCom= 1.00D+00 WtEn= 0.00D+00
 Coeff-Com: -0.133D-06 0.796D-06 0.284D-05 0.576D-05 0.911D-05 0.759D-04
 Coeff-Com: -0.892D-04-0.453D-03-0.256D-02-0.543D-02 0.227D-01 0.157D+00
 Coeff-Com:  0.829D+00
 Coeff:     -0.133D-06 0.796D-06 0.284D-05 0.576D-05 0.911D-05 0.759D-04
 Coeff:     -0.892D-04-0.453D-03-0.256D-02-0.543D-02 0.227D-01 0.157D+00
 Coeff:      0.829D+00
 Gap=     0.220 Goal=   None    Shift=    0.000
 RMSDP=8.99D-10 MaxDP=2.20D-08 DE= 6.03D-12 OVMax= 3.43D-08

 Error on total polarization charges =  0.02472
 SCF Done:  E(RB3LYP) =  -706.405297542     A.U. after   13 cycles
            NFock= 13  Conv=0.90D-09     -V/T= 2.0054
 KE= 7.026040622646D+02 PE=-2.169168393395D+03 EE= 5.145336804573D+02
 SMD-CDS (non-electrostatic) energy       (kcal/mol) =       0.46
 (included in total energy above)
 Leave Link  502 at Tue Jan  7 23:43:25 2020, MaxMem=  4294967296 cpu:             423.2 elap:              29.6
 (Enter /home/cwagen/sw/g16/g16/l701.exe)
 ... and contract with generalized density number  0.
 Compute integral first derivatives.
 D1PCM: PCM CHGder 1st derivatives, ID1Alg=3 FixD1E=F DoIter=F DoCFld=F I1PDM=0.
 GePol: Maximum number of non-zero 1st derivatives   =     339
 Leave Link  701 at Tue Jan  7 23:43:29 2020, MaxMem=  4294967296 cpu:              58.7 elap:               4.6
 (Enter /home/cwagen/sw/g16/g16/l702.exe)
 L702 exits ... SP integral derivatives will be done elsewhere.
 Leave Link  702 at Tue Jan  7 23:43:29 2020, MaxMem=  4294967296 cpu:               1.2 elap:               0.2
 (Enter /home/cwagen/sw/g16/g16/l703.exe)
 Integral derivatives from FoFJK, PRISM(SPDF).
 Compute integral first derivatives, UseDBF=F ICtDFT=           0.
 Calling FoFJK, ICntrl=      2127 FMM=F ISym2X=0 I1Cent= 0 IOpClX= 0 NMat=1 NMatS=1 NMatT=0.
 FoFJK:  IHMeth= 1 ICntrl=    2127 DoSepK=F KAlg= 0 I1Cent=           0 FoldK=F
 IRaf=         0 NMat=       1 IRICut=       1 DoRegI=T DoRafI=F ISym2E= 0 IDoP0=0 IntGTp=1.
 FoFCou: FMM=F IPFlag=           0 FMFlag=      100000 FMFlg1=         800
         NFxFlg=           0 DoJE=F BraDBF=F KetDBF=F FulRan=T
         wScrn=  0.000000 ICntrl=      2127 IOpCl=  0 I1Cent=           0 NGrid=           0
         NMat0=    1 NMatS0=      1 NMatT0=    0 NMatD0=    1 NMtDS0=    0 NMtDT0=    0
 Symmetry not used in FoFCou.
 Leave Link  703 at Tue Jan  7 23:43:32 2020, MaxMem=  4294967296 cpu:              33.7 elap:               2.4
 (Enter /home/cwagen/sw/g16/g16/l716.exe)
 Dipole        =-3.37569759D+00 1.13667800D+00-1.13375703D+00
 ***** Axes restored to original set *****
 -------------------------------------------------------------------
 Center     Atomic                   Forces (Hartrees/Bohr)
 Number     Number              X              Y              Z
 -------------------------------------------------------------------
      1        6          -0.009579620   -0.037774605   -0.039779425
      2        8           0.007864584    0.009575364    0.027836417
      3        6           0.008856210    0.010492144    0.001534322
      4        1          -0.000554361   -0.000114978   -0.001680733
      5        1          -0.001471029   -0.000925707    0.000617664
      6        1          -0.000612295    0.000112844   -0.000301091
      7       17          -0.005638029    0.018225656    0.009564129
      8        6          -0.003158891   -0.000896969    0.002339574
      9        7           0.004293431    0.001306252   -0.000130856
 -------------------------------------------------------------------
 Cartesian Forces:  Max     0.039779425 RMS     0.013220696
 Leave Link  716 at Tue Jan  7 23:43:32 2020, MaxMem=  4294967296 cpu:               1.2 elap:               0.1
 (Enter /home/cwagen/sw/g16/g16/l103.exe)

 GradGradGradGradGradGradGradGradGradGradGradGradGradGradGradGradGradGrad
 Berny optimization.
 Using GEDIIS/GDIIS optimizer.
 FormGI is forming the generalized inverse of G from B-inverse, IUseBI=4.
 Internal  Forces:  Max     0.029089490 RMS     0.007373622
 Search for a local minimum.
 Step number   2 out of a maximum of   41
 All quantities printed in internal units (Hartrees-Bohrs-Radians)
 RMS Force = .66279D-02 SwitMx=.10000D-02 MixMth= 1
 Mixed Optimization -- RFO/linear search
 Update second derivatives using D2CorX and points    1    2
 DE= -1.94D-02 DEPred=-1.67D-02 R= 1.16D+00
 TightC=F SS=  1.41D+00  RLast= 3.65D-01 DXNew= 5.0454D-01 1.0963D+00
 Trust test= 1.16D+00 RLast= 3.65D-01 DXMaxT set to 5.05D-01
 ITU=  1  0
 Use linear search instead of GDIIS.
     Eigenvalues ---    0.00230   0.04741   0.04746   0.05391   0.05579
     Eigenvalues ---    0.06067   0.10176   0.15991   0.16000   0.16146
     Eigenvalues ---    0.23300   0.25000   0.26410   0.27446   0.33976
     Eigenvalues ---    0.33989   0.34274   0.56095   1.217581000.00000
     Eigenvalues --- 1000.000001000.000001000.000001000.000001000.00000
     Eigenvalues --- 1000.000001000.000001000.000001000.000001000.00000
     Eigenvalues --- 1000.00000
 RFO step:  Lambda=-1.30059870D-03 EMin= 2.29994815D-03
 Quartic linear search produced a step of  0.44467.
 Iteration  1 RMS(Cart)=  0.05327491 RMS(Int)=  0.00374240
 Iteration  2 RMS(Cart)=  0.00255980 RMS(Int)=  0.00308895
 Iteration  3 RMS(Cart)=  0.00000532 RMS(Int)=  0.00308895
 Iteration  4 RMS(Cart)=  0.00000005 RMS(Int)=  0.00308895
 Iteration  1 RMS(Cart)=  0.00000000 RMS(Int)=  0.00000000
 ITry= 1 IFail=0 DXMaxC= 1.11D-01 DCOld= 1.00D+10 DXMaxT= 5.05D-01 DXLimC= 3.00D+00 Rises=F
 Variable       Old X    -DE/DX   Delta X   Delta X   Delta X     New X
                                 (Linear)    (Quad)   (Total)
    R1        2.32264  -0.02909  -0.05764  -0.00488  -0.06252   2.26012
    R2        2.87889  -0.00693  -0.02941  -0.00440  -0.03381   2.84508
    R3        3.40151   0.02022   0.00000   0.00000   0.00000   3.40151
    R4        4.53534   0.00162   0.00000   0.00000   0.00000   4.53534
    R5        2.06738  -0.00167  -0.00264  -0.00429  -0.00692   2.06045
    R6        2.06941   0.00168  -0.00234   0.00968   0.00734   2.07675
    R7        2.06595  -0.00040  -0.00121  -0.00038  -0.00159   2.06435
    R8        2.22241   0.00447   0.00586  -0.00030   0.00556   2.22797
    A1        2.12254   0.00932   0.05597   0.00817   0.05659   2.17913
    A2        2.02209   0.00172   0.00134   0.04678   0.03828   2.06037
    A3        1.83059  -0.00140  -0.02748  -0.00053  -0.02324   1.80735
    A4        1.97170  -0.00465   0.02113  -0.03572  -0.02363   1.94807
    A5        1.68439  -0.00727  -0.03893  -0.02808  -0.06459   1.61980
    A6        1.73702  -0.00259  -0.04348  -0.00759  -0.05225   1.68477
    A7        1.97196  -0.00082  -0.00090  -0.00662  -0.00753   1.96443
    A8        1.85157   0.00111  -0.01239   0.02562   0.01319   1.86476
    A9        1.89818  -0.00015  -0.00143   0.00075  -0.00070   1.89748
   A10        1.91414  -0.00035   0.00470  -0.00964  -0.00496   1.90918
   A11        1.91535   0.00056   0.00310   0.00099   0.00409   1.91944
   A12        1.91111  -0.00035   0.00692  -0.01078  -0.00391   1.90721
   A13        3.09766   0.00059   0.00165   0.01431   0.01597   3.11363
   A14        2.87775  -0.00051  -0.00162  -0.01177  -0.01339   2.86436
    D1        2.94659  -0.00473  -0.04380  -0.04240  -0.08876   2.85783
    D2       -1.23885  -0.00491  -0.04681  -0.04125  -0.09062  -1.32947
    D3        0.81538  -0.00479  -0.04614  -0.03978  -0.08846   0.72692
    D4       -0.80940   0.00593   0.05223   0.00429   0.05743  -0.75197
    D5        1.28834   0.00575   0.04922   0.00544   0.05557   1.34391
    D6       -2.94062   0.00587   0.04989   0.00692   0.05773  -2.88289
    D7        0.99268  -0.00131  -0.00824  -0.02485  -0.03146   0.96122
    D8        3.09042  -0.00149  -0.01125  -0.02370  -0.03332   3.05710
    D9       -1.13854  -0.00137  -0.01058  -0.02223  -0.03116  -1.16970
         Item               Value     Threshold  Converged?
 Maximum Force            0.029089     0.000450     NO 
 RMS     Force            0.006628     0.000300     NO 
 Maximum Displacement     0.111092     0.001800     NO 
 RMS     Displacement     0.054177     0.001200     NO 
 Predicted change in Energy=-3.465888D-03
 Lowest energy point so far.  Saving SCF results.
 GradGradGradGradGradGradGradGradGradGradGradGradGradGradGradGradGradGrad

 Leave Link  103 at Tue Jan  7 23:43:37 2020, MaxMem=  4294967296 cpu:              67.4 elap:               5.2
 (Enter /home/cwagen/sw/g16/g16/l202.exe)
                          Input orientation:                          
 ---------------------------------------------------------------------
 Center     Atomic      Atomic             Coordinates (Angstroms)
 Number     Number       Type             X           Y           Z
 ---------------------------------------------------------------------
      1          6           0       -0.303470   -0.378227   -0.283419
      2          8           0       -0.231618   -0.600163   -1.456453
      3          6           0       -0.291063   -1.430132    0.793626
      4          1           0       -0.082911   -1.015799    1.780466
      5          1           0       -1.286716   -1.895326    0.795876
      6          1           0        0.458280   -2.183283    0.539451
      7         17           0       -1.179644    1.102392    0.245813
      8          6           0        1.898821    0.392075    0.279205
      9          7           0        3.038037    0.689421    0.340808
 ---------------------------------------------------------------------
                    Distance matrix (angstroms):
                    1          2          3          4          5
     1  C    0.000000
     2  O    1.196005   0.000000
     3  C    1.505551   2.399007   0.000000
     4  H    2.171350   3.266880   1.090344   0.000000
     5  H    2.105525   2.804222   1.098970   1.786653   0.000000
     6  H    2.124995   2.639292   1.092409   1.787743   1.787088
     7  Cl   1.800000   2.587500   2.739225   2.836321   3.049647
     8  C    2.400000   2.921612   2.894936   2.857124   3.955603
     9  N    3.563033   3.947634   3.972462   3.836758   5.058804
                    6          7          8          9
     6  H    0.000000
     7  Cl   3.683026   0.000000
     8  C    2.962323   3.159528   0.000000
     9  N    3.866140   4.238916   1.178992   0.000000
 Stoichiometry    C3H3ClNO(1-)
 Framework group  C1[X(C3H3ClNO)]
 Deg. of freedom    21
 Full point group                 C1      NOp   1
 RotChk:  IX=0 Diff= 6.29D-02
 Largest Abelian subgroup         C1      NOp   1
 Largest concise Abelian subgroup C1      NOp   1
                         Standard orientation:                         
 ---------------------------------------------------------------------
 Center     Atomic      Atomic             Coordinates (Angstroms)
 Number     Number       Type             X           Y           Z
 ---------------------------------------------------------------------
      1          6           0       -0.462964    0.491788    0.246577
      2          8           0       -0.484502    0.853620    1.386332
      3          6           0       -0.413442    1.408767   -0.946477
      4          1           0       -0.118855    0.891174   -1.859804
      5          1           0       -1.423519    1.823267   -1.071654
      6          1           0        0.286047    2.220926   -0.735598
      7         17           0       -1.240999   -1.080337   -0.157261
      8          6           0        1.802205   -0.235405   -0.069969
      9          7           0        2.953504   -0.484214   -0.018708
 ---------------------------------------------------------------------
 Rotational constants (GHZ):           3.6086997           1.8505438           1.5886045
 Leave Link  202 at Tue Jan  7 23:43:37 2020, MaxMem=  4294967296 cpu:               2.2 elap:               0.2
 (Enter /home/cwagen/sw/g16/g16/l301.exe)
 Standard basis: 6-31+G(d) (6D, 7F)
 Ernie: Thresh=  0.10000D-02 Tol=  0.10000D-05 Strict=F.
 There are   124 symmetry adapted cartesian basis functions of A   symmetry.
 There are   124 symmetry adapted basis functions of A   symmetry.
   124 basis functions,   228 primitive gaussians,   124 cartesian basis functions
    27 alpha electrons       27 beta electrons
       nuclear repulsion energy       248.0021763941 Hartrees.
 IExCor=  402 DFT=T Ex+Corr=B3LYP ExCW=0 ScaHFX=  0.200000
 ScaDFX=  0.800000  0.720000  1.000000  0.810000 ScalE2=  1.000000  1.000000
 IRadAn=      5 IRanWt=     -1 IRanGd=            0 ICorTp=0 IEmpDi=  4
 NAtoms=    9 NActive=    9 NUniq=    9 SFac= 1.00D+00 NAtFMM=   60 NAOKFM=F Big=F
 Integral buffers will be    131072 words long.
 Raffenetti 2 integral format.
 Two-electron integral symmetry is turned on.
 ------------------------------------------------------------------------------
 Polarizable Continuum Model (PCM)
 =================================
 Model                : PCM.
 Atomic radii         : SMD-Coulomb.
 Polarization charges : Total charges.
 Charge compensation  : None.
 Solution method      : On-the-fly selection.
 Cavity type          : VdW (van der Waals Surface) (Alpha=1.000).
 Cavity algorithm     : GePol (No added spheres)
                        Default sphere list used, NSphG=    9.
                        Lebedev-Laikov grids with approx.  5.0 points / Ang**2.
                        Smoothing algorithm: York/Karplus (Gamma=1.0000).
                        Polarization charges: spherical gaussians, with
                                              point-specific exponents (IZeta= 3).
                        Self-potential: point-specific (ISelfS= 7).
                        Self-field    : sphere-specific E.n sum rule (ISelfD= 2).
 1st derivatives      : Analytical E(r).r(x)/FMM algorithm (CHGder, D1EAlg=3).
                        Cavity 1st derivative terms included.
 Solvent              : TetraHydroFuran, Eps=   7.425700 Eps(inf)=   1.974025
 ------------------------------------------------------------------------------
 Spheres list:
 ISph  on   Nord     Re0    Alpha      Xe            Ye            Ze
    1   C      1    1.8500  1.000     -0.462964      0.491788      0.246577
    2   O      2    2.2940  1.000     -0.484502      0.853620      1.386332
    3   C      3    1.8500  1.000     -0.413442      1.408767     -0.946477
    4   H      4    1.2000  1.000     -0.118855      0.891174     -1.859804
    5   H      5    1.2000  1.000     -1.423519      1.823267     -1.071654
    6   H      6    1.2000  1.000      0.286047      2.220926     -0.735598
    7  Cl      7    2.3800  1.000     -1.240999     -1.080337     -0.157261
    8   C      8    1.8500  1.000      1.802205     -0.235405     -0.069969
    9   N      9    1.8900  1.000      2.953504     -0.484214     -0.018708
 ------------------------------------------------------------------------------
 GePol: Number of generator spheres                  =       9
 GePol: Total number of spheres                      =       9
 GePol: Number of exposed spheres                    =       9 (100.00%)
 GePol: Number of points                             =    1175
 GePol: Average weight of points                     =       0.14
 GePol: Minimum weight of points                     =   0.55D-07
 GePol: Maximum weight of points                     =    0.18138
 GePol: Number of points with low weight             =      28
 GePol: Fraction of low-weight points (<1% of avg)   =       2.38%
 GePol: Cavity surface area                          =    158.679 Ang**2
 GePol: Cavity volume                                =    145.018 Ang**3
 ------------------------------------------------------------------------------
 Atomic radii for non-electrostatic terms: SMD-CDS.
 ------------------------------------------------------------------------------
 PCM non-electrostatic energy =         0.0007164464 Hartrees.
 Nuclear repulsion after PCM non-electrostatic terms =      248.0028928404 Hartrees.
 Leave Link  301 at Tue Jan  7 23:43:38 2020, MaxMem=  4294967296 cpu:               3.6 elap:               0.3
[...]
 InvSVX:  RCond= 1.29D-06 Info=           0 Equed=N FErr=  2.09D-15 BErr=  9.19D-17
 RFO-DIIS uses    3 points instead of   10
 EnCoef did   100 forward-backward iterations
 IWarn =    2
 Energies =   -706.408511212      -706.408516422      -706.408517400      -706.408515873      -706.408515012    
 Energies =   -706.408517399      -706.408516075      -706.408516160      -706.408517763      -706.408516087    
 Point number   1 has energy  -0.7064085112D+03 and has been removed
 EnCoef did   100 forward-backward iterations
 IWarn =    2
 Energies =   -706.408516422      -706.408517400      -706.408515873      -706.408515012      -706.408517399    
 Energies =   -706.408516075      -706.408516160      -706.408517763      -706.408516087    
 Point number   4 has energy  -0.7064085150D+03 and has been removed
 EnCoef did   100 forward-backward iterations
 IWarn =    2
 Energies =   -706.408516422      -706.408517400      -706.408515873      -706.408517399      -706.408516075    
 Energies =   -706.408516160      -706.408517763      -706.408516087    
 Point number   3 has energy  -0.7064085159D+03 and has been removed
 EnCoef did   100 forward-backward iterations
 IWarn =    2
 Energies =   -706.408516422      -706.408517400      -706.408517399      -706.408516075      -706.408516160    
 Energies =   -706.408517763      -706.408516087    
 Point number   4 has energy  -0.7064085161D+03 and has been removed
 EnCoef did   100 forward-backward iterations
 IWarn =    2
 Energies =   -706.408516422      -706.408517400      -706.408517399      -706.408516160      -706.408517763    
 Energies =   -706.408516087    
 Point number   4 has energy  -0.7064085162D+03 and has been removed
 EnCoef did   100 forward-backward iterations
 IWarn =    2
 Energies =   -706.408516422      -706.408517400      -706.408517399      -706.408517763      -706.408516087    
 Point number   1 has energy  -0.7064085164D+03 and has been removed
 EnCoef did   100 forward-backward iterations
 IWarn =    2
 Energies =   -706.408517400      -706.408517399      -706.408517763      -706.408516087    
 Point number   2 has energy  -0.7064085174D+03 and has been removed
 EnCoef did   100 forward-backward iterations
 IWarn =    2
 Energies =   -706.408517400      -706.408517763      -706.408516087    
 Point number   1 has energy  -0.7064085174D+03 and has been removed
 IWarn =    0
 DidBck=T Rises=T En-DIIS coefs:    0.13478    0.86522    0.00000    0.00000    0.00000
                  En-DIIS coefs:    0.00000    0.00000    0.00000    0.00000    0.00000
 Iteration  1 RMS(Cart)=  0.00021505 RMS(Int)=  0.00000012
 Iteration  2 RMS(Cart)=  0.00000006 RMS(Int)=  0.00000011
 Iteration  1 RMS(Cart)=  0.00000000 RMS(Int)=  0.00000000
 ITry= 1 IFail=0 DXMaxC= 7.71D-04 DCOld= 1.00D+10 DXMaxT= 5.00D-02 DXLimC= 3.00D+00 Rises=F
 Variable       Old X    -DE/DX   Delta X   Delta X   Delta X     New X
                                 (Linear)    (Quad)   (Total)
    R1        2.27527   0.00000  -0.00011   0.00011   0.00000   2.27527
    R2        2.85023   0.00000  -0.00022   0.00023   0.00001   2.85024
    R3        3.40151   0.02248   0.00000   0.00000   0.00000   3.40151
    R4        4.53534   0.00948   0.00000   0.00000   0.00000   4.53534
    R5        2.05915   0.00000  -0.00004   0.00004   0.00000   2.05915
    R6        2.07848   0.00000   0.00010  -0.00011  -0.00001   2.07847
    R7        2.06481   0.00000  -0.00005   0.00005   0.00000   2.06481
    R8        2.22832   0.00000   0.00001  -0.00001   0.00000   2.22832
    A1        2.19285   0.00001   0.00050  -0.00047   0.00003   2.19288
    A2        2.05926   0.00000  -0.00035   0.00035   0.00000   2.05926
    A3        1.78853  -0.00001   0.00100  -0.00118  -0.00018   1.78835
    A4        1.95205  -0.00001  -0.00029   0.00027  -0.00002   1.95203
    A5        1.61376   0.00000  -0.00183   0.00189   0.00006   1.61382
    A6        1.67264   0.00001   0.00119  -0.00107   0.00012   1.67275
    A7        1.95897   0.00000  -0.00032   0.00031  -0.00001   1.95896
    A8        1.87041   0.00000   0.00046  -0.00046   0.00000   1.87041
    A9        1.90229   0.00000   0.00014  -0.00014   0.00000   1.90229
   A10        1.90465   0.00000  -0.00050   0.00050   0.00000   1.90464
   A11        1.92322   0.00000   0.00032  -0.00032   0.00000   1.92322
   A12        1.90293   0.00000  -0.00009   0.00010   0.00001   1.90294
   A13        3.18526   0.00000  -0.00356   0.00364   0.00008   3.18534
   A14        2.79924   0.00000   0.01755  -0.01831  -0.00076   2.79848
    D1        2.80383   0.00000  -0.00083   0.00070  -0.00013   2.80371
    D2       -1.38859   0.00000  -0.00134   0.00120  -0.00014  -1.38873
    D3        0.66837   0.00000  -0.00112   0.00099  -0.00012   0.66824
    D4       -0.76640   0.00000  -0.00133   0.00123  -0.00010  -0.76650
    D5        1.32436   0.00000  -0.00183   0.00172  -0.00011   1.32425
    D6       -2.90187   0.00000  -0.00161   0.00152  -0.00009  -2.90196
    D7        0.93160   0.00001  -0.00082   0.00087   0.00005   0.93166
    D8        3.02237   0.00001  -0.00133   0.00137   0.00004   3.02240
    D9       -1.20386   0.00001  -0.00111   0.00116   0.00005  -1.20381
         Item               Value     Threshold  Converged?
 Maximum Force            0.000013     0.000450     YES
 RMS     Force            0.000005     0.000300     YES
 Maximum Displacement     0.000771     0.001800     YES
 RMS     Displacement     0.000215     0.001200     YES
 Predicted change in Energy=-4.159620D-09
 Optimization completed.
    -- Stationary point found.
                           ----------------------------
                           !   Optimized Parameters   !
                           ! (Angstroms and Degrees)  !
 --------------------------                            --------------------------
 ! Name  Definition              Value          Derivative Info.                !
 --------------------------------------------------------------------------------
 ! R1    R(1,2)                  1.204          -DE/DX =    0.0                 !
 ! R2    R(1,3)                  1.5083         -DE/DX =    0.0                 !
 ! R3    R(1,7)                  1.8            -DE/DX =    0.0225              !
 ! R4    R(1,8)                  2.4            -DE/DX =    0.0095              !
 ! R5    R(3,4)                  1.0897         -DE/DX =    0.0                 !
 ! R6    R(3,5)                  1.0999         -DE/DX =    0.0                 !
 ! R7    R(3,6)                  1.0926         -DE/DX =    0.0                 !
 ! R8    R(8,9)                  1.1792         -DE/DX =    0.0                 !
 ! A1    A(2,1,3)              125.6412         -DE/DX =    0.0                 !
 ! A2    A(2,1,7)              117.9871         -DE/DX =    0.0                 !
 ! A3    A(2,1,8)              102.4755         -DE/DX =    0.0                 !
 ! A4    A(3,1,7)              111.8442         -DE/DX =    0.0                 !
 ! A5    A(3,1,8)               92.4618         -DE/DX =    0.0                 !
 ! A6    A(7,1,8)               95.8352         -DE/DX =    0.0                 !
 ! A7    A(1,3,4)              112.2409         -DE/DX =    0.0                 !
 ! A8    A(1,3,5)              107.1665         -DE/DX =    0.0                 !
 ! A9    A(1,3,6)              108.993          -DE/DX =    0.0                 !
 ! A10   A(4,3,5)              109.1282         -DE/DX =    0.0                 !
 ! A11   A(4,3,6)              110.1923         -DE/DX =    0.0                 !
 ! A12   A(5,3,6)              109.0299         -DE/DX =    0.0                 !
 ! A13   L(1,8,9,6,-1)         182.502          -DE/DX =    0.0                 !
 ! A14   L(1,8,9,6,-2)         160.3845         -DE/DX =    0.0                 !
 ! D1    D(2,1,3,4)            160.6477         -DE/DX =    0.0                 !
 ! D2    D(2,1,3,5)            -79.5606         -DE/DX =    0.0                 !
 ! D3    D(2,1,3,6)             38.2945         -DE/DX =    0.0                 !
 ! D4    D(7,1,3,4)            -43.9116         -DE/DX =    0.0                 !
 ! D5    D(7,1,3,5)             75.8801         -DE/DX =    0.0                 !
 ! D6    D(7,1,3,6)           -166.2648         -DE/DX =    0.0                 !
 ! D7    D(8,1,3,4)             53.377          -DE/DX =    0.0                 !
 ! D8    D(8,1,3,5)            173.1688         -DE/DX =    0.0                 !
 ! D9    D(8,1,3,6)            -68.9761         -DE/DX =    0.0                 !
 --------------------------------------------------------------------------------
 Largest change from initial coordinates is atom    4       0.166 Angstoms.
 GradGradGradGradGradGradGradGradGradGradGradGradGradGradGradGradGradGrad

 Leave Link  103 at Tue Jan  7 23:51:43 2020, MaxMem=  4294967296 cpu:              53.8 elap:               4.2
 (Enter /home/cwagen/sw/g16/g16/l202.exe)
                          Input orientation:                          
 ---------------------------------------------------------------------
 Center     Atomic      Atomic             Coordinates (Angstroms)
 Number     Number       Type             X           Y           Z
 ---------------------------------------------------------------------
      1          6           0       -0.301579   -0.385477   -0.283678
      2          8           0       -0.198321   -0.590397   -1.465630
      3          6           0       -0.297407   -1.439893    0.794789
      4          1           0       -0.066292   -1.025600    1.775756
      5          1           0       -1.303532   -1.883598    0.818877
      6          1           0        0.427296   -2.214308    0.532169
      7         17           0       -1.157205    1.107976    0.243107
      8          6           0        1.897997    0.372924    0.305127
      9          7           0        3.018760    0.739329    0.314855
 ---------------------------------------------------------------------
                    Distance matrix (angstroms):
                    1          2          3          4          5
     1  C    0.000000
     2  O    1.204020   0.000000
     3  C    1.508278   2.416807   0.000000
     4  H    2.169421   3.273136   1.089655   0.000000
     5  H    2.112796   2.848304   1.099883   1.783968   0.000000
     6  H    2.131077   2.649469   1.092650   1.789738   1.785312
     7  Cl   1.800000   2.593012   2.745039   2.844512   3.049990
     8  C    2.400000   2.908285   2.888923   2.824368   3.950395
     9  N    3.556414   3.909976   3.997037   3.842753   5.080944
                    6          7          8          9
     6  H    0.000000
     7  Cl   3.692123   0.000000
     8  C    2.984674   3.142993   0.000000
     9  N    3.935337   4.192819   1.179176   0.000000
 Stoichiometry    C3H3ClNO(1-)
 Framework group  C1[X(C3H3ClNO)]
 Deg. of freedom    21
 Full point group                 C1      NOp   1
 RotChk:  IX=0 Diff= 6.65D-16
 Largest Abelian subgroup         C1      NOp   1
 Largest concise Abelian subgroup C1      NOp   1
                         Standard orientation:                         
 ---------------------------------------------------------------------
 Center     Atomic      Atomic             Coordinates (Angstroms)
 Number     Number       Type             X           Y           Z
 ---------------------------------------------------------------------
      1          6           0       -0.476146    0.493254    0.251296
      2          8           0       -0.463993    0.827887    1.407816
      3          6           0       -0.457662    1.426067   -0.933786
      4          1           0       -0.138668    0.925616   -1.847646
      5          1           0       -1.482824    1.801454   -1.067459
      6          1           0        0.203957    2.267358   -0.713847
      7         17           0       -1.210798   -1.097687   -0.160036
      8          6           0        1.796482   -0.185144   -0.116040
      9          7           0        2.933859   -0.480272   -0.017397
 ---------------------------------------------------------------------
 Rotational constants (GHZ):           3.5617961           1.8728241           1.6032364
 Leave Link  202 at Tue Jan  7 23:51:43 2020, MaxMem=  4294967296 cpu:               2.1 elap:               0.2
 (Enter /home/cwagen/sw/g16/g16/l601.exe)
 Copying SCF densities to generalized density rwf, IOpCl= 0 IROHF=0.

 **********************************************************************

            Population analysis using the SCF density.

 **********************************************************************

 Orbital symmetries:
       Occupied  (A) (A) (A) (A) (A) (A) (A) (A) (A) (A) (A) (A)
                 (A) (A) (A) (A) (A) (A) (A) (A) (A) (A) (A) (A)
                 (A) (A) (A)
       Virtual   (A) (A) (A) (A) (A) (A) (A) (A) (A) (A) (A) (A)
                 (A) (A) (A) (A) (A) (A) (A) (A) (A) (A) (A) (A)
                 (A) (A) (A) (A) (A) (A) (A) (A) (A) (A) (A) (A)
                 (A) (A) (A) (A) (A) (A) (A) (A) (A) (A) (A) (A)
                 (A) (A) (A) (A) (A) (A) (A) (A) (A) (A) (A) (A)
                 (A) (A) (A) (A) (A) (A) (A) (A) (A) (A) (A) (A)
                 (A) (A) (A) (A) (A) (A) (A) (A) (A) (A) (A) (A)
                 (A) (A) (A) (A) (A) (A) (A) (A) (A) (A) (A) (A)
                 (A)
 The electronic state is 1-A.
 Alpha  occ. eigenvalues -- -101.51865 -19.14017 -14.26480 -10.31499 -10.17766
 Alpha  occ. eigenvalues --  -10.13001  -9.43600  -7.19881  -7.19089  -7.19026
 Alpha  occ. eigenvalues --   -1.04985  -0.82326  -0.82019  -0.72291  -0.53002
 Alpha  occ. eigenvalues --   -0.45462  -0.44600  -0.43491  -0.38106  -0.36587
 Alpha  occ. eigenvalues --   -0.34661  -0.29872  -0.29456  -0.26999  -0.26831
 Alpha  occ. eigenvalues --   -0.26120  -0.23222
 Alpha virt. eigenvalues --   -0.00751   0.02656   0.04401   0.05183   0.05915
 Alpha virt. eigenvalues --    0.06301   0.08524   0.09006   0.09182   0.09693
 Alpha virt. eigenvalues --    0.10951   0.11054   0.11677   0.13461   0.13738
 Alpha virt. eigenvalues --    0.14467   0.14787   0.16686   0.19215   0.22077
 Alpha virt. eigenvalues --    0.23634   0.24132   0.25062   0.25877   0.26714
 Alpha virt. eigenvalues --    0.28756   0.28774   0.30507   0.33673   0.35446
 Alpha virt. eigenvalues --    0.36663   0.40171   0.44973   0.56107   0.58555
 Alpha virt. eigenvalues --    0.63303   0.64974   0.66409   0.67833   0.71971
 Alpha virt. eigenvalues --    0.73291   0.74741   0.77338   0.78911   0.82905
 Alpha virt. eigenvalues --    0.84825   0.87433   0.90800   0.93122   0.94879
 Alpha virt. eigenvalues --    1.00280   1.02056   1.04039   1.04137   1.05664
 Alpha virt. eigenvalues --    1.08420   1.12270   1.16051   1.20621   1.28859
 Alpha virt. eigenvalues --    1.30578   1.35765   1.37588   1.39173   1.49027
 Alpha virt. eigenvalues --    1.57450   1.58798   1.61151   1.61650   1.64184
 Alpha virt. eigenvalues --    1.67043   1.77800   1.80782   1.83535   1.88863
 Alpha virt. eigenvalues --    1.94506   2.03444   2.03790   2.06487   2.21362
 Alpha virt. eigenvalues --    2.24810   2.30648   2.41640   2.52834   2.55999
 Alpha virt. eigenvalues --    2.64574   2.66499   2.69270   2.87853   3.08169
 Alpha virt. eigenvalues --    3.14064   4.03630   4.21718   4.31389   4.35938
 Alpha virt. eigenvalues --    4.38705   4.51014
          Condensed to atoms (all electrons):
               1          2          3          4          5          6
     1  C    6.873430   0.405909  -0.877274  -0.092028   0.047971  -0.113239
     2  O    0.405909   8.178039  -0.047636   0.008172  -0.009776   0.003131
     3  C   -0.877274  -0.047636   6.513471   0.408085   0.297645   0.430885
     4  H   -0.092028   0.008172   0.408085   0.460193  -0.026978  -0.021700
     5  H    0.047971  -0.009776   0.297645  -0.026978   0.479517  -0.023934
     6  H   -0.113239   0.003131   0.430885  -0.021700  -0.023934   0.462068
     7  Cl  -0.538072  -0.099787   0.179879   0.017117  -0.017490   0.015626
     8  C    0.574816  -0.148734  -0.490594  -0.004634   0.011042  -0.002911
     9  N   -0.046032   0.002258   0.020957  -0.000218  -0.000131  -0.000260
               7          8          9
     1  C   -0.538072   0.574816  -0.046032
     2  O   -0.099787  -0.148734   0.002258
     3  C    0.179879  -0.490594   0.020957
     4  H    0.017117  -0.004634  -0.000218
     5  H   -0.017490   0.011042  -0.000131
     6  H    0.015626  -0.002911  -0.000260
     7  Cl  17.559590  -0.169252   0.002905
     8  C   -0.169252   5.744706   0.631914
     9  N    0.002905   0.631914   7.073724
 Mulliken charges:
               1
     1  C   -0.235481
     2  O   -0.291576
     3  C   -0.435418
     4  H    0.251991
     5  H    0.242134
     6  H    0.250334
     7  Cl   0.049483
     8  C   -0.146351
     9  N   -0.685116
 Sum of Mulliken charges =  -1.00000
 Mulliken charges with hydrogens summed into heavy atoms:
               1
     1  C   -0.235481
     2  O   -0.291576
     3  C    0.309041
     7  Cl   0.049483
     8  C   -0.146351
     9  N   -0.685116
 Electronic spatial extent (au):  <R**2>=            802.6343
 Charge=             -1.0000 electrons
 Dipole moment (field-independent basis, Debye):
    X=             -8.8329    Y=              2.9808    Z=             -2.7605  Tot=              9.7224
 Quadrupole moment (field-independent basis, Debye-Ang):
   XX=            -76.5725   YY=            -46.5288   ZZ=            -49.2525
   XY=              3.2409   XZ=              1.7981   YZ=             -3.5037
 Traceless Quadrupole moment (field-independent basis, Debye-Ang):
   XX=            -19.1212   YY=             10.9225   ZZ=              8.1987
   XY=              3.2409   XZ=              1.7981   YZ=             -3.5037
 Octapole moment (field-independent basis, Debye-Ang**2):
  XXX=           -113.7766  YYY=              5.3443  ZZZ=             -4.7980  XYY=            -10.4304
  XXY=             18.6942  XXZ=              1.0597  XZZ=             -6.0190  YZZ=             -1.8930
  YYZ=             -2.8148  XYZ=              1.4558
 Hexadecapole moment (field-independent basis, Debye-Ang**3):
 XXXX=           -991.8384 YYYY=           -289.7893 ZZZZ=           -186.9639 XXXY=             52.1571
 XXXZ=              2.6610 YYYX=             15.0143 YYYZ=             -0.9541 ZZZX=              3.5225
 ZZZY=             -3.4247 XXYY=           -173.1057 XXZZ=           -150.3280 YYZZ=            -83.8917
 XXYZ=             -0.4314 YYXZ=              2.8935 ZZXY=              4.3073
 N-N= 2.479410552238D+02 E-N=-2.173914085911D+03  KE= 7.027215887113D+02
 No NMR shielding tensors so no spin-rotation constants.
 Leave Link  601 at Tue Jan  7 23:51:44 2020, MaxMem=  4294967296 cpu:              14.2 elap:               1.1
 (Enter /home/cwagen/sw/g16/g16/l9999.exe)
 1\1\GINC-NODE042\FOpt\RB3LYP\6-31+G(d)\C3H3Cl1N1O1(1-)\CWAGEN\07-Jan-2
 020\0\\#p opt=modredundant b3lyp/6-31+g(d) scrf=(smd, solvent=tetrahyd
 rofuran)\\title\\-1,1\C,-0.3015792562,-0.3854768871,-0.2836781866\O,-0
 .1983214464,-0.5903969444,-1.4656301991\C,-0.2974073259,-1.4398925602,
 0.7947891602\H,-0.0662917574,-1.0256000778,1.7757560002\H,-1.303532393
 5,-1.8835978756,0.8188774937\H,0.42729609,-2.2143079196,0.5321693123\C
 l,-1.1572048275,1.1079761005,0.2431073884\C,1.897997144,0.3729243285,0
 .3051267324\N,3.018760023,0.7393287355,0.3148546185\\Version=AS64L-G16
 RevA.03\State=1-A\HF=-706.4085161\RMSD=6.127e-09\RMSF=6.518e-03\Dipole
 =-3.4553104,-1.4743184,0.7201594\Quadrupole=-13.6146036,8.3465653,5.26
 80383,-3.3246175,-2.7551394,-2.6358014\PG=C01 [X(C3H3Cl1N1O1)]\\@


 Cherishing children is the mark of a civilized society.
 -- Joan Ganz Cooney
 Job cpu time:       0 days  2 hours 11 minutes 58.7 seconds.
 Elapsed time:       0 days  0 hours  9 minutes 47.1 seconds.
 File lengths (MBytes):  RWF=     35 Int=      0 D2E=      0 Chk=      3 Scr=      1
 Normal termination of Gaussian 16 at Tue Jan  7 23:51:45 2020.
