 Entering Gaussian System, Link 0=g16
 Input=scan_190_140.gjf
 Output=scan_190_140.out
 Initial command:
 /home/cwagen/sw/g16/g16/l1.exe "/scratch/users/cwagen/cwagen_scan_190_140/Gau-5510.inp" -scrdir="/scratch/users/cwagen/cwagen_scan_190_140/"
 Entering Link 1 = /home/cwagen/sw/g16/g16/l1.exe PID=      5511.
  
 Copyright (c) 1988,1990,1992,1993,1995,1998,2003,2009,2016,
            Gaussian, Inc.  All Rights Reserved.
  
 This is part of the Gaussian(R) 16 program.  It is based on
 the Gaussian(R) 09 system (copyright 2009, Gaussian, Inc.),
 the Gaussian(R) 03 system (copyright 2003, Gaussian, Inc.),
 the Gaussian(R) 98 system (copyright 1998, Gaussian, Inc.),
 the Gaussian(R) 94 system (copyright 1995, Gaussian, Inc.),
 the Gaussian 92(TM) system (copyright 1992, Gaussian, Inc.),
 the Gaussian 90(TM) system (copyright 1990, Gaussian, Inc.),
 the Gaussian 88(TM) system (copyright 1988, Gaussian, Inc.),
 the Gaussian 86(TM) system (copyright 1986, Carnegie Mellon
 University), and the Gaussian 82(TM) system (copyright 1983,
 Carnegie Mellon University). Gaussian is a federally registered
 trademark of Gaussian, Inc.
  
 This software contains proprietary and confidential information,
 including trade secrets, belonging to Gaussian, Inc.
  
 This software is provided under written license and may be
 used, copied, transmitted, or stored only in accord with that
 written license.
  
 The following legend is applicable only to US Government
 contracts under FAR:
  
                    RESTRICTED RIGHTS LEGEND
  
 Use, reproduction and disclosure by the US Government is
 subject to restrictions as set forth in subparagraphs (a)
 and (c) of the Commercial Computer Software - Restricted
 Rights clause in FAR 52.227-19.
  
 Gaussian, Inc.
 340 Quinnipiac St., Bldg. 40, Wallingford CT 06492
  
  
 ---------------------------------------------------------------
 Warning -- This program may not be used in any manner that
 competes with the business of Gaussian, Inc. or will provide
 assistance to any competitor of Gaussian, Inc.  The licensee
 of this program is prohibited from giving any competitor of
 Gaussian, Inc. access to this program.  By using this program,
 the user acknowledges that Gaussian, Inc. is engaged in the
 business of creating and licensing software in the field of
 computational chemistry and represents and warrants to the
 licensee that it is not a competitor of Gaussian, Inc. and that
 it will not use this program in any manner prohibited above.
 ---------------------------------------------------------------
  

 Cite this work as:
 Gaussian 16, Revision A.03,
 M. J. Frisch, G. W. Trucks, H. B. Schlegel, G. E. Scuseria, 
 M. A. Robb, J. R. Cheeseman, G. Scalmani, V. Barone, 
 G. A. Petersson, H. Nakatsuji, X. Li, M. Caricato, A. V. Marenich, 
 J. Bloino, B. G. Janesko, R. Gomperts, B. Mennucci, H. P. Hratchian, 
 J. V. Ortiz, A. F. Izmaylov, J. L. Sonnenberg, D. Williams-Young, 
 F. Ding, F. Lipparini, F. Egidi, J. Goings, B. Peng, A. Petrone, 
 T. Henderson, D. Ranasinghe, V. G. Zakrzewski, J. Gao, N. Rega, 
 G. Zheng, W. Liang, M. Hada, M. Ehara, K. Toyota, R. Fukuda, 
 J. Hasegawa, M. Ishida, T. Nakajima, Y. Honda, O. Kitao, H. Nakai, 
 T. Vreven, K. Throssell, J. A. Montgomery, Jr., J. E. Peralta, 
 F. Ogliaro, M. J. Bearpark, J. J. Heyd, E. N. Brothers, K. N. Kudin, 
 V. N. Staroverov, T. A. Keith, R. Kobayashi, J. Normand, 
 K. Raghavachari, A. P. Rendell, J. C. Burant, S. S. Iyengar, 
 J. Tomasi, M. Cossi, J. M. Millam, M. Klene, C. Adamo, R. Cammi, 
 J. W. Ochterski, R. L. Martin, K. Morokuma, O. Farkas, 
 J. B. Foresman, and D. J. Fox, Gaussian, Inc., Wallingford CT, 2016.
 
 ******************************************
 Gaussian 16:  AS64L-G16RevA.03 25-Dec-2016
                 7-Jan-2020 
 ******************************************
 %nprocshared=16
 Will use up to   16 processors via shared memory.
 %mem=32GB
 ----------------------------------------------------------------------
 #p opt=modredundant b3lyp/6-31+g(d) scrf=(smd, solvent=tetrahydrofuran
 )
 ----------------------------------------------------------------------
 1/18=120,19=15,26=3,38=1/1,3;
 2/9=110,12=2,17=6,18=5,40=1/2;
 3/5=1,6=6,7=11,11=2,25=1,30=1,70=32201,71=1,72=20,74=-5/1,2,3;
 4//1;
 5/5=2,38=5,53=20/2;
 6/7=2,8=2,9=2,10=2,28=1/1;
 7//1,2,3,16;
 1/18=20,19=15,26=3/3(2);
 2/9=110/2;
 99//99;
 2/9=110/2;
 3/5=1,6=6,7=11,11=2,25=1,30=1,70=32205,71=1,72=20,74=-5/1,2,3;
 4/5=5,16=3,69=1/1;
 5/5=2,38=5,53=20/2;
 7//1,2,3,16;
 1/18=20,19=15,26=3/3(-5);
 2/9=110/2;
 6/7=2,8=2,9=2,10=2,19=2,28=1/1;
 99/9=1/99;
 Leave Link    1 at Tue Jan  7 23:51:29 2020, MaxMem=  4294967296 cpu:               2.4 elap:               0.2
 (Enter /home/cwagen/sw/g16/g16/l101.exe)
 -----
 title
 -----
 Symbolic Z-matrix:
 Charge = -1 Multiplicity = 1
 6                    -0.19426  -0.292    -0.21291 
 8                    -0.25532  -0.66526  -1.45426 
 6                    -0.33095  -1.45422   0.81632 
 1                    -0.18039  -1.13044   1.85373 
 1                    -1.34067  -1.87301   0.71427 
 1                     0.39707  -2.23395   0.57058 
 17                   -1.33187   1.15115   0.26998 
 6                     1.10371   0.16252   0.04918 
 7                     2.23828   0.44281   0.07948 
 
 The following ModRedundant input section has been read:
 B       1       7 F                                                           
 B       1       8 F                                                           
 
 ITRead=  0  0  0  0  0  0  0  0  0
 MicOpt= -1 -1 -1 -1 -1 -1 -1 -1 -1
 NAtoms=      9 NQM=        9 NQMF=       0 NMMI=      0 NMMIF=      0
                NMic=       0 NMicF=      0.
                    Isotopes and Nuclear Properties:
 (Nuclear quadrupole moments (NQMom) in fm**2, nuclear magnetic moments (NMagM)
  in nuclear magnetons)

  Atom         1           2           3           4           5           6           7           8           9
 IAtWgt=          12          16          12           1           1           1          35          12          14
 AtmWgt=  12.0000000  15.9949146  12.0000000   1.0078250   1.0078250   1.0078250  34.9688527  12.0000000  14.0030740
 NucSpn=           0           0           0           1           1           1           3           0           2
 AtZEff=   0.0000000   0.0000000   0.0000000   0.0000000   0.0000000   0.0000000   0.0000000   0.0000000   0.0000000
 NQMom=    0.0000000   0.0000000   0.0000000   0.0000000   0.0000000   0.0000000  -8.1650000   0.0000000   2.0440000
 NMagM=    0.0000000   0.0000000   0.0000000   2.7928460   2.7928460   2.7928460   0.8218740   0.0000000   0.4037610
 AtZNuc=   6.0000000   8.0000000   6.0000000   1.0000000   1.0000000   1.0000000  17.0000000   6.0000000   7.0000000
 Leave Link  101 at Tue Jan  7 23:51:30 2020, MaxMem=  4294967296 cpu:               8.2 elap:               0.6
 (Enter /home/cwagen/sw/g16/g16/l103.exe)

 GradGradGradGradGradGradGradGradGradGradGradGradGradGradGradGradGradGrad
 Berny optimization.
 Initialization pass.
                           ----------------------------
                           !    Initial Parameters    !
                           ! (Angstroms and Degrees)  !
 --------------------------                            --------------------------
 ! Name  Definition              Value          Derivative Info.                !
 --------------------------------------------------------------------------------
 ! R1    R(1,2)                  1.2977         estimate D2E/DX2                !
 ! R2    R(1,3)                  1.5584         estimate D2E/DX2                !
 ! R3    R(1,7)                  1.9            Frozen                          !
 ! R4    R(1,8)                  1.4            Frozen                          !
 ! R5    R(3,4)                  1.0971         estimate D2E/DX2                !
 ! R6    R(3,5)                  1.0979         estimate D2E/DX2                !
 ! R7    R(3,6)                  1.0947         estimate D2E/DX2                !
 ! R8    R(8,9)                  1.1691         estimate D2E/DX2                !
 ! A1    A(2,1,3)              114.4006         estimate D2E/DX2                !
 ! A2    A(2,1,7)              115.6846         estimate D2E/DX2                !
 ! A3    A(2,1,8)              108.426          estimate D2E/DX2                !
 ! A4    A(3,1,7)              110.248          estimate D2E/DX2                !
 ! A5    A(3,1,8)              101.5248         estimate D2E/DX2                !
 ! A6    A(7,1,8)              105.1256         estimate D2E/DX2                !
 ! A7    A(1,3,4)              113.1005         estimate D2E/DX2                !
 ! A8    A(1,3,5)              107.683          estimate D2E/DX2                !
 ! A9    A(1,3,6)              108.9421         estimate D2E/DX2                !
 ! A10   A(4,3,5)              109.0662         estimate D2E/DX2                !
 ! A11   A(4,3,6)              109.3417         estimate D2E/DX2                !
 ! A12   A(5,3,6)              108.6067         estimate D2E/DX2                !
 ! A13   L(1,8,9,6,-1)         177.6911         estimate D2E/DX2                !
 ! A14   L(1,8,9,6,-2)         167.8199         estimate D2E/DX2                !
 ! D1    D(2,1,3,4)            174.4714         estimate D2E/DX2                !
 ! D2    D(2,1,3,5)            -64.9488         estimate D2E/DX2                !
 ! D3    D(2,1,3,6)             52.6633         estimate D2E/DX2                !
 ! D4    D(7,1,3,4)            -53.1046         estimate D2E/DX2                !
 ! D5    D(7,1,3,5)             67.4752         estimate D2E/DX2                !
 ! D6    D(7,1,3,6)           -174.9127         estimate D2E/DX2                !
 ! D7    D(8,1,3,4)             57.938          estimate D2E/DX2                !
 ! D8    D(8,1,3,5)            178.5177         estimate D2E/DX2                !
 ! D9    D(8,1,3,6)            -63.8702         estimate D2E/DX2                !
 --------------------------------------------------------------------------------
 Trust Radius=3.00D-01 FncErr=1.00D-07 GrdErr=1.00D-06 EigMax=2.50D+02 EigMin=1.00D-04
 Number of steps in this run=     41 maximum allowed number of steps=    100.
 GradGradGradGradGradGradGradGradGradGradGradGradGradGradGradGradGradGrad

 Leave Link  103 at Tue Jan  7 23:51:30 2020, MaxMem=  4294967296 cpu:               0.6 elap:               0.2
 (Enter /home/cwagen/sw/g16/g16/l202.exe)
                          Input orientation:                          
 ---------------------------------------------------------------------
 Center     Atomic      Atomic             Coordinates (Angstroms)
 Number     Number       Type             X           Y           Z
 ---------------------------------------------------------------------
      1          6           0       -0.194263   -0.291999   -0.212908
      2          8           0       -0.255321   -0.665256   -1.454255
      3          6           0       -0.330945   -1.454221    0.816316
      4          1           0       -0.180394   -1.130438    1.853734
      5          1           0       -1.340665   -1.873010    0.714272
      6          1           0        0.397068   -2.233949    0.570583
      7         17           0       -1.331867    1.151149    0.269979
      8          6           0        1.103708    0.162516    0.049178
      9          7           0        2.238279    0.442814    0.079481
 ---------------------------------------------------------------------
                    Distance matrix (angstroms):
                    1          2          3          4          5
     1  C    0.000000
     2  O    1.297687   0.000000
     3  C    1.558443   2.404928   0.000000
     4  H    2.230287   3.341377   1.097150   0.000000
     5  H    2.161827   2.709087   1.097876   1.787740   0.000000
     6  H    2.175937   2.643176   1.094698   1.788205   1.780629
     7  Cl   1.900000   2.726034   2.843991   3.006628   3.056634
     8  C    1.400000   2.189172   2.293593   2.564580   3.249719
     9  N    2.557870   3.130208   3.277587   3.387192   4.309853
                    6          7          8          9
     6  H    0.000000
     7  Cl   3.812934   0.000000
     8  C    2.552302   2.637835   0.000000
     9  N    3.285772   3.644718   1.169075   0.000000
 Stoichiometry    C3H3ClNO(1-)
 Framework group  C1[X(C3H3ClNO)]
 Deg. of freedom    21
 Full point group                 C1      NOp   1
 Largest Abelian subgroup         C1      NOp   1
 Largest concise Abelian subgroup C1      NOp   1
                         Standard orientation:                         
 ---------------------------------------------------------------------
 Center     Atomic      Atomic             Coordinates (Angstroms)
 Number     Number       Type             X           Y           Z
 ---------------------------------------------------------------------
      1          6           0        0.078249    0.345764    0.213106
      2          8           0        0.257777    0.732948    1.438606
      3          6           0        0.288562    1.463327   -0.852524
      4          1           0        0.226648    1.092449   -1.883229
      5          1           0       -0.488996    2.222697   -0.697308
      6          1           0        1.266978    1.927454   -0.692367
      7         17           0       -1.540091   -0.590126   -0.126133
      8          6           0        1.097493   -0.554167   -0.120460
      9          7           0        2.046982   -1.229084   -0.218915
 ---------------------------------------------------------------------
 Rotational constants (GHZ):           3.8712086           2.4352146           2.0782417
 Leave Link  202 at Tue Jan  7 23:51:30 2020, MaxMem=  4294967296 cpu:               2.4 elap:               0.2
 (Enter /home/cwagen/sw/g16/g16/l301.exe)
 Standard basis: 6-31+G(d) (6D, 7F)
 Ernie: Thresh=  0.10000D-02 Tol=  0.10000D-05 Strict=F.
 There are   124 symmetry adapted cartesian basis functions of A   symmetry.
 There are   124 symmetry adapted basis functions of A   symmetry.
   124 basis functions,   228 primitive gaussians,   124 cartesian basis functions
    27 alpha electrons       27 beta electrons
       nuclear repulsion energy       264.5437949533 Hartrees.
 IExCor=  402 DFT=T Ex+Corr=B3LYP ExCW=0 ScaHFX=  0.200000
 ScaDFX=  0.800000  0.720000  1.000000  0.810000 ScalE2=  1.000000  1.000000
 IRadAn=      5 IRanWt=     -1 IRanGd=            0 ICorTp=0 IEmpDi=  4
 NAtoms=    9 NActive=    9 NUniq=    9 SFac= 1.00D+00 NAtFMM=   60 NAOKFM=F Big=F
 Integral buffers will be    131072 words long.
 Raffenetti 2 integral format.
 Two-electron integral symmetry is turned on.
 ------------------------------------------------------------------------------
 Polarizable Continuum Model (PCM)
 =================================
 Model                : PCM.
 Atomic radii         : SMD-Coulomb.
 Polarization charges : Total charges.
 Charge compensation  : None.
 Solution method      : On-the-fly selection.
 Cavity type          : VdW (van der Waals Surface) (Alpha=1.000).
 Cavity algorithm     : GePol (No added spheres)
                        Default sphere list used, NSphG=    9.
                        Lebedev-Laikov grids with approx.  5.0 points / Ang**2.
                        Smoothing algorithm: York/Karplus (Gamma=1.0000).
                        Polarization charges: spherical gaussians, with
                                              point-specific exponents (IZeta= 3).
                        Self-potential: point-specific (ISelfS= 7).
                        Self-field    : sphere-specific E.n sum rule (ISelfD= 2).
 1st derivatives      : Analytical E(r).r(x)/FMM algorithm (CHGder, D1EAlg=3).
                        Cavity 1st derivative terms included.
 Solvent              : TetraHydroFuran, Eps=   7.425700 Eps(inf)=   1.974025
 ------------------------------------------------------------------------------
 Spheres list:
 ISph  on   Nord     Re0    Alpha      Xe            Ye            Ze
    1   C      1    1.8500  1.000      0.078249      0.345764      0.213106
    2   O      2    2.2940  1.000      0.257777      0.732948      1.438606
    3   C      3    1.8500  1.000      0.288562      1.463327     -0.852524
    4   H      4    1.2000  1.000      0.226648      1.092449     -1.883229
    5   H      5    1.2000  1.000     -0.488996      2.222697     -0.697308
    6   H      6    1.2000  1.000      1.266978      1.927454     -0.692367
    7  Cl      7    2.3800  1.000     -1.540091     -0.590126     -0.126133
    8   C      8    1.8500  1.000      1.097493     -0.554167     -0.120460
    9   N      9    1.8900  1.000      2.046982     -1.229084     -0.218915
 ------------------------------------------------------------------------------
 GePol: Number of generator spheres                  =       9
 GePol: Total number of spheres                      =       9
 GePol: Number of exposed spheres                    =       9 (100.00%)
 GePol: Number of points                             =    1105
 GePol: Average weight of points                     =       0.14
 GePol: Minimum weight of points                     =   0.48D-10
 GePol: Maximum weight of points                     =    0.18138
 GePol: Number of points with low weight             =      30
 GePol: Fraction of low-weight points (<1% of avg)   =       2.71%
 GePol: Cavity surface area                          =    150.466 Ang**2
 GePol: Cavity volume                                =    138.918 Ang**3
 ------------------------------------------------------------------------------
 Atomic radii for non-electrostatic terms: SMD-CDS.
 ------------------------------------------------------------------------------
 PCM non-electrostatic energy =        -0.0010355873 Hartrees.
 Nuclear repulsion after PCM non-electrostatic terms =      264.5427593659 Hartrees.
 Leave Link  301 at Tue Jan  7 23:51:30 2020, MaxMem=  4294967296 cpu:               2.1 elap:               0.2
 (Enter /home/cwagen/sw/g16/g16/l302.exe)
 NPDir=0 NMtPBC=     1 NCelOv=     1 NCel=       1 NClECP=     1 NCelD=      1
         NCelK=      1 NCelE2=     1 NClLst=     1 CellRange=     0.0.
 One-electron integrals computed using PRISM.
 One-electron integral symmetry used in STVInt
 NBasis=   124 RedAO= T EigKep=  2.30D-05  NBF=   124
 NBsUse=   124 1.00D-06 EigRej= -1.00D+00 NBFU=   124
 Precomputing XC quadrature grid using
 IXCGrd= 4 IRadAn=           5 IRanWt=          -1 IRanGd=           0 AccXCQ= 0.00D+00.
 Generated NRdTot=       0 NPtTot=           0 NUsed=           0 NTot=          32
 NSgBfM=   124   124   124   124   124 MxSgAt=     9 MxSgA2=     9.
 Leave Link  302 at Tue Jan  7 23:51:32 2020, MaxMem=  4294967296 cpu:              26.8 elap:               2.0
 (Enter /home/cwagen/sw/g16/g16/l303.exe)
 DipDrv:  MaxL=1.
 Leave Link  303 at Tue Jan  7 23:51:33 2020, MaxMem=  4294967296 cpu:               2.7 elap:               0.3
 (Enter /home/cwagen/sw/g16/g16/l401.exe)
 ExpMin= 4.38D-02 ExpMax= 2.52D+04 ExpMxC= 3.78D+03 IAcc=3 IRadAn=         5 AccDes= 0.00D+00
 Harris functional with IExCor=  402 and IRadAn=       5 diagonalized for initial guess.
 HarFok:  IExCor=  402 AccDes= 0.00D+00 IRadAn=         5 IDoV= 1 UseB2=F ITyADJ=14
 ICtDFT=  3500011 ScaDFX=  1.000000  1.000000  1.000000  1.000000
 FoFCou: FMM=F IPFlag=           0 FMFlag=      100000 FMFlg1=           0
         NFxFlg=           0 DoJE=T BraDBF=F KetDBF=T FulRan=T
         wScrn=  0.000000 ICntrl=       500 IOpCl=  0 I1Cent=   200000004 NGrid=           0
         NMat0=    1 NMatS0=      1 NMatT0=    0 NMatD0=    1 NMtDS0=    0 NMtDT0=    0
 Petite list used in FoFCou.
 Harris En= -706.423129659867    
 JPrj=0 DoOrth=F DoCkMO=F.
 Leave Link  401 at Tue Jan  7 23:51:34 2020, MaxMem=  4294967296 cpu:              25.4 elap:               1.9
 (Enter /home/cwagen/sw/g16/g16/l502.exe)
 Keep R1 ints in memory in canonical form, NReq=45236517.
 FoFCou: FMM=F IPFlag=           0 FMFlag=           0 FMFlg1=           0
         NFxFlg=           0 DoJE=F BraDBF=F KetDBF=F FulRan=T
         wScrn=  0.000000 ICntrl=       600 IOpCl=  0 I1Cent=           0 NGrid=           0
         NMat0=    1 NMatS0=   7750 NMatT0=    0 NMatD0=    1 NMtDS0=    0 NMtDT0=    0
 Symmetry not used in FoFCou.
 Two-electron integral symmetry not used.
 Closed shell SCF:
 Using DIIS extrapolation, IDIIS=  1040.
 NGot=  4294967296 LenX=  4264898079 LenY=  4264882262
 Requested convergence on RMS density matrix=1.00D-08 within 128 cycles.
 Requested convergence on MAX density matrix=1.00D-06.
 Requested convergence on             energy=1.00D-06.
 No special actions if energy rises.

 Cycle   1  Pass 1  IDiag  1:
 Inv3:  Mode=1 IEnd=     3663075.
 Iteration    1 A*A^-1 deviation from unit magnitude is 3.33D-15 for   1105.
 Iteration    1 A*A^-1 deviation from orthogonality  is 1.97D-15 for   1105    955.
 Iteration    1 A^-1*A deviation from unit magnitude is 3.11D-15 for   1105.
 Iteration    1 A^-1*A deviation from orthogonality  is 1.40D-15 for   1098    894.
 E= -706.176541751968    
 DIIS: error= 2.98D-02 at cycle   1 NSaved=   1.
 NSaved= 1 IEnMin= 1 EnMin= -706.176541751968     IErMin= 1 ErrMin= 2.98D-02
 ErrMax= 2.98D-02  0.00D+00 EMaxC= 1.00D-01 BMatC= 2.54D-01 BMatP= 2.54D-01
 IDIUse=3 WtCom= 7.02D-01 WtEn= 2.98D-01
 Coeff-Com:  0.100D+01
 Coeff-En:   0.100D+01
 Coeff:      0.100D+01
 Gap=     0.377 Goal=   None    Shift=    0.000
 GapD=    0.377 DampG=1.000 DampE=0.500 DampFc=0.5000 IDamp=-1.
 Damping current iteration by 5.00D-01
 RMSDP=4.91D-01 MaxDP=2.71D+01              OVMax= 5.94D-01

 Cycle   2  Pass 1  IDiag  1:
 E= -706.081293755910     Delta-E=        0.095247996059 Rises=F Damp=T
 DIIS: error= 2.10D-02 at cycle   2 NSaved=   2.
 NSaved= 2 IEnMin= 1 EnMin= -706.176541751968     IErMin= 2 ErrMin= 2.10D-02
 ErrMax= 2.10D-02  0.00D+00 EMaxC= 1.00D-01 BMatC= 1.29D-01 BMatP= 2.54D-01
 IDIUse=3 WtCom= 7.90D-01 WtEn= 2.10D-01
 Coeff-Com:  0.398D+00 0.602D+00
 Coeff-En:   0.613D+00 0.387D+00
 Coeff:      0.443D+00 0.557D+00
 Gap=     0.197 Goal=   None    Shift=    0.000
 RMSDP=2.38D-01 MaxDP=1.33D+01 DE= 9.52D-02 OVMax= 4.74D-01

 Cycle   3  Pass 1  IDiag  1:
 E= -706.360917061720     Delta-E=       -0.279623305810 Rises=F Damp=F
 DIIS: error= 1.15D-02 at cycle   3 NSaved=   3.
 NSaved= 3 IEnMin= 3 EnMin= -706.360917061720     IErMin= 3 ErrMin= 1.15D-02
 ErrMax= 1.15D-02  0.00D+00 EMaxC= 1.00D-01 BMatC= 5.06D-02 BMatP= 1.29D-01
 IDIUse=3 WtCom= 8.85D-01 WtEn= 1.15D-01
 Coeff-Com:  0.176D+00 0.374D+00 0.450D+00
 Coeff-En:   0.000D+00 0.000D+00 0.100D+01
 Coeff:      0.156D+00 0.331D+00 0.513D+00
 Gap=     0.216 Goal=   None    Shift=    0.000
 RMSDP=4.83D-03 MaxDP=2.03D-01 DE=-2.80D-01 OVMax= 6.37D-02

 Cycle   4  Pass 1  IDiag  1:
 E= -706.402351656464     Delta-E=       -0.041434594744 Rises=F Damp=F
 DIIS: error= 4.48D-03 at cycle   4 NSaved=   4.
 NSaved= 4 IEnMin= 4 EnMin= -706.402351656464     IErMin= 4 ErrMin= 4.48D-03
 ErrMax= 4.48D-03  0.00D+00 EMaxC= 1.00D-01 BMatC= 6.66D-03 BMatP= 5.06D-02
 IDIUse=3 WtCom= 9.55D-01 WtEn= 4.48D-02
 Coeff-Com:  0.158D-01 0.126D+00 0.270D+00 0.588D+00
 Coeff-En:   0.000D+00 0.000D+00 0.506D-01 0.949D+00
 Coeff:      0.151D-01 0.120D+00 0.260D+00 0.604D+00
 Gap=     0.208 Goal=   None    Shift=    0.000
 RMSDP=1.56D-03 MaxDP=5.79D-02 DE=-4.14D-02 OVMax= 3.49D-02

 Cycle   5  Pass 1  IDiag  1:
 E= -706.405315555976     Delta-E=       -0.002963899512 Rises=F Damp=F
 DIIS: error= 2.92D-03 at cycle   5 NSaved=   5.
 NSaved= 5 IEnMin= 5 EnMin= -706.405315555976     IErMin= 5 ErrMin= 2.92D-03
 ErrMax= 2.92D-03  0.00D+00 EMaxC= 1.00D-01 BMatC= 3.21D-03 BMatP= 6.66D-03
 IDIUse=3 WtCom= 9.71D-01 WtEn= 2.92D-02
 Coeff-Com: -0.185D-01 0.386D-01 0.112D+00 0.457D+00 0.410D+00
 Coeff-En:   0.000D+00 0.000D+00 0.000D+00 0.349D+00 0.651D+00
 Coeff:     -0.179D-01 0.375D-01 0.109D+00 0.454D+00 0.417D+00
 Gap=     0.204 Goal=   None    Shift=    0.000
 RMSDP=1.05D-03 MaxDP=5.08D-02 DE=-2.96D-03 OVMax= 1.82D-02

 Cycle   6  Pass 1  IDiag  1:
 E= -706.408125447964     Delta-E=       -0.002809891988 Rises=F Damp=F
 DIIS: error= 4.41D-04 at cycle   6 NSaved=   6.
 NSaved= 6 IEnMin= 6 EnMin= -706.408125447964     IErMin= 6 ErrMin= 4.41D-04
 ErrMax= 4.41D-04  0.00D+00 EMaxC= 1.00D-01 BMatC= 8.53D-05 BMatP= 3.21D-03
 IDIUse=3 WtCom= 9.96D-01 WtEn= 4.41D-03
 Coeff-Com: -0.104D-01 0.996D-02 0.253D-01 0.159D+00 0.209D+00 0.608D+00
 Coeff-En:   0.000D+00 0.000D+00 0.000D+00 0.000D+00 0.000D+00 0.100D+01
 Coeff:     -0.104D-01 0.992D-02 0.252D-01 0.158D+00 0.208D+00 0.610D+00
 Gap=     0.205 Goal=   None    Shift=    0.000
 RMSDP=4.61D-04 MaxDP=2.40D-02 DE=-2.81D-03 OVMax= 2.10D-03

 Cycle   7  Pass 1  IDiag  1:
 E= -706.408197689717     Delta-E=       -0.000072241753 Rises=F Damp=F
 DIIS: error= 1.44D-04 at cycle   7 NSaved=   7.
 NSaved= 7 IEnMin= 7 EnMin= -706.408197689717     IErMin= 7 ErrMin= 1.44D-04
 ErrMax= 1.44D-04  0.00D+00 EMaxC= 1.00D-01 BMatC= 5.36D-06 BMatP= 8.53D-05
 IDIUse=3 WtCom= 9.99D-01 WtEn= 1.44D-03
 Coeff-Com: -0.267D-02 0.142D-02-0.168D-02 0.168D-01 0.456D-01 0.250D+00
 Coeff-Com:  0.691D+00
 Coeff-En:   0.000D+00 0.000D+00 0.000D+00 0.000D+00 0.000D+00 0.000D+00
 Coeff-En:   0.100D+01
 Coeff:     -0.267D-02 0.142D-02-0.168D-02 0.168D-01 0.455D-01 0.250D+00
 Coeff:      0.691D+00
 Gap=     0.205 Goal=   None    Shift=    0.000
 RMSDP=6.49D-05 MaxDP=2.61D-03 DE=-7.22D-05 OVMax= 7.16D-04

 Cycle   8  Pass 1  IDiag  1:
 E= -706.408203150905     Delta-E=       -0.000005461188 Rises=F Damp=F
 DIIS: error= 3.70D-05 at cycle   8 NSaved=   8.
 NSaved= 8 IEnMin= 8 EnMin= -706.408203150905     IErMin= 8 ErrMin= 3.70D-05
 ErrMax= 3.70D-05  0.00D+00 EMaxC= 1.00D-01 BMatC= 3.02D-07 BMatP= 5.36D-06
 IDIUse=1 WtCom= 1.00D+00 WtEn= 0.00D+00
 Coeff-Com: -0.615D-03 0.161D-03-0.227D-02-0.167D-02 0.792D-02 0.697D-01
 Coeff-Com:  0.288D+00 0.638D+00
 Coeff:     -0.615D-03 0.161D-03-0.227D-02-0.167D-02 0.792D-02 0.697D-01
 Coeff:      0.288D+00 0.638D+00
 Gap=     0.205 Goal=   None    Shift=    0.000
 RMSDP=3.95D-05 MaxDP=1.97D-03 DE=-5.46D-06 OVMax= 1.65D-04

 Cycle   9  Pass 1  IDiag  1:
 E= -706.408203397083     Delta-E=       -0.000000246178 Rises=F Damp=F
 DIIS: error= 1.42D-05 at cycle   9 NSaved=   9.
 NSaved= 9 IEnMin= 9 EnMin= -706.408203397083     IErMin= 9 ErrMin= 1.42D-05
 ErrMax= 1.42D-05  0.00D+00 EMaxC= 1.00D-01 BMatC= 3.68D-08 BMatP= 3.02D-07
 IDIUse=1 WtCom= 1.00D+00 WtEn= 0.00D+00
 Coeff-Com: -0.460D-04-0.192D-04-0.892D-03-0.210D-02-0.101D-02 0.560D-02
 Coeff-Com:  0.586D-01 0.299D+00 0.641D+00
 Coeff:     -0.460D-04-0.192D-04-0.892D-03-0.210D-02-0.101D-02 0.560D-02
 Coeff:      0.586D-01 0.299D+00 0.641D+00
 Gap=     0.205 Goal=   None    Shift=    0.000
 RMSDP=5.84D-06 MaxDP=2.08D-04 DE=-2.46D-07 OVMax= 4.35D-05

 Cycle  10  Pass 1  IDiag  1:
 E= -706.408203434801     Delta-E=       -0.000000037718 Rises=F Damp=F
 DIIS: error= 1.93D-06 at cycle  10 NSaved=  10.
 NSaved=10 IEnMin=10 EnMin= -706.408203434801     IErMin=10 ErrMin= 1.93D-06
 ErrMax= 1.93D-06  0.00D+00 EMaxC= 1.00D-01 BMatC= 9.53D-10 BMatP= 3.68D-08
 IDIUse=1 WtCom= 1.00D+00 WtEn= 0.00D+00
 Coeff-Com:  0.828D-05-0.195D-05-0.104D-03-0.315D-03-0.754D-03-0.257D-02
 Coeff-Com: -0.414D-02 0.264D-01 0.119D+00 0.863D+00
 Coeff:      0.828D-05-0.195D-05-0.104D-03-0.315D-03-0.754D-03-0.257D-02
 Coeff:     -0.414D-02 0.264D-01 0.119D+00 0.863D+00
 Gap=     0.205 Goal=   None    Shift=    0.000
 RMSDP=2.63D-06 MaxDP=1.13D-04 DE=-3.77D-08 OVMax= 1.32D-05

 Cycle  11  Pass 1  IDiag  1:
 E= -706.408203435782     Delta-E=       -0.000000000981 Rises=F Damp=F
 DIIS: error= 2.95D-07 at cycle  11 NSaved=  11.
 NSaved=11 IEnMin=11 EnMin= -706.408203435782     IErMin=11 ErrMin= 2.95D-07
 ErrMax= 2.95D-07  0.00D+00 EMaxC= 1.00D-01 BMatC= 2.34D-11 BMatP= 9.53D-10
 IDIUse=1 WtCom= 1.00D+00 WtEn= 0.00D+00
 Coeff-Com:  0.109D-05 0.262D-05 0.768D-05 0.819D-05-0.145D-03-0.782D-03
 Coeff-Com: -0.325D-02-0.422D-02 0.266D-02 0.200D+00 0.806D+00
 Coeff:      0.109D-05 0.262D-05 0.768D-05 0.819D-05-0.145D-03-0.782D-03
 Coeff:     -0.325D-02-0.422D-02 0.266D-02 0.200D+00 0.806D+00
 Gap=     0.205 Goal=   None    Shift=    0.000
 RMSDP=3.46D-07 MaxDP=1.65D-05 DE=-9.81D-10 OVMax= 2.61D-06

 Cycle  12  Pass 1  IDiag  1:
 E= -706.408203435814     Delta-E=       -0.000000000032 Rises=F Damp=F
 DIIS: error= 4.54D-08 at cycle  12 NSaved=  12.
 NSaved=12 IEnMin=12 EnMin= -706.408203435814     IErMin=12 ErrMin= 4.54D-08
 ErrMax= 4.54D-08  0.00D+00 EMaxC= 1.00D-01 BMatC= 7.19D-13 BMatP= 2.34D-11
 IDIUse=1 WtCom= 1.00D+00 WtEn= 0.00D+00
 Coeff-Com: -0.380D-07 0.387D-06 0.528D-05 0.858D-05 0.197D-06-0.591D-04
 Coeff-Com: -0.405D-03-0.172D-02-0.432D-02 0.307D-02 0.158D+00 0.845D+00
 Coeff:     -0.380D-07 0.387D-06 0.528D-05 0.858D-05 0.197D-06-0.591D-04
 Coeff:     -0.405D-03-0.172D-02-0.432D-02 0.307D-02 0.158D+00 0.845D+00
 Gap=     0.205 Goal=   None    Shift=    0.000
 RMSDP=4.17D-08 MaxDP=1.07D-06 DE=-3.24D-11 OVMax= 5.08D-07

 Cycle  13  Pass 1  IDiag  1:
 E= -706.408203435812     Delta-E=        0.000000000002 Rises=F Damp=F
 DIIS: error= 1.50D-08 at cycle  13 NSaved=  13.
 NSaved=13 IEnMin=12 EnMin= -706.408203435814     IErMin=13 ErrMin= 1.50D-08
 ErrMax= 1.50D-08  0.00D+00 EMaxC= 1.00D-01 BMatC= 5.95D-14 BMatP= 7.19D-13
 IDIUse=1 WtCom= 1.00D+00 WtEn= 0.00D+00
 Coeff-Com: -0.234D-07-0.801D-07 0.138D-05 0.236D-05 0.839D-05 0.221D-04
 Coeff-Com:  0.574D-04-0.233D-03-0.127D-02-0.863D-02 0.115D-02 0.199D+00
 Coeff-Com:  0.810D+00
 Coeff:     -0.234D-07-0.801D-07 0.138D-05 0.236D-05 0.839D-05 0.221D-04
 Coeff:      0.574D-04-0.233D-03-0.127D-02-0.863D-02 0.115D-02 0.199D+00
 Coeff:      0.810D+00
 Gap=     0.205 Goal=   None    Shift=    0.000
 RMSDP=1.22D-08 MaxDP=6.70D-07 DE= 2.05D-12 OVMax= 1.24D-07

 Cycle  14  Pass 1  IDiag  1:
 E= -706.408203435815     Delta-E=       -0.000000000003 Rises=F Damp=F
 DIIS: error= 3.73D-09 at cycle  14 NSaved=  14.
 NSaved=14 IEnMin=14 EnMin= -706.408203435815     IErMin=14 ErrMin= 3.73D-09
 ErrMax= 3.73D-09  0.00D+00 EMaxC= 1.00D-01 BMatC= 4.84D-15 BMatP= 5.95D-14
 IDIUse=1 WtCom= 1.00D+00 WtEn= 0.00D+00
 Coeff-Com:  0.289D-07-0.667D-07 0.284D-06 0.516D-06 0.253D-05 0.872D-05
 Coeff-Com:  0.301D-04-0.107D-04-0.194D-03-0.249D-02-0.553D-02 0.205D-01
 Coeff-Com:  0.201D+00 0.787D+00
 Coeff:      0.289D-07-0.667D-07 0.284D-06 0.516D-06 0.253D-05 0.872D-05
 Coeff:      0.301D-04-0.107D-04-0.194D-03-0.249D-02-0.553D-02 0.205D-01
 Coeff:      0.201D+00 0.787D+00
 Gap=     0.205 Goal=   None    Shift=    0.000
 RMSDP=1.56D-09 MaxDP=2.82D-08 DE=-2.61D-12 OVMax= 3.29D-08

 Error on total polarization charges =  0.02245
 SCF Done:  E(RB3LYP) =  -706.408203436     A.U. after   14 cycles
            NFock= 14  Conv=0.16D-08     -V/T= 2.0050
 KE= 7.029278134309D+02 PE=-2.207920385308D+03 EE= 5.340416090758D+02
 SMD-CDS (non-electrostatic) energy       (kcal/mol) =      -0.65
 (included in total energy above)
 Leave Link  502 at Tue Jan  7 23:52:11 2020, MaxMem=  4294967296 cpu:             493.3 elap:              36.8
 (Enter /home/cwagen/sw/g16/g16/l601.exe)
 Copying SCF densities to generalized density rwf, IOpCl= 0 IROHF=0.

 **********************************************************************

            Population analysis using the SCF density.

 **********************************************************************

 Orbital symmetries:
       Occupied  (A) (A) (A) (A) (A) (A) (A) (A) (A) (A) (A) (A)
                 (A) (A) (A) (A) (A) (A) (A) (A) (A) (A) (A) (A)
                 (A) (A) (A)
       Virtual   (A) (A) (A) (A) (A) (A) (A) (A) (A) (A) (A) (A)
                 (A) (A) (A) (A) (A) (A) (A) (A) (A) (A) (A) (A)
                 (A) (A) (A) (A) (A) (A) (A) (A) (A) (A) (A) (A)
                 (A) (A) (A) (A) (A) (A) (A) (A) (A) (A) (A) (A)
                 (A) (A) (A) (A) (A) (A) (A) (A) (A) (A) (A) (A)
                 (A) (A) (A) (A) (A) (A) (A) (A) (A) (A) (A) (A)
                 (A) (A) (A) (A) (A) (A) (A) (A) (A) (A) (A) (A)
                 (A) (A) (A) (A) (A) (A) (A) (A) (A) (A) (A) (A)
                 (A)
 The electronic state is 1-A.
 Alpha  occ. eigenvalues -- -101.49189 -19.05873 -14.31560 -10.26876 -10.20688
 Alpha  occ. eigenvalues --  -10.15980  -9.40881  -7.17099  -7.16388  -7.16369
 Alpha  occ. eigenvalues --   -0.96399  -0.87956  -0.78677  -0.71233  -0.62115
 Alpha  occ. eigenvalues --   -0.45714  -0.42550  -0.40089  -0.36850  -0.35940
 Alpha  occ. eigenvalues --   -0.35124  -0.31626  -0.30473  -0.27493  -0.27043
 Alpha  occ. eigenvalues --   -0.21287  -0.19592
 Alpha virt. eigenvalues --    0.00948   0.02709   0.04812   0.04913   0.05756
 Alpha virt. eigenvalues --    0.07113   0.07585   0.09659   0.09966   0.10076
 Alpha virt. eigenvalues --    0.10405   0.11549   0.13387   0.13871   0.14561
 Alpha virt. eigenvalues --    0.14961   0.16875   0.17998   0.20799   0.22434
 Alpha virt. eigenvalues --    0.24945   0.25669   0.26483   0.26919   0.28011
 Alpha virt. eigenvalues --    0.28745   0.30676   0.33328   0.35639   0.36795
 Alpha virt. eigenvalues --    0.38960   0.39980   0.45590   0.56852   0.59516
 Alpha virt. eigenvalues --    0.65710   0.66710   0.67967   0.68886   0.70643
 Alpha virt. eigenvalues --    0.74246   0.75340   0.80277   0.81717   0.83252
 Alpha virt. eigenvalues --    0.86107   0.88727   0.93407   0.95030   0.96714
 Alpha virt. eigenvalues --    1.02259   1.02964   1.05336   1.07535   1.08388
 Alpha virt. eigenvalues --    1.11003   1.12779   1.17111   1.20411   1.26403
 Alpha virt. eigenvalues --    1.33744   1.34559   1.37563   1.47826   1.49816
 Alpha virt. eigenvalues --    1.55658   1.57321   1.61480   1.73055   1.76142
 Alpha virt. eigenvalues --    1.82718   1.87196   1.89961   1.95188   1.97330
 Alpha virt. eigenvalues --    1.98262   2.04448   2.10592   2.13596   2.21143
 Alpha virt. eigenvalues --    2.27143   2.32502   2.35606   2.48006   2.53272
 Alpha virt. eigenvalues --    2.74688   2.87120   2.89782   2.97494   3.11677
 Alpha virt. eigenvalues --    3.32789   4.15548   4.24219   4.38819   4.40297
 Alpha virt. eigenvalues --    4.43826   4.81194
          Condensed to atoms (all electrons):
               1          2          3          4          5          6
     1  C    8.334219   0.635218   0.380847  -0.121740  -0.102014  -0.039693
     2  O    0.635218   8.558857  -0.217303   0.011199   0.001132  -0.007863
     3  C    0.380847  -0.217303   5.804585   0.354025   0.395406   0.390788
     4  H   -0.121740   0.011199   0.354025   0.510572  -0.024816  -0.031264
     5  H   -0.102014   0.001132   0.395406  -0.024816   0.488091  -0.023081
     6  H   -0.039693  -0.007863   0.390788  -0.031264  -0.023081   0.485646
     7  Cl  -0.520406  -0.129683  -0.190875   0.018553   0.003957   0.007031
     8  C   -2.620820  -0.207047  -0.226977   0.066679   0.040269  -0.010833
     9  N   -0.106955  -0.041923  -0.010732  -0.001280   0.000598  -0.001116
               7          8          9
     1  C   -0.520406  -2.620820  -0.106955
     2  O   -0.129683  -0.207047  -0.041923
     3  C   -0.190875  -0.226977  -0.010732
     4  H    0.018553   0.066679  -0.001280
     5  H    0.003957   0.040269   0.000598
     6  H    0.007031  -0.010833  -0.001116
     7  Cl  17.713633   0.349551  -0.028401
     8  C    0.349551   7.708322   0.559528
     9  N   -0.028401   0.559528   7.296159
 Mulliken charges:
               1
     1  C    0.161345
     2  O   -0.602587
     3  C   -0.679764
     4  H    0.218072
     5  H    0.220458
     6  H    0.230386
     7  Cl  -0.223359
     8  C    0.341327
     9  N   -0.665878
 Sum of Mulliken charges =  -1.00000
 Mulliken charges with hydrogens summed into heavy atoms:
               1
     1  C    0.161345
     2  O   -0.602587
     3  C   -0.010848
     7  Cl  -0.223359
     8  C    0.341327
     9  N   -0.665878
 Electronic spatial extent (au):  <R**2>=            665.3798
 Charge=             -1.0000 electrons
 Dipole moment (field-independent basis, Debye):
    X=             -1.7251    Y=              2.1362    Z=             -3.9403  Tot=              4.8027
 Quadrupole moment (field-independent basis, Debye-Ang):
   XX=            -59.5761   YY=            -51.0101   ZZ=            -52.9026
   XY=              4.6763   XZ=             -0.5073   YZ=             -4.8497
 Traceless Quadrupole moment (field-independent basis, Debye-Ang):
   XX=             -5.0798   YY=              3.4862   ZZ=              1.5937
   XY=              4.6763   XZ=             -0.5073   YZ=             -4.8497
 Octapole moment (field-independent basis, Debye-Ang**2):
  XXX=            -23.9047  YYY=              7.1614  ZZZ=            -10.8681  XYY=            -10.7239
  XXY=             18.2915  XXZ=              3.4585  XZZ=             -3.6536  YZZ=             -4.9176
  YYZ=             -1.4790  XYZ=             -2.7673
 Hexadecapole moment (field-independent basis, Debye-Ang**3):
 XXXX=           -534.3279 YYYY=           -306.2265 ZZZZ=           -203.9170 XXXY=             44.5253
 XXXZ=              7.7720 YYYX=             19.5499 YYYZ=             -4.5514 ZZZX=             -0.9856
 ZZZY=             -7.2053 XXYY=           -146.9710 XXZZ=           -113.9444 YYZZ=            -88.1871
 XXYZ=             -4.8576 YYXZ=              2.5438 ZZXY=              1.5608
 N-N= 2.645427593659D+02 E-N=-2.207920384575D+03  KE= 7.029278134309D+02
 No NMR shielding tensors so no spin-rotation constants.
 Leave Link  601 at Tue Jan  7 23:52:13 2020, MaxMem=  4294967296 cpu:              14.9 elap:               1.2
 (Enter /home/cwagen/sw/g16/g16/l701.exe)
 ... and contract with generalized density number  0.
 Compute integral first derivatives.
 D1PCM: PCM CHGder 1st derivatives, ID1Alg=3 FixD1E=F DoIter=F DoCFld=F I1PDM=0.
 GePol: Maximum number of non-zero 1st derivatives   =     346
 Leave Link  701 at Tue Jan  7 23:52:17 2020, MaxMem=  4294967296 cpu:              60.9 elap:               4.4
 (Enter /home/cwagen/sw/g16/g16/l702.exe)
 L702 exits ... SP integral derivatives will be done elsewhere.
 Leave Link  702 at Tue Jan  7 23:52:17 2020, MaxMem=  4294967296 cpu:               1.2 elap:               0.1
 (Enter /home/cwagen/sw/g16/g16/l703.exe)
 Integral derivatives from FoFJK, PRISM(SPDF).
 Compute integral first derivatives, UseDBF=F ICtDFT=           0.
 Calling FoFJK, ICntrl=      2127 FMM=F ISym2X=0 I1Cent= 0 IOpClX= 0 NMat=1 NMatS=1 NMatT=0.
 FoFJK:  IHMeth= 1 ICntrl=    2127 DoSepK=F KAlg= 0 I1Cent=           0 FoldK=F
 IRaf=         0 NMat=       1 IRICut=       1 DoRegI=T DoRafI=F ISym2E= 0 IDoP0=0 IntGTp=1.
 FoFCou: FMM=F IPFlag=           0 FMFlag=      100000 FMFlg1=         800
         NFxFlg=           0 DoJE=F BraDBF=F KetDBF=F FulRan=T
         wScrn=  0.000000 ICntrl=      2127 IOpCl=  0 I1Cent=           0 NGrid=           0
         NMat0=    1 NMatS0=      1 NMatT0=    0 NMatD0=    1 NMtDS0=    0 NMtDT0=    0
 Symmetry not used in FoFCou.
 Leave Link  703 at Tue Jan  7 23:52:20 2020, MaxMem=  4294967296 cpu:              35.6 elap:               2.6
 (Enter /home/cwagen/sw/g16/g16/l716.exe)
 Dipole        =-6.78693571D-01 8.40452927D-01-1.55024813D+00
 ***** Axes restored to original set *****
 -------------------------------------------------------------------
 Center     Atomic                   Forces (Hartrees/Bohr)
 Number     Number              X              Y              Z
 -------------------------------------------------------------------
      1        6          -0.005620518   -0.064569700   -0.017762963
      2        8          -0.015646160    0.004530388   -0.004001406
      3        6          -0.025713211    0.001243062    0.005184646
      4        1          -0.000645943    0.000058624   -0.000122094
      5        1           0.000264154   -0.002219436    0.001886526
      6        1           0.000446082    0.002124125   -0.001675313
      7       17          -0.019463697    0.017248540    0.009723853
      8        6           0.071545513    0.043284464    0.001381514
      9        7          -0.005166219   -0.001700067    0.005385236
 -------------------------------------------------------------------
 Cartesian Forces:  Max     0.071545513 RMS     0.022217357
 Leave Link  716 at Tue Jan  7 23:52:20 2020, MaxMem=  4294967296 cpu:               1.3 elap:               0.1
 (Enter /home/cwagen/sw/g16/g16/l103.exe)

 GradGradGradGradGradGradGradGradGradGradGradGradGradGradGradGradGradGrad
 Berny optimization.
 FormGI is forming the generalized inverse of G from B-inverse, IUseBI=4.
 Internal  Forces:  Max     0.076502132 RMS     0.017198017
 Search for a local minimum.
 Step number   1 out of a maximum of   41
 All quantities printed in internal units (Hartrees-Bohrs-Radians)
 RMS Force = .94224D-02 SwitMx=.10000D-02 MixMth= 1
 Mixed Optimization -- RFO/linear search
 Second derivative matrix not updated -- first step.
 ITU=  0
     Eigenvalues ---    0.00230   0.04746   0.04746   0.05330   0.05908
     Eigenvalues ---    0.07453   0.10176   0.16000   0.16000   0.16000
     Eigenvalues ---    0.25000   0.25000   0.25000   0.26946   0.33918
     Eigenvalues ---    0.33999   0.34275   0.67840   1.220341000.00000
     Eigenvalues --- 1000.000001000.000001000.000001000.000001000.00000
     Eigenvalues --- 1000.000001000.000001000.000001000.000001000.00000
     Eigenvalues --- 1000.00000
 RFO step:  Lambda=-1.74412198D-02 EMin= 2.30000000D-03
 Linear search not attempted -- first point.
 Iteration  1 RMS(Cart)=  0.09640936 RMS(Int)=  0.00670198
 Iteration  2 RMS(Cart)=  0.00705788 RMS(Int)=  0.00380824
 Iteration  3 RMS(Cart)=  0.00003731 RMS(Int)=  0.00380819
 Iteration  4 RMS(Cart)=  0.00000020 RMS(Int)=  0.00380819
 Iteration  1 RMS(Cart)=  0.00000000 RMS(Int)=  0.00000000
 ITry= 1 IFail=0 DXMaxC= 2.38D-01 DCOld= 1.00D+10 DXMaxT= 3.00D-01 DXLimC= 3.00D+00 Rises=F
 Variable       Old X    -DE/DX   Delta X   Delta X   Delta X     New X
                                 (Linear)    (Quad)   (Total)
    R1        2.45227   0.00325   0.00000   0.00468   0.00468   2.45695
    R2        2.94503   0.00489   0.00000   0.01705   0.01705   2.96208
    R3        3.59048   0.02723   0.00000   0.00000   0.00000   3.59048
    R4        2.64562   0.07650   0.00000   0.00000   0.00000   2.64562
    R5        2.07331  -0.00019   0.00000  -0.00053  -0.00053   2.07278
    R6        2.07468   0.00043   0.00000   0.00121   0.00121   2.07589
    R7        2.06868  -0.00118   0.00000  -0.00328  -0.00328   2.06540
    R8        2.20923  -0.00528   0.00000  -0.00426  -0.00426   2.20497
    A1        1.99667   0.00678   0.00000   0.01927   0.00949   2.00616
    A2        2.01908  -0.00164   0.00000  -0.06390  -0.07102   1.94805
    A3        1.89239  -0.00285   0.00000   0.07007   0.05927   1.95166
    A4        1.92419  -0.02191   0.00000  -0.12030  -0.12123   1.80296
    A5        1.77194   0.03247   0.00000   0.16289   0.15848   1.93042
    A6        1.83479  -0.00884   0.00000  -0.03275  -0.02563   1.80916
    A7        1.97398  -0.00006   0.00000  -0.00058  -0.00074   1.97324
    A8        1.87942   0.00487   0.00000   0.03058   0.03061   1.91003
    A9        1.90140  -0.00426   0.00000  -0.02697  -0.02694   1.87446
   A10        1.90356  -0.00180   0.00000  -0.00474  -0.00490   1.89867
   A11        1.90837   0.00155   0.00000   0.00309   0.00293   1.91130
   A12        1.89554  -0.00027   0.00000  -0.00108  -0.00083   1.89471
   A13        3.10130  -0.00395   0.00000  -0.06091  -0.06091   3.04039
   A14        2.92901   0.01007   0.00000   0.15519   0.15519   3.08420
    D1        3.04510   0.01166   0.00000   0.12773   0.12842  -3.10966
    D2       -1.13357   0.01270   0.00000   0.14234   0.14314  -0.99043
    D3        0.91915   0.01277   0.00000   0.14345   0.14403   1.06318
    D4       -0.92685  -0.00534   0.00000  -0.06043  -0.05643  -0.98328
    D5        1.17766  -0.00430   0.00000  -0.04582  -0.04171   1.13595
    D6       -3.05280  -0.00423   0.00000  -0.04471  -0.04082  -3.09363
    D7        1.01121  -0.00780   0.00000  -0.06347  -0.06816   0.94305
    D8        3.11572  -0.00676   0.00000  -0.04886  -0.05344   3.06228
    D9       -1.11475  -0.00669   0.00000  -0.04775  -0.05255  -1.16729
         Item               Value     Threshold  Converged?
 Maximum Force            0.032468     0.000450     NO 
 RMS     Force            0.009422     0.000300     NO 
 Maximum Displacement     0.238454     0.001800     NO 
 RMS     Displacement     0.094722     0.001200     NO 
 Predicted change in Energy=-1.022075D-02
 Lowest energy point so far.  Saving SCF results.
 GradGradGradGradGradGradGradGradGradGradGradGradGradGradGradGradGradGrad

 Leave Link  103 at Tue Jan  7 23:52:26 2020, MaxMem=  4294967296 cpu:              80.5 elap:               5.8
 (Enter /home/cwagen/sw/g16/g16/l202.exe)
                          Input orientation:                          
 ---------------------------------------------------------------------
 Center     Atomic      Atomic             Coordinates (Angstroms)
 Number     Number       Type             X           Y           Z
 ---------------------------------------------------------------------
      1          6           0       -0.101956   -0.333766   -0.226920
      2          8           0       -0.304755   -0.675738   -1.464800
      3          6           0       -0.363569   -1.467452    0.823446
      4          1           0       -0.214167   -1.136857    1.858582
      5          1           0       -1.392697   -1.836010    0.714839
      6          1           0        0.324690   -2.286243    0.598832
      7         17           0       -1.283918    1.049801    0.319622
      8          6           0        1.168483    0.224872   -0.042783
      9          7           0        2.273488    0.568998    0.105562
 ---------------------------------------------------------------------
                    Distance matrix (angstroms):
                    1          2          3          4          5
     1  C    0.000000
     2  O    1.300161   0.000000
     3  C    1.567467   2.422053   0.000000
     4  H    2.237603   3.356443   1.096869   0.000000
     5  H    2.193093   2.698273   1.098515   1.784908   0.000000
     6  H    2.162420   2.692304   1.092964   1.788415   1.779209
     7  Cl   1.900000   2.668409   2.727168   2.879972   2.914779
     8  C    1.400000   2.236887   2.441618   2.716840   3.373555
     9  N    2.562863   3.265386   3.408307   3.488760   4.426759
                    6          7          8          9
     6  H    0.000000
     7  Cl   3.714131   0.000000
     8  C    2.725684   2.612684   0.000000
     9  N    3.491923   3.596128   1.166818   0.000000
 Stoichiometry    C3H3ClNO(1-)
 Framework group  C1[X(C3H3ClNO)]
 Deg. of freedom    21
 Full point group                 C1      NOp   1
 RotChk:  IX=0 Diff= 2.75D-01
 Largest Abelian subgroup         C1      NOp   1
 Largest concise Abelian subgroup C1      NOp   1
                         Standard orientation:                         
 ---------------------------------------------------------------------
 Center     Atomic      Atomic             Coordinates (Angstroms)
 Number     Number       Type             X           Y           Z
 ---------------------------------------------------------------------
      1          6           0        0.091303    0.375939    0.210241
      2          8           0        0.082580    0.837194    1.425802
      3          6           0       -0.069795    1.460780   -0.909634
      4          1           0       -0.090262    1.035129   -1.920338
      5          1           0       -0.999100    2.022488   -0.743465
      6          1           0        0.773851    2.149942   -0.820826
      7         17           0       -1.370116   -0.796931   -0.103812
      8          6           0        1.214706   -0.422601   -0.035318
      9          7           0        2.218510   -0.977427   -0.249817
 ---------------------------------------------------------------------
 Rotational constants (GHZ):           3.7485484           2.4961907           2.0995137
 Leave Link  202 at Tue Jan  7 23:52:26 2020, MaxMem=  4294967296 cpu:               2.1 elap:               0.2
 (Enter /home/cwagen/sw/g16/g16/l301.exe)
 Standard basis: 6-31+G(d) (6D, 7F)
 Ernie: Thresh=  0.10000D-02 Tol=  0.10000D-05 Strict=F.
 There are   124 symmetry adapted cartesian basis functions of A   symmetry.
 There are   124 symmetry adapted basis functions of A   symmetry.
   124 basis functions,   228 primitive gaussians,   124 cartesian basis functions
    27 alpha electrons       27 beta electrons
       nuclear repulsion energy       264.7831679093 Hartrees.
 IExCor=  402 DFT=T Ex+Corr=B3LYP ExCW=0 ScaHFX=  0.200000
 ScaDFX=  0.800000  0.720000  1.000000  0.810000 ScalE2=  1.000000  1.000000
 IRadAn=      5 IRanWt=     -1 IRanGd=            0 ICorTp=0 IEmpDi=  4
 NAtoms=    9 NActive=    9 NUniq=    9 SFac= 1.00D+00 NAtFMM=   60 NAOKFM=F Big=F
 Integral buffers will be    131072 words long.
 Raffenetti 2 integral format.
 Two-electron integral symmetry is turned on.
 ------------------------------------------------------------------------------
 Polarizable Continuum Model (PCM)
 =================================
 Model                : PCM.
 Atomic radii         : SMD-Coulomb.
 Polarization charges : Total charges.
 Charge compensation  : None.
 Solution method      : On-the-fly selection.
 Cavity type          : VdW (van der Waals Surface) (Alpha=1.000).
 Cavity algorithm     : GePol (No added spheres)
                        Default sphere list used, NSphG=    9.
                        Lebedev-Laikov grids with approx.  5.0 points / Ang**2.
                        Smoothing algorithm: York/Karplus (Gamma=1.0000).
                        Polarization charges: spherical gaussians, with
                                              point-specific exponents (IZeta= 3).
                        Self-potential: point-specific (ISelfS= 7).
                        Self-field    : sphere-specific E.n sum rule (ISelfD= 2).
 1st derivatives      : Analytical E(r).r(x)/FMM algorithm (CHGder, D1EAlg=3).
                        Cavity 1st derivative terms included.
 Solvent              : TetraHydroFuran, Eps=   7.425700 Eps(inf)=   1.974025
 ------------------------------------------------------------------------------
 Spheres list:
 ISph  on   Nord     Re0    Alpha      Xe            Ye            Ze
    1   C      1    1.8500  1.000      0.091303      0.375939      0.210241
    2   O      2    2.2940  1.000      0.082580      0.837194      1.425802
    3   C      3    1.8500  1.000     -0.069795      1.460780     -0.909634
    4   H      4    1.2000  1.000     -0.090262      1.035129     -1.920338
    5   H      5    1.2000  1.000     -0.999100      2.022488     -0.743465
    6   H      6    1.2000  1.000      0.773851      2.149942     -0.820826
    7  Cl      7    2.3800  1.000     -1.370116     -0.796931     -0.103812
    8   C      8    1.8500  1.000      1.214706     -0.422601     -0.035318
    9   N      9    1.8900  1.000      2.218510     -0.977427     -0.249817
 ------------------------------------------------------------------------------
 GePol: Number of generator spheres                  =       9
 GePol: Total number of spheres                      =       9
 GePol: Number of exposed spheres                    =       9 (100.00%)
 GePol: Number of points                             =    1102
 GePol: Average weight of points                     =       0.14
 GePol: Minimum weight of points                     =   0.86D-09
 GePol: Maximum weight of points                     =    0.18138
 GePol: Number of points with low weight             =      39
 GePol: Fraction of low-weight points (<1% of avg)   =       3.54%
 GePol: Cavity surface area                          =    150.415 Ang**2
 GePol: Cavity volume                                =    138.710 Ang**3
 ------------------------------------------------------------------------------
 Atomic radii for non-electrostatic terms: SMD-CDS.
 ------------------------------------------------------------------------------
 PCM non-electrostatic energy =        -0.0010386985 Hartrees.
 Nuclear repulsion after PCM non-electrostatic terms =      264.7821292108 Hartrees.
 Leave Link  301 at Tue Jan  7 23:52:26 2020, MaxMem=  4294967296 cpu:               2.6 elap:               0.2
 (Enter /home/cwagen/sw/g16/g16/l302.exe)
 NPDir=0 NMtPBC=     1 NCelOv=     1 NCel=       1 NClECP=     1 NCelD=      1
         NCelK=      1 NCelE2=     1 NClLst=     1 CellRange=     0.0.
 One-electron integrals computed using PRISM.
 One-electron integral symmetry used in STVInt
 NBasis=   124 RedAO= T EigKep=  2.35D-05  NBF=   124
 NBsUse=   124 1.00D-06 EigRej= -1.00D+00 NBFU=   124
 Precomputing XC quadrature grid using
 IXCGrd= 4 IRadAn=           5 IRanWt=          -1 IRanGd=           0 AccXCQ= 0.00D+00.
 Generated NRdTot=       0 NPtTot=           0 NUsed=           0 NTot=          32
 NSgBfM=   124   124   124   124   124 MxSgAt=     9 MxSgA2=     9.
 Leave Link  302 at Tue Jan  7 23:52:28 2020, MaxMem=  4294967296 cpu:              24.6 elap:               1.8
 (Enter /home/cwagen/sw/g16/g16/l303.exe)
 DipDrv:  MaxL=1.
 Leave Link  303 at Tue Jan  7 23:52:28 2020, MaxMem=  4294967296 cpu:               2.6 elap:               0.4
 (Enter /home/cwagen/sw/g16/g16/l401.exe)
 Initial guess from the checkpoint file:  "/scratch/users/cwagen/cwagen_scan_190_140/Gau-5511.chk"
 B after Tr=     0.000000    0.000000    0.000000
         Rot=    0.996404    0.017233   -0.005513   -0.082778 Ang=   9.72 deg.
 Guess basis will be translated and rotated to current coordinates.
 JPrj=2 DoOrth=T DoCkMO=T.
 Generating alternative initial guess.
 ExpMin= 4.38D-02 ExpMax= 2.52D+04 ExpMxC= 3.78D+03 IAcc=2 IRadAn=         4 AccDes= 0.00D+00
 Harris functional with IExCor=  402 and IRadAn=       4 diagonalized for initial guess.
 HarFok:  IExCor=  402 AccDes= 0.00D+00 IRadAn=         4 IDoV= 1 UseB2=F ITyADJ=14
 ICtDFT=  3500011 ScaDFX=  1.000000  1.000000  1.000000  1.000000
 FoFCou: FMM=F IPFlag=           0 FMFlag=      100000 FMFlg1=           0
         NFxFlg=           0 DoJE=T BraDBF=F KetDBF=T FulRan=T
         wScrn=  0.000000 ICntrl=       500 IOpCl=  0 I1Cent=   200000004 NGrid=           0
         NMat0=    1 NMatS0=      1 NMatT0=    0 NMatD0=    1 NMtDS0=    0 NMtDT0=    0
 Petite list used in FoFCou.
 Harris En= -706.429930441468    
 Leave Link  401 at Tue Jan  7 23:52:31 2020, MaxMem=  4294967296 cpu:              34.8 elap:               2.5
 (Enter /home/cwagen/sw/g16/g16/l502.exe)
 Keep R1 ints in memory in canonical form, NReq=45236517.
 FoFCou: FMM=F IPFlag=           0 FMFlag=           0 FMFlg1=           0
         NFxFlg=           0 DoJE=F BraDBF=F KetDBF=F FulRan=T
         wScrn=  0.000000 ICntrl=       600 IOpCl=  0 I1Cent=           0 NGrid=           0
         NMat0=    1 NMatS0=   7750 NMatT0=    0 NMatD0=    1 NMtDS0=    0 NMtDT0=    0
 Symmetry not used in FoFCou.
 Two-electron integral symmetry not used.
 Closed shell SCF:
 Using DIIS extrapolation, IDIIS=  1040.
 NGot=  4294967296 LenX=  4264898079 LenY=  4264882262
 Requested convergence on RMS density matrix=1.00D-08 within 128 cycles.
 Requested convergence on MAX density matrix=1.00D-06.
 Requested convergence on             energy=1.00D-06.
 No special actions if energy rises.

 Cycle   1  Pass 1  IDiag  1:
 Inv3:  Mode=1 IEnd=     3643212.
 Iteration    1 A*A^-1 deviation from unit magnitude is 3.44D-15 for   1098.
 Iteration    1 A*A^-1 deviation from orthogonality  is 2.05D-15 for    240     44.
 Iteration    1 A^-1*A deviation from unit magnitude is 3.44D-15 for   1098.
 Iteration    1 A^-1*A deviation from orthogonality  is 1.78D-15 for   1095    844.
 E= -706.394193875157    
 DIIS: error= 6.26D-03 at cycle   1 NSaved=   1.
 NSaved= 1 IEnMin= 1 EnMin= -706.394193875157     IErMin= 1 ErrMin= 6.26D-03
 ErrMax= 6.26D-03  0.00D+00 EMaxC= 1.00D-01 BMatC= 1.34D-02 BMatP= 1.34D-02
 IDIUse=3 WtCom= 9.37D-01 WtEn= 6.26D-02
 Coeff-Com:  0.100D+01
 Coeff-En:   0.100D+01
 Coeff:      0.100D+01
 Gap=     0.545 Goal=   None    Shift=    0.000
 GapD=    0.545 DampG=2.000 DampE=1.000 DampFc=2.0000 IDamp=-1.
 RMSDP=6.39D-03 MaxDP=3.17D-01              OVMax= 4.23D-02

 Cycle   2  Pass 1  IDiag  1:
 E= -706.415379107892     Delta-E=       -0.021185232735 Rises=F Damp=F
 DIIS: error= 9.74D-04 at cycle   2 NSaved=   2.
 NSaved= 2 IEnMin= 2 EnMin= -706.415379107892     IErMin= 2 ErrMin= 9.74D-04
 ErrMax= 9.74D-04  0.00D+00 EMaxC= 1.00D-01 BMatC= 2.64D-04 BMatP= 1.34D-02
 IDIUse=3 WtCom= 9.90D-01 WtEn= 9.74D-03
 Coeff-Com: -0.398D-01 0.104D+01
 Coeff-En:   0.000D+00 0.100D+01
 Coeff:     -0.394D-01 0.104D+01
 Gap=     0.207 Goal=   None    Shift=    0.000
 RMSDP=8.21D-04 MaxDP=3.24D-02 DE=-2.12D-02 OVMax= 5.86D-03

 Cycle   3  Pass 1  IDiag  1:
 E= -706.415455067893     Delta-E=       -0.000075960001 Rises=F Damp=F
 DIIS: error= 8.33D-04 at cycle   3 NSaved=   3.
 NSaved= 3 IEnMin= 3 EnMin= -706.415455067893     IErMin= 3 ErrMin= 8.33D-04
 ErrMax= 8.33D-04  0.00D+00 EMaxC= 1.00D-01 BMatC= 3.33D-04 BMatP= 2.64D-04
 IDIUse=3 WtCom= 2.57D-01 WtEn= 7.43D-01
 Coeff-Com: -0.341D-01 0.575D+00 0.459D+00
 Coeff-En:   0.000D+00 0.400D+00 0.600D+00
 Coeff:     -0.876D-02 0.445D+00 0.563D+00
 Gap=     0.204 Goal=   None    Shift=    0.000
 RMSDP=4.55D-04 MaxDP=1.29D-02 DE=-7.60D-05 OVMax= 7.01D-03

 Cycle   4  Pass 1  IDiag  1:
 E= -706.415549534691     Delta-E=       -0.000094466798 Rises=F Damp=F
 DIIS: error= 7.01D-04 at cycle   4 NSaved=   4.
 NSaved= 4 IEnMin= 4 EnMin= -706.415549534691     IErMin= 4 ErrMin= 7.01D-04
 ErrMax= 7.01D-04  0.00D+00 EMaxC= 1.00D-01 BMatC= 2.17D-04 BMatP= 2.64D-04
 IDIUse=3 WtCom= 9.93D-01 WtEn= 7.01D-03
 Coeff-Com: -0.142D-01 0.184D+00 0.423D+00 0.407D+00
 Coeff-En:   0.000D+00 0.000D+00 0.418D+00 0.582D+00
 Coeff:     -0.141D-01 0.183D+00 0.423D+00 0.408D+00
 Gap=     0.205 Goal=   None    Shift=    0.000
 RMSDP=1.63D-04 MaxDP=3.94D-03 DE=-9.45D-05 OVMax= 3.77D-03

 Cycle   5  Pass 1  IDiag  1:
 E= -706.415722985602     Delta-E=       -0.000173450911 Rises=F Damp=F
 DIIS: error= 1.19D-04 at cycle   5 NSaved=   5.
 NSaved= 5 IEnMin= 5 EnMin= -706.415722985602     IErMin= 5 ErrMin= 1.19D-04
 ErrMax= 1.19D-04  0.00D+00 EMaxC= 1.00D-01 BMatC= 3.47D-06 BMatP= 2.17D-04
 IDIUse=3 WtCom= 9.99D-01 WtEn= 1.19D-03
 Coeff-Com: -0.384D-02 0.378D-01 0.177D+00 0.216D+00 0.573D+00
 Coeff-En:   0.000D+00 0.000D+00 0.000D+00 0.000D+00 0.100D+01
 Coeff:     -0.383D-02 0.378D-01 0.177D+00 0.216D+00 0.573D+00
 Gap=     0.206 Goal=   None    Shift=    0.000
 RMSDP=3.42D-05 MaxDP=9.05D-04 DE=-1.73D-04 OVMax= 6.39D-04

 Cycle   6  Pass 1  IDiag  1:
 E= -706.415726170407     Delta-E=       -0.000003184806 Rises=F Damp=F
 DIIS: error= 3.78D-05 at cycle   6 NSaved=   6.
 NSaved= 6 IEnMin= 6 EnMin= -706.415726170407     IErMin= 6 ErrMin= 3.78D-05
 ErrMax= 3.78D-05  0.00D+00 EMaxC= 1.00D-01 BMatC= 5.47D-07 BMatP= 3.47D-06
 IDIUse=1 WtCom= 1.00D+00 WtEn= 0.00D+00
 Coeff-Com: -0.513D-03-0.254D-02 0.508D-01 0.771D-01 0.340D+00 0.535D+00
 Coeff:     -0.513D-03-0.254D-02 0.508D-01 0.771D-01 0.340D+00 0.535D+00
 Gap=     0.205 Goal=   None    Shift=    0.000
 RMSDP=1.64D-05 MaxDP=3.33D-04 DE=-3.18D-06 OVMax= 2.95D-04

 Cycle   7  Pass 1  IDiag  1:
 E= -706.415726501824     Delta-E=       -0.000000331417 Rises=F Damp=F
 DIIS: error= 2.58D-05 at cycle   7 NSaved=   7.
 NSaved= 7 IEnMin= 7 EnMin= -706.415726501824     IErMin= 7 ErrMin= 2.58D-05
 ErrMax= 2.58D-05  0.00D+00 EMaxC= 1.00D-01 BMatC= 1.49D-07 BMatP= 5.47D-07
 IDIUse=1 WtCom= 1.00D+00 WtEn= 0.00D+00
 Coeff-Com:  0.382D-03-0.952D-02 0.506D-02 0.171D-01 0.145D+00 0.380D+00
 Coeff-Com:  0.462D+00
 Coeff:      0.382D-03-0.952D-02 0.506D-02 0.171D-01 0.145D+00 0.380D+00
 Coeff:      0.462D+00
 Gap=     0.205 Goal=   None    Shift=    0.000
 RMSDP=9.74D-06 MaxDP=3.94D-04 DE=-3.31D-07 OVMax= 1.66D-04

 Cycle   8  Pass 1  IDiag  1:
 E= -706.415726635566     Delta-E=       -0.000000133742 Rises=F Damp=F
 DIIS: error= 3.68D-06 at cycle   8 NSaved=   8.
 NSaved= 8 IEnMin= 8 EnMin= -706.415726635566     IErMin= 8 ErrMin= 3.68D-06
 ErrMax= 3.68D-06  0.00D+00 EMaxC= 1.00D-01 BMatC= 3.34D-09 BMatP= 1.49D-07
 IDIUse=1 WtCom= 1.00D+00 WtEn= 0.00D+00
 Coeff-Com:  0.203D-03-0.410D-02-0.122D-02 0.244D-02 0.429D-01 0.126D+00
 Coeff-Com:  0.209D+00 0.624D+00
 Coeff:      0.203D-03-0.410D-02-0.122D-02 0.244D-02 0.429D-01 0.126D+00
 Coeff:      0.209D+00 0.624D+00
 Gap=     0.205 Goal=   None    Shift=    0.000
 RMSDP=3.32D-06 MaxDP=1.77D-04 DE=-1.34D-07 OVMax= 2.28D-05

 Cycle   9  Pass 1  IDiag  1:
 E= -706.415726638801     Delta-E=       -0.000000003234 Rises=F Damp=F
 DIIS: error= 1.06D-06 at cycle   9 NSaved=   9.
 NSaved= 9 IEnMin= 9 EnMin= -706.415726638801     IErMin= 9 ErrMin= 1.06D-06
 ErrMax= 1.06D-06  0.00D+00 EMaxC= 1.00D-01 BMatC= 3.49D-10 BMatP= 3.34D-09
 IDIUse=1 WtCom= 1.00D+00 WtEn= 0.00D+00
 Coeff-Com:  0.369D-04-0.521D-03-0.120D-02-0.115D-02-0.113D-03 0.352D-02
 Coeff-Com:  0.324D-01 0.280D+00 0.687D+00
 Coeff:      0.369D-04-0.521D-03-0.120D-02-0.115D-02-0.113D-03 0.352D-02
 Coeff:      0.324D-01 0.280D+00 0.687D+00
 Gap=     0.205 Goal=   None    Shift=    0.000
 RMSDP=6.70D-07 MaxDP=2.93D-05 DE=-3.23D-09 OVMax= 7.74D-06

 Cycle  10  Pass 1  IDiag  1:
 E= -706.415726639168     Delta-E=       -0.000000000367 Rises=F Damp=F
 DIIS: error= 2.44D-07 at cycle  10 NSaved=  10.
 NSaved=10 IEnMin=10 EnMin= -706.415726639168     IErMin=10 ErrMin= 2.44D-07
 ErrMax= 2.44D-07  0.00D+00 EMaxC= 1.00D-01 BMatC= 1.78D-11 BMatP= 3.49D-10
 IDIUse=1 WtCom= 1.00D+00 WtEn= 0.00D+00
 Coeff-Com: -0.176D-05 0.139D-03-0.337D-03-0.620D-03-0.334D-02-0.842D-02
 Coeff-Com: -0.450D-02 0.562D-01 0.249D+00 0.712D+00
 Coeff:     -0.176D-05 0.139D-03-0.337D-03-0.620D-03-0.334D-02-0.842D-02
 Coeff:     -0.450D-02 0.562D-01 0.249D+00 0.712D+00
 Gap=     0.205 Goal=   None    Shift=    0.000
 RMSDP=2.04D-07 MaxDP=9.20D-06 DE=-3.67D-10 OVMax= 2.18D-06

 Cycle  11  Pass 1  IDiag  1:
 E= -706.415726639186     Delta-E=       -0.000000000018 Rises=F Damp=F
 DIIS: error= 8.76D-08 at cycle  11 NSaved=  11.
 NSaved=11 IEnMin=11 EnMin= -706.415726639186     IErMin=11 ErrMin= 8.76D-08
 ErrMax= 8.76D-08  0.00D+00 EMaxC= 1.00D-01 BMatC= 1.34D-12 BMatP= 1.78D-11
 IDIUse=1 WtCom= 1.00D+00 WtEn= 0.00D+00
 Coeff-Com: -0.235D-05 0.729D-04-0.454D-04-0.149D-03-0.109D-02-0.274D-02
 Coeff-Com: -0.343D-02 0.380D-02 0.445D-01 0.260D+00 0.699D+00
 Coeff:     -0.235D-05 0.729D-04-0.454D-04-0.149D-03-0.109D-02-0.274D-02
 Coeff:     -0.343D-02 0.380D-02 0.445D-01 0.260D+00 0.699D+00
 Gap=     0.205 Goal=   None    Shift=    0.000
 RMSDP=3.13D-08 MaxDP=1.18D-06 DE=-1.75D-11 OVMax= 6.69D-07

 Cycle  12  Pass 1  IDiag  1:
 E= -706.415726639185     Delta-E=        0.000000000000 Rises=F Damp=F
 DIIS: error= 1.60D-08 at cycle  12 NSaved=  12.
 NSaved=12 IEnMin=11 EnMin= -706.415726639186     IErMin=12 ErrMin= 1.60D-08
 ErrMax= 1.60D-08  0.00D+00 EMaxC= 1.00D-01 BMatC= 8.32D-14 BMatP= 1.34D-12
 IDIUse=1 WtCom= 1.00D+00 WtEn= 0.00D+00
 Coeff-Com: -0.644D-06 0.135D-04 0.648D-05-0.744D-05-0.125D-03-0.276D-03
 Coeff-Com: -0.763D-03-0.266D-02-0.273D-02 0.382D-01 0.242D+00 0.727D+00
 Coeff:     -0.644D-06 0.135D-04 0.648D-05-0.744D-05-0.125D-03-0.276D-03
 Coeff:     -0.763D-03-0.266D-02-0.273D-02 0.382D-01 0.242D+00 0.727D+00
 Gap=     0.205 Goal=   None    Shift=    0.000
 RMSDP=1.36D-08 MaxDP=7.26D-07 DE= 4.55D-13 OVMax= 2.30D-07

 Cycle  13  Pass 1  IDiag  1:
 E= -706.415726639188     Delta-E=       -0.000000000003 Rises=F Damp=F
 DIIS: error= 5.84D-09 at cycle  13 NSaved=  13.
 NSaved=13 IEnMin=13 EnMin= -706.415726639188     IErMin=13 ErrMin= 5.84D-09
 ErrMax= 5.84D-09  0.00D+00 EMaxC= 1.00D-01 BMatC= 1.15D-14 BMatP= 8.32D-14
 IDIUse=1 WtCom= 1.00D+00 WtEn= 0.00D+00
 Coeff-Com: -0.405D-07-0.167D-05 0.727D-05 0.123D-04 0.587D-04 0.162D-03
 Coeff-Com:  0.338D-04-0.179D-02-0.620D-02-0.118D-01 0.319D-01 0.305D+00
 Coeff-Com:  0.683D+00
 Coeff:     -0.405D-07-0.167D-05 0.727D-05 0.123D-04 0.587D-04 0.162D-03
 Coeff:      0.338D-04-0.179D-02-0.620D-02-0.118D-01 0.319D-01 0.305D+00
 Coeff:      0.683D+00
 Gap=     0.205 Goal=   None    Shift=    0.000
 RMSDP=2.46D-09 MaxDP=4.16D-08 DE=-2.96D-12 OVMax= 7.47D-08

 Error on total polarization charges =  0.02248
 SCF Done:  E(RB3LYP) =  -706.415726639     A.U. after   13 cycles
            NFock= 13  Conv=0.25D-08     -V/T= 2.0050
 KE= 7.029142917984D+02 PE=-2.208443241285D+03 EE= 5.343310936370D+02
 SMD-CDS (non-electrostatic) energy       (kcal/mol) =      -0.65
 (included in total energy above)
 Leave Link  502 at Tue Jan  7 23:52:51 2020, MaxMem=  4294967296 cpu:             278.2 elap:              19.9
 (Enter /home/cwagen/sw/g16/g16/l701.exe)
 ... and contract with generalized density number  0.
 Compute integral first derivatives.
 D1PCM: PCM CHGder 1st derivatives, ID1Alg=3 FixD1E=F DoIter=F DoCFld=F I1PDM=0.
 GePol: Maximum number of non-zero 1st derivatives   =     337
 Leave Link  701 at Tue Jan  7 23:52:55 2020, MaxMem=  4294967296 cpu:              51.4 elap:               4.0
 (Enter /home/cwagen/sw/g16/g16/l702.exe)
 L702 exits ... SP integral derivatives will be done elsewhere.
 Leave Link  702 at Tue Jan  7 23:52:55 2020, MaxMem=  4294967296 cpu:               0.8 elap:               0.1
 (Enter /home/cwagen/sw/g16/g16/l703.exe)
 Integral derivatives from FoFJK, PRISM(SPDF).
 Compute integral first derivatives, UseDBF=F ICtDFT=           0.
 Calling FoFJK, ICntrl=      2127 FMM=F ISym2X=0 I1Cent= 0 IOpClX= 0 NMat=1 NMatS=1 NMatT=0.
 FoFJK:  IHMeth= 1 ICntrl=    2127 DoSepK=F KAlg= 0 I1Cent=           0 FoldK=F
 IRaf=         0 NMat=       1 IRICut=       1 DoRegI=T DoRafI=F ISym2E= 0 IDoP0=0 IntGTp=1.
 FoFCou: FMM=F IPFlag=           0 FMFlag=      100000 FMFlg1=         800
         NFxFlg=           0 DoJE=F BraDBF=F KetDBF=F FulRan=T
         wScrn=  0.000000 ICntrl=      2127 IOpCl=  0 I1Cent=           0 NGrid=           0
         NMat0=    1 NMatS0=      1 NMatT0=    0 NMatD0=    1 NMtDS0=    0 NMtDT0=    0
 Symmetry not used in FoFCou.
 Leave Link  703 at Tue Jan  7 23:52:58 2020, MaxMem=  4294967296 cpu:              35.3 elap:               2.8
 (Enter /home/cwagen/sw/g16/g16/l716.exe)
 Dipole        =-6.06405939D-01 6.91870017D-01-1.53183765D+00
 ***** Axes restored to original set *****
 -------------------------------------------------------------------
 Center     Atomic                   Forces (Hartrees/Bohr)
 Number     Number              X              Y              Z
 -------------------------------------------------------------------
      1        6          -0.039188466   -0.064310372   -0.026769489
      2        8           0.001577997    0.000457225    0.001950274
      3        6          -0.000554339    0.005084946   -0.000225643
      4        1           0.000789697   -0.000246800   -0.000440070
      5        1           0.002345962    0.002692676   -0.001990621
      6        1           0.001703885   -0.001948159    0.000421475
      7       17          -0.024617018    0.032217067    0.013938781
      8        6           0.061253883    0.025445772    0.016031349
      9        7          -0.003311601    0.000607645   -0.002916056
 -------------------------------------------------------------------
 Cartesian Forces:  Max     0.064310372 RMS     0.021908860
 Leave Link  716 at Tue Jan  7 23:52:58 2020, MaxMem=  4294967296 cpu:               0.8 elap:               0.1
 (Enter /home/cwagen/sw/g16/g16/l103.exe)

 GradGradGradGradGradGradGradGradGradGradGradGradGradGradGradGradGradGrad
 Berny optimization.
 Using GEDIIS/GDIIS optimizer.
 FormGI is forming the generalized inverse of G from B-inverse, IUseBI=4.
 Internal  Forces:  Max     0.064688953 RMS     0.014132712
 Search for a local minimum.
 Step number   2 out of a maximum of   41
 All quantities printed in internal units (Hartrees-Bohrs-Radians)
 RMS Force = .24691D-02 SwitMx=.10000D-02 MixMth= 1
 Mixed Optimization -- RFO/linear search
 Update second derivatives using D2CorX and points    1    2
 DE= -7.52D-03 DEPred=-1.02D-02 R= 7.36D-01
 TightC=F SS=  1.41D+00  RLast= 3.92D-01 DXNew= 5.0454D-01 1.1755D+00
 Trust test= 7.36D-01 RLast= 3.92D-01 DXMaxT set to 5.05D-01
 ITU=  1  0
 Use linear search instead of GDIIS.
     Eigenvalues ---    0.00230   0.04693   0.05067   0.05338   0.05895
     Eigenvalues ---    0.08808   0.10146   0.15983   0.16000   0.16488
     Eigenvalues ---    0.23820   0.25000   0.25695   0.28260   0.33994
     Eigenvalues ---    0.34012   0.34435   0.67936   1.218731000.00000
     Eigenvalues --- 1000.000001000.000001000.000001000.000001000.00000
     Eigenvalues --- 1000.000001000.000001000.000001000.000001000.00000
     Eigenvalues --- 1000.00000
 RFO step:  Lambda=-1.14409939D-03 EMin= 2.30470758D-03
 Quartic linear search produced a step of -0.10230.
 Iteration  1 RMS(Cart)=  0.03662504 RMS(Int)=  0.00177581
 Iteration  2 RMS(Cart)=  0.00182602 RMS(Int)=  0.00039008
 Iteration  3 RMS(Cart)=  0.00000246 RMS(Int)=  0.00039007
 Iteration  4 RMS(Cart)=  0.00000000 RMS(Int)=  0.00039007
 Iteration  1 RMS(Cart)=  0.00000000 RMS(Int)=  0.00000000
 ITry= 1 IFail=0 DXMaxC= 1.19D-01 DCOld= 1.00D+10 DXMaxT= 5.05D-01 DXLimC= 3.00D+00 Rises=F
 Variable       Old X    -DE/DX   Delta X   Delta X   Delta X     New X
                                 (Linear)    (Quad)   (Total)
    R1        2.45695  -0.00222  -0.00048  -0.00223  -0.00271   2.45424
    R2        2.96208  -0.00632  -0.00174  -0.01843  -0.02017   2.94191
    R3        3.59048   0.04278   0.00000   0.00000   0.00000   3.59048
    R4        2.64562   0.06469   0.00000   0.00000   0.00000   2.64562
    R5        2.07278  -0.00038   0.00005  -0.00109  -0.00104   2.07174
    R6        2.07589  -0.00290  -0.00012  -0.00751  -0.00763   2.06826
    R7        2.06540   0.00255   0.00034   0.00618   0.00651   2.07192
    R8        2.20497  -0.00332   0.00044  -0.00312  -0.00268   2.20229
    A1        2.00616   0.00190  -0.00097   0.01637   0.01633   2.02249
    A2        1.94805   0.00152   0.00727   0.00323   0.01117   1.95923
    A3        1.95166   0.00098  -0.00606   0.01459   0.00952   1.96118
    A4        1.80296  -0.00007   0.01240  -0.02185  -0.00944   1.79353
    A5        1.93042  -0.00248  -0.01621   0.01146  -0.00440   1.92602
    A6        1.80916  -0.00233   0.00262  -0.03154  -0.02985   1.77931
    A7        1.97324   0.00046   0.00008   0.00276   0.00283   1.97606
    A8        1.91003  -0.00433  -0.00313  -0.02059  -0.02373   1.88630
    A9        1.87446   0.00144   0.00276   0.00468   0.00743   1.88189
   A10        1.89867   0.00199   0.00050   0.00887   0.00937   1.90804
   A11        1.91130  -0.00074  -0.00030  -0.00149  -0.00180   1.90951
   A12        1.89471   0.00119   0.00009   0.00582   0.00591   1.90062
   A13        3.04039   0.00517   0.00623   0.08581   0.09204   3.13243
   A14        3.08420  -0.00333  -0.01588  -0.03562  -0.05149   3.03271
    D1       -3.10966  -0.00054  -0.01314   0.01719   0.00400  -3.10567
    D2       -0.99043  -0.00078  -0.01464   0.01568   0.00098  -0.98945
    D3        1.06318  -0.00089  -0.01473   0.01414  -0.00065   1.06253
    D4       -0.98328   0.00237   0.00577   0.01530   0.02062  -0.96266
    D5        1.13595   0.00213   0.00427   0.01379   0.01761   1.15356
    D6       -3.09363   0.00203   0.00418   0.01226   0.01598  -3.07765
    D7        0.94305  -0.00129   0.00697  -0.02678  -0.01930   0.92375
    D8        3.06228  -0.00153   0.00547  -0.02829  -0.02231   3.03997
    D9       -1.16729  -0.00164   0.00538  -0.02983  -0.02395  -1.19124
         Item               Value     Threshold  Converged?
 Maximum Force            0.006315     0.000450     NO 
 RMS     Force            0.002469     0.000300     NO 
 Maximum Displacement     0.119338     0.001800     NO 
 RMS     Displacement     0.036994     0.001200     NO 
 Predicted change in Energy=-6.586495D-04
 Lowest energy point so far.  Saving SCF results.
 GradGradGradGradGradGradGradGradGradGradGradGradGradGradGradGradGradGrad

 Leave Link  103 at Tue Jan  7 23:53:01 2020, MaxMem=  4294967296 cpu:              50.2 elap:               3.6
 (Enter /home/cwagen/sw/g16/g16/l202.exe)
                          Input orientation:                          
 ---------------------------------------------------------------------
 Center     Atomic      Atomic             Coordinates (Angstroms)
 Number     Number       Type             X           Y           Z
 ---------------------------------------------------------------------
      1          6           0       -0.093961   -0.356691   -0.225582
      2          8           0       -0.291510   -0.683964   -1.466774
      3          6           0       -0.369818   -1.473142    0.823724
      4          1           0       -0.224025   -1.139875    1.857936
      5          1           0       -1.402252   -1.812762    0.694816
      6          1           0        0.307917   -2.308369    0.611148
      7         17           0       -1.244543    1.045205    0.340853
      8          6           0        1.171426    0.205054   -0.017639
      9          7           0        2.252366    0.632149    0.067898
 ---------------------------------------------------------------------
                    Distance matrix (angstroms):
                    1          2          3          4          5
     1  C    0.000000
     2  O    1.298726   0.000000
     3  C    1.556793   2.423905   0.000000
     4  H    2.229651   3.356502   1.096320   0.000000
     5  H    2.163077   2.679628   1.094476   1.787133   0.000000
     6  H    2.161174   2.704767   1.096411   1.789643   1.782499
     7  Cl   1.900000   2.676903   2.709313   2.849135   2.884118
     8  C    1.400000   2.242883   2.428923   2.697017   3.347087
     9  N    2.563041   3.249411   3.446646   3.532253   4.441491
                    6          7          8          9
     6  H    0.000000
     7  Cl   3.705354   0.000000
     8  C    2.730992   2.582881   0.000000
     9  N    3.566882   3.531783   1.165400   0.000000
 Stoichiometry    C3H3ClNO(1-)
 Framework group  C1[X(C3H3ClNO)]
 Deg. of freedom    21
 Full point group                 C1      NOp   1
 RotChk:  IX=0 Diff= 6.25D-02
 Largest Abelian subgroup         C1      NOp   1
 Largest concise Abelian subgroup C1      NOp   1
                         Standard orientation:                         
 ---------------------------------------------------------------------
 Center     Atomic      Atomic             Coordinates (Angstroms)
 Number     Number       Type             X           Y           Z
 ---------------------------------------------------------------------
      1          6           0        0.084210    0.404862    0.204392
      2          8           0        0.095309    0.865712    1.418551
      3          6           0       -0.158776    1.455050   -0.918849
      4          1           0       -0.195225    1.014388   -1.922046
      5          1           0       -1.106562    1.961421   -0.711080
      6          1           0        0.653837    2.189673   -0.872941
      7         17           0       -1.319159   -0.844387   -0.078328
      8          6           0        1.218510   -0.363267   -0.084297
      9          7           0        2.206788   -0.959495   -0.245463
 ---------------------------------------------------------------------
 Rotational constants (GHZ):           3.6899073           2.5619825           2.1232530
 Leave Link  202 at Tue Jan  7 23:53:01 2020, MaxMem=  4294967296 cpu:               1.2 elap:               0.1
 (Enter /home/cwagen/sw/g16/g16/l301.exe)
 Standard basis: 6-31+G(d) (6D, 7F)
 Ernie: Thresh=  0.10000D-02 Tol=  0.10000D-05 Strict=F.
 There are   124 symmetry adapted cartesian basis functions of A   symmetry.
 There are   124 symmetry adapted basis functions of A   symmetry.
   124 basis functions,   228 primitive gaussians,   124 cartesian basis functions
    27 alpha electrons       27 beta electrons
       nuclear repulsion energy       265.5668974158 Hartrees.
 IExCor=  402 DFT=T Ex+Corr=B3LYP ExCW=0 ScaHFX=  0.200000
 ScaDFX=  0.800000  0.720000  1.000000  0.810000 ScalE2=  1.000000  1.000000
 IRadAn=      5 IRanWt=     -1 IRanGd=            0 ICorTp=0 IEmpDi=  4
 NAtoms=    9 NActive=    9 NUniq=    9 SFac= 1.00D+00 NAtFMM=   60 NAOKFM=F Big=F
 Integral buffers will be    131072 words long.
 Raffenetti 2 integral format.
 Two-electron integral symmetry is turned on.
 ------------------------------------------------------------------------------
 Polarizable Continuum Model (PCM)
 =================================
 Model                : PCM.
 Atomic radii         : SMD-Coulomb.
 Polarization charges : Total charges.
 Charge compensation  : None.
 Solution method      : On-the-fly selection.
 Cavity type          : VdW (van der Waals Surface) (Alpha=1.000).
 Cavity algorithm     : GePol (No added spheres)
                        Default sphere list used, NSphG=    9.
                        Lebedev-Laikov grids with approx.  5.0 points / Ang**2.
                        Smoothing algorithm: York/Karplus (Gamma=1.0000).
                        Polarization charges: spherical gaussians, with
                                              point-specific exponents (IZeta= 3).
                        Self-potential: point-specific (ISelfS= 7).
                        Self-field    : sphere-specific E.n sum rule (ISelfD= 2).
 1st derivatives      : Analytical E(r).r(x)/FMM algorithm (CHGder, D1EAlg=3).
                        Cavity 1st derivative terms included.
 Solvent              : TetraHydroFuran, Eps=   7.425700 Eps(inf)=   1.974025
 ------------------------------------------------------------------------------
 Spheres list:
 ISph  on   Nord     Re0    Alpha      Xe            Ye            Ze
    1   C      1    1.8500  1.000      0.084210      0.404862      0.204392
    2   O      2    2.2940  1.000      0.095309      0.865712      1.418551
    3   C      3    1.8500  1.000     -0.158776      1.455050     -0.918849
    4   H      4    1.2000  1.000     -0.195225      1.014388     -1.922046
    5   H      5    1.2000  1.000     -1.106562      1.961421     -0.711080
    6   H      6    1.2000  1.000      0.653837      2.189673     -0.872941
    7  Cl      7    2.3800  1.000     -1.319159     -0.844387     -0.078328
    8   C      8    1.8500  1.000      1.218510     -0.363267     -0.084297
    9   N      9    1.8900  1.000      2.206788     -0.959495     -0.245463
 ------------------------------------------------------------------------------
 GePol: Number of generator spheres                  =       9
 GePol: Total number of spheres                      =       9
 GePol: Number of exposed spheres                    =       9 (100.00%)
 GePol: Number of points                             =    1097
 GePol: Average weight of points                     =       0.14
 GePol: Minimum weight of points                     =   0.18D-07
 GePol: Maximum weight of points                     =    0.18138
 GePol: Number of points with low weight             =      30
 GePol: Fraction of low-weight points (<1% of avg)   =       2.73%
 GePol: Cavity surface area                          =    150.177 Ang**2
 GePol: Cavity volume                                =    138.636 Ang**3
 ------------------------------------------------------------------------------
 Atomic radii for non-electrostatic terms: SMD-CDS.
 ------------------------------------------------------------------------------
 PCM non-electrostatic energy =        -0.0010389955 Hartrees.
 Nuclear repulsion after PCM non-electrostatic terms =      265.5658584203 Hartrees.
 Leave Link  301 at Tue Jan  7 23:53:02 2020, MaxMem=  4294967296 cpu:               2.0 elap:               0.2
 (Enter /home/cwagen/sw/g16/g16/l302.exe)
[...]
      3        6           0.000009019   -0.000001554    0.000009837
      4        1          -0.000006940    0.000010765   -0.000007600
      5        1           0.000010108   -0.000006139   -0.000002161
      6        1           0.000017642   -0.000004459    0.000014616
      7       17          -0.027344365    0.033389154    0.013415066
      8        6           0.061032380    0.027466852    0.009797473
      9        7          -0.000018906    0.000017827    0.000011234
 -------------------------------------------------------------------
 Cartesian Forces:  Max     0.061032380 RMS     0.021081614
 Leave Link  716 at Tue Jan  7 23:56:36 2020, MaxMem=  4294967296 cpu:               0.8 elap:               0.1
 (Enter /home/cwagen/sw/g16/g16/l103.exe)

 GradGradGradGradGradGradGradGradGradGradGradGradGradGradGradGradGradGrad
 Berny optimization.
 Using GEDIIS/GDIIS optimizer.
 FormGI is forming the generalized inverse of G from B-inverse, IUseBI=4.
 Internal  Forces:  Max     0.067635428 RMS     0.014610584
 Search for a local minimum.
 Step number   7 out of a maximum of   41
 All quantities printed in internal units (Hartrees-Bohrs-Radians)
 RMS Force = .66166D-05 SwitMx=.10000D-02 MixMth= 2
 Mixed Optimization -- En-DIIS/RFO-DIIS
 Swapping is turned off.
 Update second derivatives using D2CorX and points    1    2    3    4    5
                                                      6    7
 DE= -1.95D-07 DEPred=-4.01D-08 R= 4.85D+00
 Trust test= 4.85D+00 RLast= 4.13D-03 DXMaxT set to 2.52D-01
 ITU=  0 -1  1  1  1  1  0
     Eigenvalues ---    0.00369   0.05220   0.05628   0.05961   0.08147
     Eigenvalues ---    0.09087   0.09965   0.14672   0.15718   0.16431
     Eigenvalues ---    0.23149   0.25058   0.26112   0.27733   0.33854
     Eigenvalues ---    0.34085   0.34457   0.63188   1.218921000.00000
     Eigenvalues --- 1000.000001000.000001000.000001000.000001000.00000
     Eigenvalues --- 1000.000001000.000001000.000001000.000001000.00000
     Eigenvalues --- 1000.00000
 En-DIIS/RFO-DIIS/Sim-DIIS IScMMF=       -3 using points:     7    6    5    4
 RFO step:  Lambda=-6.62092334D-06.
 NNeg= 0 NGDIIS= 4 SimSw=  2.50D-03 Rises=F DC= -1.95D-07 SmlDif=  1.00D-05
 NRisDI= 0 DoIntr=F SqrtH=F CThrHd= 10.0 CDAdj=  3.0
 RMS Error=  0.1591980985D-03 NUsed= 4 OKEnD=F EnDIS=F
 InvSVX:  RCond= 2.71D-06 Info=           0 Equed=N FErr=  1.02D-14 BErr=  1.25D-16
 DidBck=T Rises=F RFO-DIIS coefs:    0.69744    0.26095    0.03802    0.00360
 Iteration  1 RMS(Cart)=  0.00017188 RMS(Int)=  0.00000002
 Iteration  2 RMS(Cart)=  0.00000002 RMS(Int)=  0.00000001
 Iteration  1 RMS(Cart)=  0.00000000 RMS(Int)=  0.00000000
 ITry= 1 IFail=0 DXMaxC= 4.93D-04 DCOld= 1.00D+10 DXMaxT= 2.52D-01 DXLimC= 3.00D+00 Rises=F
 Variable       Old X    -DE/DX   Delta X   Delta X   Delta X     New X
                                 (Linear)    (Quad)   (Total)
    R1        2.44818  -0.00002   0.00002  -0.00005  -0.00003   2.44814
    R2        2.93705   0.00000  -0.00001   0.00001   0.00000   2.93704
    R3        3.59048   0.04520   0.00000   0.00000   0.00000   3.59048
    R4        2.64562   0.06764   0.00000   0.00000   0.00000   2.64562
    R5        2.07081  -0.00001  -0.00002   0.00001  -0.00002   2.07080
    R6        2.06815   0.00000   0.00000  -0.00001  -0.00001   2.06814
    R7        2.07302   0.00001   0.00000   0.00003   0.00003   2.07304
    R8        2.20233  -0.00001   0.00000  -0.00001  -0.00001   2.20232
    A1        2.01840   0.00000  -0.00002   0.00003   0.00001   2.01842
    A2        1.96278   0.00000  -0.00002   0.00002   0.00001   1.96279
    A3        1.95915   0.00001  -0.00004   0.00006   0.00002   1.95917
    A4        1.79952   0.00001   0.00002   0.00000   0.00002   1.79954
    A5        1.92782  -0.00001   0.00004  -0.00008  -0.00003   1.92779
    A6        1.77478   0.00000   0.00002  -0.00006  -0.00003   1.77475
    A7        1.97659  -0.00001  -0.00007   0.00003  -0.00003   1.97655
    A8        1.88553  -0.00001  -0.00004   0.00001  -0.00003   1.88550
    A9        1.88683   0.00001   0.00005  -0.00001   0.00005   1.88688
   A10        1.91083   0.00000   0.00004  -0.00004  -0.00001   1.91083
   A11        1.90418   0.00000   0.00001   0.00001   0.00002   1.90419
   A12        1.89840   0.00000   0.00002   0.00000   0.00001   1.89841
   A13        3.09690   0.00000  -0.00004  -0.00001  -0.00006   3.09685
   A14        3.03573   0.00001   0.00000   0.00013   0.00013   3.03586
    D1       -3.10750   0.00000  -0.00027   0.00001  -0.00026  -3.10777
    D2       -0.98795   0.00000  -0.00030  -0.00002  -0.00032  -0.98827
    D3        1.06364   0.00000  -0.00028  -0.00002  -0.00029   1.06334
    D4       -0.95808   0.00000  -0.00029   0.00006  -0.00023  -0.95831
    D5        1.16147   0.00000  -0.00032   0.00003  -0.00029   1.16118
    D6       -3.07013   0.00000  -0.00029   0.00003  -0.00026  -3.07039
    D7        0.92667   0.00000  -0.00024  -0.00004  -0.00027   0.92640
    D8        3.04622   0.00000  -0.00027  -0.00006  -0.00033   3.04590
    D9       -1.18537   0.00000  -0.00024  -0.00006  -0.00030  -1.18568
         Item               Value     Threshold  Converged?
 Maximum Force            0.000024     0.000450     YES
 RMS     Force            0.000007     0.000300     YES
 Maximum Displacement     0.000493     0.001800     YES
 RMS     Displacement     0.000172     0.001200     YES
 Predicted change in Energy=-3.666456D-09
 Optimization completed.
    -- Stationary point found.
                           ----------------------------
                           !   Optimized Parameters   !
                           ! (Angstroms and Degrees)  !
 --------------------------                            --------------------------
 ! Name  Definition              Value          Derivative Info.                !
 --------------------------------------------------------------------------------
 ! R1    R(1,2)                  1.2955         -DE/DX =    0.0                 !
 ! R2    R(1,3)                  1.5542         -DE/DX =    0.0                 !
 ! R3    R(1,7)                  1.9            -DE/DX =    0.0452              !
 ! R4    R(1,8)                  1.4            -DE/DX =    0.0676              !
 ! R5    R(3,4)                  1.0958         -DE/DX =    0.0                 !
 ! R6    R(3,5)                  1.0944         -DE/DX =    0.0                 !
 ! R7    R(3,6)                  1.097          -DE/DX =    0.0                 !
 ! R8    R(8,9)                  1.1654         -DE/DX =    0.0                 !
 ! A1    A(2,1,3)              115.6461         -DE/DX =    0.0                 !
 ! A2    A(2,1,7)              112.4591         -DE/DX =    0.0                 !
 ! A3    A(2,1,8)              112.2511         -DE/DX =    0.0                 !
 ! A4    A(3,1,7)              103.1051         -DE/DX =    0.0                 !
 ! A5    A(3,1,8)              110.456          -DE/DX =    0.0                 !
 ! A6    A(7,1,8)              101.6875         -DE/DX =    0.0                 !
 ! A7    A(1,3,4)              113.2501         -DE/DX =    0.0                 !
 ! A8    A(1,3,5)              108.033          -DE/DX =    0.0                 !
 ! A9    A(1,3,6)              108.1075         -DE/DX =    0.0                 !
 ! A10   A(4,3,5)              109.4827         -DE/DX =    0.0                 !
 ! A11   A(4,3,6)              109.1012         -DE/DX =    0.0                 !
 ! A12   A(5,3,6)              108.7701         -DE/DX =    0.0                 !
 ! A13   L(1,8,9,6,-1)         177.4394         -DE/DX =    0.0                 !
 ! A14   L(1,8,9,6,-2)         173.9346         -DE/DX =    0.0                 !
 ! D1    D(2,1,3,4)           -178.0468         -DE/DX =    0.0                 !
 ! D2    D(2,1,3,5)            -56.6055         -DE/DX =    0.0                 !
 ! D3    D(2,1,3,6)             60.9419         -DE/DX =    0.0                 !
 ! D4    D(7,1,3,4)            -54.894          -DE/DX =    0.0                 !
 ! D5    D(7,1,3,5)             66.5473         -DE/DX =    0.0                 !
 ! D6    D(7,1,3,6)           -175.9054         -DE/DX =    0.0                 !
 ! D7    D(8,1,3,4)             53.0945         -DE/DX =    0.0                 !
 ! D8    D(8,1,3,5)            174.5358         -DE/DX =    0.0                 !
 ! D9    D(8,1,3,6)            -67.9168         -DE/DX =    0.0                 !
 --------------------------------------------------------------------------------
 Lowest energy point so far.  Saving SCF results.
 Largest change from initial coordinates is atom    6       0.299 Angstoms.
 GradGradGradGradGradGradGradGradGradGradGradGradGradGradGradGradGradGrad

 Leave Link  103 at Tue Jan  7 23:56:39 2020, MaxMem=  4294967296 cpu:              52.7 elap:               3.6
 (Enter /home/cwagen/sw/g16/g16/l202.exe)
                          Input orientation:                          
 ---------------------------------------------------------------------
 Center     Atomic      Atomic             Coordinates (Angstroms)
 Number     Number       Type             X           Y           Z
 ---------------------------------------------------------------------
      1          6           0       -0.099563   -0.353474   -0.225384
      2          8           0       -0.295260   -0.685665   -1.462203
      3          6           0       -0.367084   -1.470560    0.821586
      4          1           0       -0.222469   -1.137892    1.855636
      5          1           0       -1.396522   -1.818188    0.690572
      6          1           0        0.315898   -2.303426    0.613589
      7         17           0       -1.248314    1.050515    0.339581
      8          6           0        1.163753    0.214782   -0.022606
      9          7           0        2.255159    0.611513    0.075608
 ---------------------------------------------------------------------
                    Distance matrix (angstroms):
                    1          2          3          4          5
     1  C    0.000000
     2  O    1.295519   0.000000
     3  C    1.554219   2.415970   0.000000
     4  H    2.227344   3.349307   1.095828   0.000000
     5  H    2.160201   2.670174   1.094419   1.788456   0.000000
     6  H    2.163053   2.701773   1.096993   1.786334   1.781507
     7  Cl   1.900000   2.677510   2.713801   2.853052   2.893894
     8  C    1.400000   2.238741   2.428271   2.697986   3.346132
     9  N    2.562520   3.248410   3.430404   3.516754   4.429041
                    6          7          8          9
     6  H    0.000000
     7  Cl   3.710898   0.000000
     8  C    2.732210   2.578313   0.000000
     9  N    3.542178   3.540724   1.165422   0.000000
 Stoichiometry    C3H3ClNO(1-)
 Framework group  C1[X(C3H3ClNO)]
 Deg. of freedom    21
 Full point group                 C1      NOp   1
 RotChk:  IX=0 Diff= 7.48D-16
 Largest Abelian subgroup         C1      NOp   1
 Largest concise Abelian subgroup C1      NOp   1
                         Standard orientation:                         
 ---------------------------------------------------------------------
 Center     Atomic      Atomic             Coordinates (Angstroms)
 Number     Number       Type             X           Y           Z
 ---------------------------------------------------------------------
      1          6           0        0.085607    0.401773    0.205143
      2          8           0        0.099444    0.868311    1.413663
      3          6           0       -0.127228    1.453251   -0.919442
      4          1           0       -0.166172    1.012525   -1.921979
      5          1           0       -1.063882    1.981638   -0.716362
      6          1           0        0.700286    2.172040   -0.875192
      7         17           0       -1.333265   -0.828905   -0.081616
      8          6           0        1.207274   -0.389321   -0.070600
      9          7           0        2.200830   -0.973647   -0.242699
 ---------------------------------------------------------------------
 Rotational constants (GHZ):           3.7038053           2.5588284           2.1217022
 Leave Link  202 at Tue Jan  7 23:56:39 2020, MaxMem=  4294967296 cpu:               1.6 elap:               0.1
 (Enter /home/cwagen/sw/g16/g16/l601.exe)
 Copying SCF densities to generalized density rwf, IOpCl= 0 IROHF=0.

 **********************************************************************

            Population analysis using the SCF density.

 **********************************************************************

 Orbital symmetries:
       Occupied  (A) (A) (A) (A) (A) (A) (A) (A) (A) (A) (A) (A)
                 (A) (A) (A) (A) (A) (A) (A) (A) (A) (A) (A) (A)
                 (A) (A) (A)
       Virtual   (A) (A) (A) (A) (A) (A) (A) (A) (A) (A) (A) (A)
                 (A) (A) (A) (A) (A) (A) (A) (A) (A) (A) (A) (A)
                 (A) (A) (A) (A) (A) (A) (A) (A) (A) (A) (A) (A)
                 (A) (A) (A) (A) (A) (A) (A) (A) (A) (A) (A) (A)
                 (A) (A) (A) (A) (A) (A) (A) (A) (A) (A) (A) (A)
                 (A) (A) (A) (A) (A) (A) (A) (A) (A) (A) (A) (A)
                 (A) (A) (A) (A) (A) (A) (A) (A) (A) (A) (A) (A)
                 (A) (A) (A) (A) (A) (A) (A) (A) (A) (A) (A) (A)
                 (A)
 The electronic state is 1-A.
 Alpha  occ. eigenvalues -- -101.48250 -19.05829 -14.32158 -10.26851 -10.21189
 Alpha  occ. eigenvalues --  -10.15882  -9.40020  -7.16207  -7.15538  -7.15509
 Alpha  occ. eigenvalues --   -0.96270  -0.88670  -0.78494  -0.70418  -0.63035
 Alpha  occ. eigenvalues --   -0.45559  -0.42469  -0.40095  -0.37060  -0.36139
 Alpha  occ. eigenvalues --   -0.35233  -0.31753  -0.31365  -0.26887  -0.26376
 Alpha  occ. eigenvalues --   -0.21097  -0.19877
 Alpha virt. eigenvalues --    0.00923   0.02701   0.04218   0.05022   0.06000
 Alpha virt. eigenvalues --    0.07268   0.07650   0.09294   0.09826   0.10177
 Alpha virt. eigenvalues --    0.10533   0.11484   0.13863   0.14021   0.14612
 Alpha virt. eigenvalues --    0.15170   0.16635   0.18443   0.20674   0.23278
 Alpha virt. eigenvalues --    0.25059   0.25993   0.26267   0.26897   0.28437
 Alpha virt. eigenvalues --    0.29494   0.30831   0.33283   0.35826   0.37635
 Alpha virt. eigenvalues --    0.39057   0.39355   0.44906   0.57083   0.59922
 Alpha virt. eigenvalues --    0.66045   0.66636   0.68011   0.68904   0.69486
 Alpha virt. eigenvalues --    0.72955   0.76545   0.79394   0.80352   0.83532
 Alpha virt. eigenvalues --    0.87190   0.88370   0.94904   0.96072   0.96725
 Alpha virt. eigenvalues --    1.01456   1.02531   1.04391   1.07306   1.09798
 Alpha virt. eigenvalues --    1.11607   1.12594   1.17313   1.21171   1.28082
 Alpha virt. eigenvalues --    1.34526   1.36307   1.39351   1.47282   1.49399
 Alpha virt. eigenvalues --    1.55823   1.58147   1.59649   1.71631   1.74568
 Alpha virt. eigenvalues --    1.82603   1.86266   1.89060   1.96124   1.97850
 Alpha virt. eigenvalues --    2.01049   2.02957   2.08651   2.10223   2.24575
 Alpha virt. eigenvalues --    2.27513   2.32440   2.33840   2.47080   2.50693
 Alpha virt. eigenvalues --    2.73044   2.88629   2.91869   3.00757   3.13332
 Alpha virt. eigenvalues --    3.33495   4.18876   4.26151   4.37276   4.40566
 Alpha virt. eigenvalues --    4.43323   4.81994
          Condensed to atoms (all electrons):
               1          2          3          4          5          6
     1  C    7.682287   0.670348   0.461471  -0.092188  -0.073917  -0.060769
     2  O    0.670348   8.551693  -0.220109   0.010533  -0.002387  -0.003892
     3  C    0.461471  -0.220109   5.770030   0.351347   0.399308   0.382011
     4  H   -0.092188   0.010533   0.351347   0.512571  -0.026387  -0.030447
     5  H   -0.073917  -0.002387   0.399308  -0.026387   0.477734  -0.023918
     6  H   -0.060769  -0.003892   0.382011  -0.030447  -0.023918   0.500893
     7  Cl  -0.476692  -0.156233  -0.206586   0.013567  -0.003089   0.012596
     8  C   -2.054809  -0.230366  -0.303901   0.044293   0.022427   0.004443
     9  N    0.002705  -0.029109  -0.034513  -0.000367   0.000636  -0.001239
               7          8          9
     1  C   -0.476692  -2.054809   0.002705
     2  O   -0.156233  -0.230366  -0.029109
     3  C   -0.206586  -0.303901  -0.034513
     4  H    0.013567   0.044293  -0.000367
     5  H   -0.003089   0.022427   0.000636
     6  H    0.012596   0.004443  -0.001239
     7  Cl  17.780180   0.302129  -0.033231
     8  C    0.302129   7.279091   0.451510
     9  N   -0.033231   0.451510   7.315166
 Mulliken charges:
               1
     1  C   -0.058437
     2  O   -0.590480
     3  C   -0.599058
     4  H    0.217079
     5  H    0.229592
     6  H    0.220321
     7  Cl  -0.232641
     8  C    0.485182
     9  N   -0.671557
 Sum of Mulliken charges =  -1.00000
 Mulliken charges with hydrogens summed into heavy atoms:
               1
     1  C   -0.058437
     2  O   -0.590480
     3  C    0.067934
     7  Cl  -0.232641
     8  C    0.485182
     9  N   -0.671557
 Electronic spatial extent (au):  <R**2>=            657.6896
 Charge=             -1.0000 electrons
 Dipole moment (field-independent basis, Debye):
    X=             -1.6805    Y=              1.7963    Z=             -3.9311  Tot=              4.6373
 Quadrupole moment (field-independent basis, Debye-Ang):
   XX=            -59.8651   YY=            -50.9672   ZZ=            -52.5901
   XY=              2.8729   XZ=              0.6784   YZ=             -5.4238
 Traceless Quadrupole moment (field-independent basis, Debye-Ang):
   XX=             -5.3910   YY=              3.5069   ZZ=              1.8840
   XY=              2.8729   XZ=              0.6784   YZ=             -5.4238
 Octapole moment (field-independent basis, Debye-Ang**2):
  XXX=            -30.0924  YYY=              3.7173  ZZZ=            -10.3589  XYY=             -6.5664
  XXY=             17.1609  XXZ=              4.0180  XZZ=             -2.5325  YZZ=             -5.8605
  YYZ=             -3.0497  XYZ=             -1.9968
 Hexadecapole moment (field-independent basis, Debye-Ang**3):
 XXXX=           -528.9084 YYYY=           -312.2886 ZZZZ=           -205.2773 XXXY=             37.5658
 XXXZ=              9.6572 YYYX=             12.2214 YYYZ=             -5.4114 ZZZX=             -0.0206
 ZZZY=             -7.6222 XXYY=           -139.2201 XXZZ=           -110.4043 YYZZ=            -91.2435
 XXYZ=             -4.8934 YYXZ=              1.8140 ZZXY=              1.4408
 N-N= 2.656873662190D+02 E-N=-2.210304769530D+03  KE= 7.029646554631D+02
 No NMR shielding tensors so no spin-rotation constants.
 Leave Link  601 at Tue Jan  7 23:56:40 2020, MaxMem=  4294967296 cpu:              13.9 elap:               1.0
 (Enter /home/cwagen/sw/g16/g16/l9999.exe)
 1\1\GINC-NODE028\FOpt\RB3LYP\6-31+G(d)\C3H3Cl1N1O1(1-)\CWAGEN\07-Jan-2
 020\0\\#p opt=modredundant b3lyp/6-31+g(d) scrf=(smd, solvent=tetrahyd
 rofuran)\\title\\-1,1\C,-0.0995627544,-0.3534738333,-0.2253838839\O,-0
 .2952595025,-0.6856653735,-1.4622028647\C,-0.3670838332,-1.4705597121,
 0.8215864384\H,-0.2224692935,-1.1378918119,1.8556355857\H,-1.396522208
 8,-1.8181883579,0.6905724877\H,0.3158983749,-2.3034258513,0.6135890283
 \Cl,-1.2483139559,1.0505153506,0.3395807545\C,1.1637529352,0.214781922
 6,-0.0226059897\N,2.2551589482,0.6115130467,0.0756078537\\Version=AS64
 L-G16RevA.03\State=1-A\HF=-706.416333\RMSD=2.518e-09\RMSF=2.108e-02\Di
 pole=-0.6025135,-0.7518367,1.5493241\Quadrupole=-4.7211777,3.9152485,0
 .8059292,-1.2377484,-0.6651855,-3.5186221\PG=C01 [X(C3H3Cl1N1O1)]\\@


 LIFE CAN ONLY BE UNDERSTOOD BACKWARD, BUT MUST
 BE LIVED FORWARD. -- KIRKEGAARD
 Job cpu time:       0 days  1 hours  9 minutes 22.1 seconds.
 Elapsed time:       0 days  0 hours  5 minutes 10.9 seconds.
 File lengths (MBytes):  RWF=     32 Int=      0 D2E=      0 Chk=      3 Scr=      1
 Normal termination of Gaussian 16 at Tue Jan  7 23:56:41 2020.
