 Entering Gaussian System, Link 0=g16
 Input=scan_150_130.gjf
 Output=scan_150_130.out
 Initial command:
 /home/cwagen/sw/g16/g16/l1.exe "/scratch/users/cwagen/cwagen_scan_150_130/Gau-57302.inp" -scrdir="/scratch/users/cwagen/cwagen_scan_150_130/"
 Entering Link 1 = /home/cwagen/sw/g16/g16/l1.exe PID=     57303.
  
 Copyright (c) 1988,1990,1992,1993,1995,1998,2003,2009,2016,
            Gaussian, Inc.  All Rights Reserved.
  
 This is part of the Gaussian(R) 16 program.  It is based on
 the Gaussian(R) 09 system (copyright 2009, Gaussian, Inc.),
 the Gaussian(R) 03 system (copyright 2003, Gaussian, Inc.),
 the Gaussian(R) 98 system (copyright 1998, Gaussian, Inc.),
 the Gaussian(R) 94 system (copyright 1995, Gaussian, Inc.),
 the Gaussian 92(TM) system (copyright 1992, Gaussian, Inc.),
 the Gaussian 90(TM) system (copyright 1990, Gaussian, Inc.),
 the Gaussian 88(TM) system (copyright 1988, Gaussian, Inc.),
 the Gaussian 86(TM) system (copyright 1986, Carnegie Mellon
 University), and the Gaussian 82(TM) system (copyright 1983,
 Carnegie Mellon University). Gaussian is a federally registered
 trademark of Gaussian, Inc.
  
 This software contains proprietary and confidential information,
 including trade secrets, belonging to Gaussian, Inc.
  
 This software is provided under written license and may be
 used, copied, transmitted, or stored only in accord with that
 written license.
  
 The following legend is applicable only to US Government
 contracts under FAR:
  
                    RESTRICTED RIGHTS LEGEND
  
 Use, reproduction and disclosure by the US Government is
 subject to restrictions as set forth in subparagraphs (a)
 and (c) of the Commercial Computer Software - Restricted
 Rights clause in FAR 52.227-19.
  
 Gaussian, Inc.
 340 Quinnipiac St., Bldg. 40, Wallingford CT 06492
  
  
 ---------------------------------------------------------------
 Warning -- This program may not be used in any manner that
 competes with the business of Gaussian, Inc. or will provide
 assistance to any competitor of Gaussian, Inc.  The licensee
 of this program is prohibited from giving any competitor of
 Gaussian, Inc. access to this program.  By using this program,
 the user acknowledges that Gaussian, Inc. is engaged in the
 business of creating and licensing software in the field of
 computational chemistry and represents and warrants to the
 licensee that it is not a competitor of Gaussian, Inc. and that
 it will not use this program in any manner prohibited above.
 ---------------------------------------------------------------
  

 Cite this work as:
 Gaussian 16, Revision A.03,
 M. J. Frisch, G. W. Trucks, H. B. Schlegel, G. E. Scuseria, 
 M. A. Robb, J. R. Cheeseman, G. Scalmani, V. Barone, 
 G. A. Petersson, H. Nakatsuji, X. Li, M. Caricato, A. V. Marenich, 
 J. Bloino, B. G. Janesko, R. Gomperts, B. Mennucci, H. P. Hratchian, 
 J. V. Ortiz, A. F. Izmaylov, J. L. Sonnenberg, D. Williams-Young, 
 F. Ding, F. Lipparini, F. Egidi, J. Goings, B. Peng, A. Petrone, 
 T. Henderson, D. Ranasinghe, V. G. Zakrzewski, J. Gao, N. Rega, 
 G. Zheng, W. Liang, M. Hada, M. Ehara, K. Toyota, R. Fukuda, 
 J. Hasegawa, M. Ishida, T. Nakajima, Y. Honda, O. Kitao, H. Nakai, 
 T. Vreven, K. Throssell, J. A. Montgomery, Jr., J. E. Peralta, 
 F. Ogliaro, M. J. Bearpark, J. J. Heyd, E. N. Brothers, K. N. Kudin, 
 V. N. Staroverov, T. A. Keith, R. Kobayashi, J. Normand, 
 K. Raghavachari, A. P. Rendell, J. C. Burant, S. S. Iyengar, 
 J. Tomasi, M. Cossi, J. M. Millam, M. Klene, C. Adamo, R. Cammi, 
 J. W. Ochterski, R. L. Martin, K. Morokuma, O. Farkas, 
 J. B. Foresman, and D. J. Fox, Gaussian, Inc., Wallingford CT, 2016.
 
 ******************************************
 Gaussian 16:  AS64L-G16RevA.03 25-Dec-2016
                 7-Jan-2020 
 ******************************************
 %nprocshared=16
 Will use up to   16 processors via shared memory.
 %mem=32GB
 ----------------------------------------------------------------------
 #p opt=modredundant b3lyp/6-31+g(d) scrf=(smd, solvent=tetrahydrofuran
 )
 ----------------------------------------------------------------------
 1/18=120,19=15,26=3,38=1/1,3;
 2/9=110,12=2,17=6,18=5,40=1/2;
 3/5=1,6=6,7=11,11=2,25=1,30=1,70=32201,71=1,72=20,74=-5/1,2,3;
 4//1;
 5/5=2,38=5,53=20/2;
 6/7=2,8=2,9=2,10=2,28=1/1;
 7//1,2,3,16;
 1/18=20,19=15,26=3/3(2);
 2/9=110/2;
 99//99;
 2/9=110/2;
 3/5=1,6=6,7=11,11=2,25=1,30=1,70=32205,71=1,72=20,74=-5/1,2,3;
 4/5=5,16=3,69=1/1;
 5/5=2,38=5,53=20/2;
 7//1,2,3,16;
 1/18=20,19=15,26=3/3(-5);
 2/9=110/2;
 6/7=2,8=2,9=2,10=2,19=2,28=1/1;
 99/9=1/99;
 Leave Link    1 at Tue Jan  7 10:52:59 2020, MaxMem=  4294967296 cpu:               3.0 elap:               0.3
 (Enter /home/cwagen/sw/g16/g16/l101.exe)
 -----
 title
 -----
 Symbolic Z-matrix:
 Charge = -1 Multiplicity = 1
 6                    -0.55158  -0.15266  -0.02976 
 8                     2.9177    0.19159   0.38149 
 6                    -0.82679  -1.6507    0.02859 
 1                    -1.47682  -1.96229  -0.80287 
 1                     0.10838  -2.24317  -0.02407 
 1                    -1.35043  -1.91647   0.95725 
 17                   -1.74858   0.74533   0.07412 
 6                     0.67722   0.25352  -0.15252 
 7                     1.88269   0.17915  -0.47675 
 
 The following ModRedundant input section has been read:
 B       1       7 F                                                           
 B       1       8 F                                                           
 
 ITRead=  0  0  0  0  0  0  0  0  0
 MicOpt= -1 -1 -1 -1 -1 -1 -1 -1 -1
 NAtoms=      9 NQM=        9 NQMF=       0 NMMI=      0 NMMIF=      0
                NMic=       0 NMicF=      0.
                    Isotopes and Nuclear Properties:
 (Nuclear quadrupole moments (NQMom) in fm**2, nuclear magnetic moments (NMagM)
  in nuclear magnetons)

  Atom         1           2           3           4           5           6           7           8           9
 IAtWgt=          12          16          12           1           1           1          35          12          14
 AtmWgt=  12.0000000  15.9949146  12.0000000   1.0078250   1.0078250   1.0078250  34.9688527  12.0000000  14.0030740
 NucSpn=           0           0           0           1           1           1           3           0           2
 AtZEff=   0.0000000   0.0000000   0.0000000   0.0000000   0.0000000   0.0000000   0.0000000   0.0000000   0.0000000
 NQMom=    0.0000000   0.0000000   0.0000000   0.0000000   0.0000000   0.0000000  -8.1650000   0.0000000   2.0440000
 NMagM=    0.0000000   0.0000000   0.0000000   2.7928460   2.7928460   2.7928460   0.8218740   0.0000000   0.4037610
 AtZNuc=   6.0000000   8.0000000   6.0000000   1.0000000   1.0000000   1.0000000  17.0000000   6.0000000   7.0000000
 Leave Link  101 at Tue Jan  7 10:53:01 2020, MaxMem=  4294967296 cpu:              16.0 elap:               1.1
 (Enter /home/cwagen/sw/g16/g16/l103.exe)

 GradGradGradGradGradGradGradGradGradGradGradGradGradGradGradGradGradGrad
 Berny optimization.
 Initialization pass.
                           ----------------------------
                           !    Initial Parameters    !
                           ! (Angstroms and Degrees)  !
 --------------------------                            --------------------------
 ! Name  Definition              Value          Derivative Info.                !
 --------------------------------------------------------------------------------
 ! R1    R(1,3)                  1.5242         estimate D2E/DX2                !
 ! R2    R(1,7)                  1.5            Frozen                          !
 ! R3    R(1,8)                  1.3            Frozen                          !
 ! R4    R(2,9)                  1.3446         estimate D2E/DX2                !
 ! R5    R(3,4)                  1.1004         estimate D2E/DX2                !
 ! R6    R(3,5)                  1.1083         estimate D2E/DX2                !
 ! R7    R(3,6)                  1.0987         estimate D2E/DX2                !
 ! R8    R(8,9)                  1.2505         estimate D2E/DX2                !
 ! A1    A(3,1,7)              116.2087         estimate D2E/DX2                !
 ! A2    A(3,1,8)              118.7742         estimate D2E/DX2                !
 ! A3    A(7,1,8)              125.0147         estimate D2E/DX2                !
 ! A4    A(1,3,4)              110.856          estimate D2E/DX2                !
 ! A5    A(1,3,5)              111.7909         estimate D2E/DX2                !
 ! A6    A(1,3,6)              110.8629         estimate D2E/DX2                !
 ! A7    A(4,3,5)              108.1291         estimate D2E/DX2                !
 ! A8    A(4,3,6)              106.774          estimate D2E/DX2                !
 ! A9    A(5,3,6)              108.2395         estimate D2E/DX2                !
 ! A10   A(1,8,9)              156.5025         estimate D2E/DX2                !
 ! A11   A(2,9,8)              125.1674         estimate D2E/DX2                !
 ! D1    D(7,1,3,4)             60.9756         estimate D2E/DX2                !
 ! D2    D(7,1,3,5)           -178.2997         estimate D2E/DX2                !
 ! D3    D(7,1,3,6)            -57.4296         estimate D2E/DX2                !
 ! D4    D(8,1,3,4)           -119.5612         estimate D2E/DX2                !
 ! D5    D(8,1,3,5)              1.1635         estimate D2E/DX2                !
 ! D6    D(8,1,3,6)            122.0337         estimate D2E/DX2                !
 ! D7    D(3,1,8,9)             25.3173         estimate D2E/DX2                !
 ! D8    D(7,1,8,9)           -155.2707         estimate D2E/DX2                !
 ! D9    D(1,8,9,2)           -115.8274         estimate D2E/DX2                !
 --------------------------------------------------------------------------------
 Trust Radius=3.00D-01 FncErr=1.00D-07 GrdErr=1.00D-06 EigMax=2.50D+02 EigMin=1.00D-04
 Number of steps in this run=     38 maximum allowed number of steps=    100.
 GradGradGradGradGradGradGradGradGradGradGradGradGradGradGradGradGradGrad

 Leave Link  103 at Tue Jan  7 10:53:01 2020, MaxMem=  4294967296 cpu:               1.1 elap:               0.2
 (Enter /home/cwagen/sw/g16/g16/l202.exe)
                          Input orientation:                          
 ---------------------------------------------------------------------
 Center     Atomic      Atomic             Coordinates (Angstroms)
 Number     Number       Type             X           Y           Z
 ---------------------------------------------------------------------
      1          6           0       -0.551582   -0.152663   -0.029758
      2          8           0        2.917702    0.191587    0.381494
      3          6           0       -0.826789   -1.650701    0.028592
      4          1           0       -1.476820   -1.962294   -0.802865
      5          1           0        0.108375   -2.243167   -0.024069
      6          1           0       -1.350435   -1.916470    0.957253
      7         17           0       -1.748585    0.745329    0.074118
      8          6           0        0.677217    0.253516   -0.152516
      9          7           0        1.882686    0.179155   -0.476754
 ---------------------------------------------------------------------
                    Distance matrix (angstroms):
                    1          2          3          4          5
     1  C    0.000000
     2  O    3.510494   0.000000
     3  C    1.524224   4.188052   0.000000
     4  H    2.174517   5.035250   1.100433   0.000000
     5  H    2.192209   3.739630   1.108296   1.788367   0.000000
     6  H    2.173332   4.795039   1.098749   1.765245   1.788253
     7  Cl   1.499999   4.709070   2.567633   2.859052   3.519808
     8  C    1.299999   2.304078   2.433285   3.157950   2.563885
     9  N    2.497112   1.344620   3.308323   3.997304   3.036568
                    6          7          8          9
     6  H    0.000000
     7  Cl   2.832600   0.000000
     8  C    3.170457   2.485510   0.000000
     9  N    4.111093   3.716200   1.250526   0.000000
 Stoichiometry    C3H3ClNO(1-)
 Framework group  C1[X(C3H3ClNO)]
 Deg. of freedom    21
 Full point group                 C1      NOp   1
 Largest Abelian subgroup         C1      NOp   1
 Largest concise Abelian subgroup C1      NOp   1
                         Standard orientation:                         
 ---------------------------------------------------------------------
 Center     Atomic      Atomic             Coordinates (Angstroms)
 Number     Number       Type             X           Y           Z
 ---------------------------------------------------------------------
      1          6           0        0.548561    0.155229   -0.033448
      2          8           0       -2.918708   -0.202254    0.383469
      3          6           0        0.819388    1.653671    0.034245
      4          1           0        1.466550    1.972756   -0.796610
      5          1           0       -0.117676    2.243641   -0.012321
      6          1           0        1.344381    1.914841    0.963450
      7         17           0        1.748502   -0.739806    0.061696
      8          6           0       -0.679290   -0.253844   -0.156086
      9          7           0       -1.885725   -0.180978   -0.477052
 ---------------------------------------------------------------------
 Rotational constants (GHZ):           6.8504133           1.5700100           1.3280643
 Leave Link  202 at Tue Jan  7 10:53:01 2020, MaxMem=  4294967296 cpu:               3.7 elap:               0.3
 (Enter /home/cwagen/sw/g16/g16/l301.exe)
 Standard basis: 6-31+G(d) (6D, 7F)
 Ernie: Thresh=  0.10000D-02 Tol=  0.10000D-05 Strict=F.
 There are   124 symmetry adapted cartesian basis functions of A   symmetry.
 There are   124 symmetry adapted basis functions of A   symmetry.
   124 basis functions,   228 primitive gaussians,   124 cartesian basis functions
    27 alpha electrons       27 beta electrons
       nuclear repulsion energy       257.6144147614 Hartrees.
 IExCor=  402 DFT=T Ex+Corr=B3LYP ExCW=0 ScaHFX=  0.200000
 ScaDFX=  0.800000  0.720000  1.000000  0.810000 ScalE2=  1.000000  1.000000
 IRadAn=      5 IRanWt=     -1 IRanGd=            0 ICorTp=0 IEmpDi=  4
 NAtoms=    9 NActive=    9 NUniq=    9 SFac= 1.00D+00 NAtFMM=   60 NAOKFM=F Big=F
 Integral buffers will be    131072 words long.
 Raffenetti 2 integral format.
 Two-electron integral symmetry is turned on.
 ------------------------------------------------------------------------------
 Polarizable Continuum Model (PCM)
 =================================
 Model                : PCM.
 Atomic radii         : SMD-Coulomb.
 Polarization charges : Total charges.
 Charge compensation  : None.
 Solution method      : On-the-fly selection.
 Cavity type          : VdW (van der Waals Surface) (Alpha=1.000).
 Cavity algorithm     : GePol (No added spheres)
                        Default sphere list used, NSphG=    9.
                        Lebedev-Laikov grids with approx.  5.0 points / Ang**2.
                        Smoothing algorithm: York/Karplus (Gamma=1.0000).
                        Polarization charges: spherical gaussians, with
                                              point-specific exponents (IZeta= 3).
                        Self-potential: point-specific (ISelfS= 7).
                        Self-field    : sphere-specific E.n sum rule (ISelfD= 2).
 1st derivatives      : Analytical E(r).r(x)/FMM algorithm (CHGder, D1EAlg=3).
                        Cavity 1st derivative terms included.
 Solvent              : TetraHydroFuran, Eps=   7.425700 Eps(inf)=   1.974025
 ------------------------------------------------------------------------------
 Spheres list:
 ISph  on   Nord     Re0    Alpha      Xe            Ye            Ze
    1   C      1    1.8500  1.000      0.548561      0.155229     -0.033448
    2   O      2    2.2940  1.000     -2.918708     -0.202254      0.383469
    3   C      3    1.8500  1.000      0.819388      1.653671      0.034245
    4   H      4    1.2000  1.000      1.466550      1.972756     -0.796610
    5   H      5    1.2000  1.000     -0.117676      2.243641     -0.012321
    6   H      6    1.2000  1.000      1.344381      1.914841      0.963450
    7  Cl      7    2.3800  1.000      1.748502     -0.739806      0.061696
    8   C      8    1.8500  1.000     -0.679290     -0.253844     -0.156086
    9   N      9    1.8900  1.000     -1.885725     -0.180978     -0.477052
 ------------------------------------------------------------------------------
 GePol: Number of generator spheres                  =       9
 GePol: Total number of spheres                      =       9
 GePol: Number of exposed spheres                    =       9 (100.00%)
 GePol: Number of points                             =    1183
 GePol: Average weight of points                     =       0.13
 GePol: Minimum weight of points                     =   0.25D-07
 GePol: Maximum weight of points                     =    0.18138
 GePol: Number of points with low weight             =      31
 GePol: Fraction of low-weight points (<1% of avg)   =       2.62%
 GePol: Cavity surface area                          =    156.378 Ang**2
 GePol: Cavity volume                                =    139.409 Ang**3
 ------------------------------------------------------------------------------
 Atomic radii for non-electrostatic terms: SMD-CDS.
 ------------------------------------------------------------------------------
 PCM non-electrostatic energy =        -0.0011941791 Hartrees.
 Nuclear repulsion after PCM non-electrostatic terms =      257.6132205823 Hartrees.
 Leave Link  301 at Tue Jan  7 10:53:01 2020, MaxMem=  4294967296 cpu:               4.3 elap:               0.3
 (Enter /home/cwagen/sw/g16/g16/l302.exe)
 NPDir=0 NMtPBC=     1 NCelOv=     1 NCel=       1 NClECP=     1 NCelD=      1
         NCelK=      1 NCelE2=     1 NClLst=     1 CellRange=     0.0.
 One-electron integrals computed using PRISM.
 One-electron integral symmetry used in STVInt
 NBasis=   124 RedAO= T EigKep=  1.15D-05  NBF=   124
 NBsUse=   124 1.00D-06 EigRej= -1.00D+00 NBFU=   124
 Precomputing XC quadrature grid using
 IXCGrd= 4 IRadAn=           5 IRanWt=          -1 IRanGd=           0 AccXCQ= 0.00D+00.
 Generated NRdTot=       0 NPtTot=           0 NUsed=           0 NTot=          32
 NSgBfM=   124   124   124   124   124 MxSgAt=     9 MxSgA2=     9.
 Leave Link  302 at Tue Jan  7 10:53:03 2020, MaxMem=  4294967296 cpu:              21.2 elap:               1.6
 (Enter /home/cwagen/sw/g16/g16/l303.exe)
 DipDrv:  MaxL=1.
 Leave Link  303 at Tue Jan  7 10:53:04 2020, MaxMem=  4294967296 cpu:               5.3 elap:               0.5
 (Enter /home/cwagen/sw/g16/g16/l401.exe)
 ExpMin= 4.38D-02 ExpMax= 2.52D+04 ExpMxC= 3.78D+03 IAcc=3 IRadAn=         5 AccDes= 0.00D+00
 Harris functional with IExCor=  402 and IRadAn=       5 diagonalized for initial guess.
 HarFok:  IExCor=  402 AccDes= 0.00D+00 IRadAn=         5 IDoV= 1 UseB2=F ITyADJ=14
 ICtDFT=  3500011 ScaDFX=  1.000000  1.000000  1.000000  1.000000
 FoFCou: FMM=F IPFlag=           0 FMFlag=      100000 FMFlg1=           0
         NFxFlg=           0 DoJE=T BraDBF=F KetDBF=T FulRan=T
         wScrn=  0.000000 ICntrl=       500 IOpCl=  0 I1Cent=   200000004 NGrid=           0
         NMat0=    1 NMatS0=      1 NMatT0=    0 NMatD0=    1 NMtDS0=    0 NMtDT0=    0
 Petite list used in FoFCou.
 Harris En= -706.286390567158    
 JPrj=0 DoOrth=F DoCkMO=F.
 Leave Link  401 at Tue Jan  7 10:53:06 2020, MaxMem=  4294967296 cpu:              35.5 elap:               2.4
 (Enter /home/cwagen/sw/g16/g16/l502.exe)
 Keep R1 ints in memory in canonical form, NReq=45236517.
 FoFCou: FMM=F IPFlag=           0 FMFlag=           0 FMFlg1=           0
         NFxFlg=           0 DoJE=F BraDBF=F KetDBF=F FulRan=T
         wScrn=  0.000000 ICntrl=       600 IOpCl=  0 I1Cent=           0 NGrid=           0
         NMat0=    1 NMatS0=   7750 NMatT0=    0 NMatD0=    1 NMtDS0=    0 NMtDT0=    0
 Symmetry not used in FoFCou.
 Two-electron integral symmetry not used.
 Closed shell SCF:
 Using DIIS extrapolation, IDIIS=  1040.
 NGot=  4294967296 LenX=  4264898079 LenY=  4264882262
 Requested convergence on RMS density matrix=1.00D-08 within 128 cycles.
 Requested convergence on MAX density matrix=1.00D-06.
 Requested convergence on             energy=1.00D-06.
 No special actions if energy rises.

 Cycle   1  Pass 1  IDiag  1:
 Inv3:  Mode=1 IEnd=     4198467.
 Iteration    1 A*A^-1 deviation from unit magnitude is 3.33D-15 for   1180.
 Iteration    1 A*A^-1 deviation from orthogonality  is 1.79D-15 for   1180   1016.
 Iteration    1 A^-1*A deviation from unit magnitude is 3.33D-15 for    631.
 Iteration    1 A^-1*A deviation from orthogonality  is 2.91D-13 for    691    513.
 E= -706.048825388766    
 DIIS: error= 2.70D-02 at cycle   1 NSaved=   1.
 NSaved= 1 IEnMin= 1 EnMin= -706.048825388766     IErMin= 1 ErrMin= 2.70D-02
 ErrMax= 2.70D-02  0.00D+00 EMaxC= 1.00D-01 BMatC= 2.09D-01 BMatP= 2.09D-01
 IDIUse=3 WtCom= 7.30D-01 WtEn= 2.70D-01
 Coeff-Com:  0.100D+01
 Coeff-En:   0.100D+01
 Coeff:      0.100D+01
 Gap=     0.241 Goal=   None    Shift=    0.000
 GapD=    0.241 DampG=1.000 DampE=0.500 DampFc=0.5000 IDamp=-1.
 Damping current iteration by 5.00D-01
 RMSDP=7.82D-01 MaxDP=4.56D+01              OVMax= 6.26D-01

 Cycle   2  Pass 1  IDiag  1:
 E= -705.987316659375     Delta-E=        0.061508729391 Rises=F Damp=T
 DIIS: error= 1.60D-02 at cycle   2 NSaved=   2.
 NSaved= 2 IEnMin= 1 EnMin= -706.048825388766     IErMin= 2 ErrMin= 1.60D-02
 ErrMax= 1.60D-02  0.00D+00 EMaxC= 1.00D-01 BMatC= 9.09D-02 BMatP= 2.09D-01
 IDIUse=3 WtCom= 8.40D-01 WtEn= 1.60D-01
 Coeff-Com:  0.362D+00 0.638D+00
 Coeff-En:   0.597D+00 0.403D+00
 Coeff:      0.400D+00 0.600D+00
 Gap=     0.086 Goal=   None    Shift=    0.000
 RMSDP=3.79D-01 MaxDP=2.22D+01 DE= 6.15D-02 OVMax= 4.52D-01

 Cycle   3  Pass 1  IDiag  1:
 E= -706.166354855486     Delta-E=       -0.179038196111 Rises=F Damp=F
 DIIS: error= 2.11D-02 at cycle   3 NSaved=   3.
 NSaved= 3 IEnMin= 3 EnMin= -706.166354855486     IErMin= 2 ErrMin= 1.60D-02
 ErrMax= 2.11D-02  0.00D+00 EMaxC= 1.00D-01 BMatC= 1.01D-01 BMatP= 9.09D-02
 IDIUse=2 WtCom= 0.00D+00 WtEn= 1.00D+00
 EnCoef did     1 forward-backward iterations
 Coeff-En:   0.989D-01 0.127D+00 0.774D+00
 Coeff:      0.989D-01 0.127D+00 0.774D+00
 Gap=     0.169 Goal=   None    Shift=    0.000
 RMSDP=8.19D-02 MaxDP=4.92D+00 DE=-1.79D-01 OVMax= 4.37D-01

 Cycle   4  Pass 1  IDiag  1:
 E= -705.862309908304     Delta-E=        0.304044947182 Rises=F Damp=F
 DIIS: error= 3.94D-02 at cycle   4 NSaved=   4.
 NSaved= 4 IEnMin= 3 EnMin= -706.166354855486     IErMin= 2 ErrMin= 1.60D-02
 ErrMax= 3.94D-02  0.00D+00 EMaxC= 1.00D-01 BMatC= 4.34D-01 BMatP= 9.09D-02
 IDIUse=2 WtCom= 0.00D+00 WtEn= 1.00D+00
 Coeff-En:   0.000D+00 0.000D+00 0.737D+00 0.263D+00
 Coeff:      0.000D+00 0.000D+00 0.737D+00 0.263D+00
 Gap=     0.145 Goal=   None    Shift=    0.000
 RMSDP=6.18D-02 MaxDP=3.72D+00 DE= 3.04D-01 OVMax= 2.53D-01

 Cycle   5  Pass 1  IDiag  1:
 E= -706.241588182548     Delta-E=       -0.379278274243 Rises=F Damp=F
 DIIS: error= 8.18D-03 at cycle   5 NSaved=   5.
 NSaved= 5 IEnMin= 5 EnMin= -706.241588182548     IErMin= 5 ErrMin= 8.18D-03
 ErrMax= 8.18D-03  0.00D+00 EMaxC= 1.00D-01 BMatC= 2.22D-02 BMatP= 9.09D-02
 IDIUse=3 WtCom= 9.18D-01 WtEn= 8.18D-02
 Coeff-Com: -0.268D-01 0.760D-01 0.296D+00-0.381D-01 0.693D+00
 Coeff-En:   0.000D+00 0.000D+00 0.234D+00 0.000D+00 0.766D+00
 Coeff:     -0.246D-01 0.698D-01 0.291D+00-0.349D-01 0.699D+00
 Gap=     0.160 Goal=   None    Shift=    0.000
 RMSDP=8.36D-03 MaxDP=4.92D-01 DE=-3.79D-01 OVMax= 6.91D-02

 Cycle   6  Pass 1  IDiag  1:
 E= -706.261671836723     Delta-E=       -0.020083654175 Rises=F Damp=F
 DIIS: error= 1.99D-03 at cycle   6 NSaved=   6.
 NSaved= 6 IEnMin= 6 EnMin= -706.261671836723     IErMin= 6 ErrMin= 1.99D-03
 ErrMax= 1.99D-03  0.00D+00 EMaxC= 1.00D-01 BMatC= 1.09D-03 BMatP= 2.22D-02
 IDIUse=3 WtCom= 9.80D-01 WtEn= 1.99D-02
 Coeff-Com: -0.282D-01 0.344D-01 0.133D+00-0.438D-01 0.457D+00 0.447D+00
 Coeff-En:   0.000D+00 0.000D+00 0.000D+00 0.000D+00 0.000D+00 0.100D+01
 Coeff:     -0.276D-01 0.337D-01 0.130D+00-0.430D-01 0.448D+00 0.458D+00
 Gap=     0.156 Goal=   None    Shift=    0.000
 RMSDP=2.18D-03 MaxDP=1.25D-01 DE=-2.01D-02 OVMax= 1.25D-02

 Cycle   7  Pass 1  IDiag  1:
 E= -706.262708328613     Delta-E=       -0.001036491890 Rises=F Damp=F
 DIIS: error= 5.28D-04 at cycle   7 NSaved=   7.
 NSaved= 7 IEnMin= 7 EnMin= -706.262708328613     IErMin= 7 ErrMin= 5.28D-04
 ErrMax= 5.28D-04  0.00D+00 EMaxC= 1.00D-01 BMatC= 8.30D-05 BMatP= 1.09D-03
 IDIUse=3 WtCom= 9.95D-01 WtEn= 5.28D-03
 Coeff-Com: -0.148D-01 0.189D-01 0.506D-01-0.252D-01 0.205D+00 0.279D+00
 Coeff-Com:  0.487D+00
 Coeff-En:   0.000D+00 0.000D+00 0.000D+00 0.000D+00 0.000D+00 0.000D+00
 Coeff-En:   0.100D+01
 Coeff:     -0.147D-01 0.188D-01 0.503D-01-0.251D-01 0.203D+00 0.277D+00
 Coeff:      0.490D+00
 Gap=     0.156 Goal=   None    Shift=    0.000
 RMSDP=3.37D-04 MaxDP=2.10D-02 DE=-1.04D-03 OVMax= 2.52D-03

 Cycle   8  Pass 1  IDiag  1:
 E= -706.262780274379     Delta-E=       -0.000071945766 Rises=F Damp=F
 DIIS: error= 8.42D-05 at cycle   8 NSaved=   8.
 NSaved= 8 IEnMin= 8 EnMin= -706.262780274379     IErMin= 8 ErrMin= 8.42D-05
 ErrMax= 8.42D-05  0.00D+00 EMaxC= 1.00D-01 BMatC= 2.81D-06 BMatP= 8.30D-05
 IDIUse=1 WtCom= 1.00D+00 WtEn= 0.00D+00
 Coeff-Com: -0.132D-02-0.386D-03-0.329D-02 0.835D-03-0.714D-02 0.229D-01
 Coeff-Com:  0.146D+00 0.842D+00
 Coeff:     -0.132D-02-0.386D-03-0.329D-02 0.835D-03-0.714D-02 0.229D-01
 Coeff:      0.146D+00 0.842D+00
 Gap=     0.156 Goal=   None    Shift=    0.000
 RMSDP=1.86D-04 MaxDP=9.83D-03 DE=-7.19D-05 OVMax= 8.38D-04

 Cycle   9  Pass 1  IDiag  1:
 E= -706.262783451183     Delta-E=       -0.000003176805 Rises=F Damp=F
 DIIS: error= 2.30D-05 at cycle   9 NSaved=   9.
 NSaved= 9 IEnMin= 9 EnMin= -706.262783451183     IErMin= 9 ErrMin= 2.30D-05
 ErrMax= 2.30D-05  0.00D+00 EMaxC= 1.00D-01 BMatC= 2.08D-07 BMatP= 2.81D-06
 IDIUse=1 WtCom= 1.00D+00 WtEn= 0.00D+00
 Coeff-Com: -0.137D-03-0.404D-03-0.242D-02 0.691D-03-0.688D-02 0.403D-02
 Coeff-Com:  0.413D-01 0.338D+00 0.626D+00
 Coeff:     -0.137D-03-0.404D-03-0.242D-02 0.691D-03-0.688D-02 0.403D-02
 Coeff:      0.413D-01 0.338D+00 0.626D+00
 Gap=     0.156 Goal=   None    Shift=    0.000
 RMSDP=3.51D-05 MaxDP=2.02D-03 DE=-3.18D-06 OVMax= 2.12D-04

 Cycle  10  Pass 1  IDiag  1:
 E= -706.262783648441     Delta-E=       -0.000000197258 Rises=F Damp=F
 DIIS: error= 9.51D-06 at cycle  10 NSaved=  10.
 NSaved=10 IEnMin=10 EnMin= -706.262783648441     IErMin=10 ErrMin= 9.51D-06
 ErrMax= 9.51D-06  0.00D+00 EMaxC= 1.00D-01 BMatC= 2.81D-08 BMatP= 2.08D-07
 IDIUse=1 WtCom= 1.00D+00 WtEn= 0.00D+00
 Coeff-Com:  0.760D-04-0.188D-03-0.601D-03 0.177D-03-0.179D-02 0.638D-03
 Coeff-Com:  0.128D-02 0.625D-01 0.270D+00 0.668D+00
 Coeff:      0.760D-04-0.188D-03-0.601D-03 0.177D-03-0.179D-02 0.638D-03
 Coeff:      0.128D-02 0.625D-01 0.270D+00 0.668D+00
 Gap=     0.156 Goal=   None    Shift=    0.000
 RMSDP=1.43D-05 MaxDP=7.59D-04 DE=-1.97D-07 OVMax= 7.25D-05

 Cycle  11  Pass 1  IDiag  1:
 E= -706.262783675398     Delta-E=       -0.000000026957 Rises=F Damp=F
 DIIS: error= 3.75D-06 at cycle  11 NSaved=  11.
 NSaved=11 IEnMin=11 EnMin= -706.262783675398     IErMin=11 ErrMin= 3.75D-06
 ErrMax= 3.75D-06  0.00D+00 EMaxC= 1.00D-01 BMatC= 5.80D-09 BMatP= 2.81D-08
 IDIUse=1 WtCom= 1.00D+00 WtEn= 0.00D+00
 Coeff-Com:  0.526D-04-0.274D-04-0.298D-04-0.263D-04-0.293D-04 0.208D-03
 Coeff-Com: -0.415D-02-0.346D-02 0.751D-01 0.364D+00 0.569D+00
 Coeff:      0.526D-04-0.274D-04-0.298D-04-0.263D-04-0.293D-04 0.208D-03
 Coeff:     -0.415D-02-0.346D-02 0.751D-01 0.364D+00 0.569D+00
 Gap=     0.156 Goal=   None    Shift=    0.000
 RMSDP=5.48D-06 MaxDP=2.69D-04 DE=-2.70D-08 OVMax= 3.60D-05

 Cycle  12  Pass 1  IDiag  1:
 E= -706.262783681345     Delta-E=       -0.000000005947 Rises=F Damp=F
 DIIS: error= 8.82D-07 at cycle  12 NSaved=  12.
 NSaved=12 IEnMin=12 EnMin= -706.262783681345     IErMin=12 ErrMin= 8.82D-07
 ErrMax= 8.82D-07  0.00D+00 EMaxC= 1.00D-01 BMatC= 2.06D-10 BMatP= 5.80D-09
 IDIUse=1 WtCom= 1.00D+00 WtEn= 0.00D+00
 Coeff-Com:  0.253D-06 0.604D-05 0.603D-04-0.229D-04 0.194D-03-0.434D-04
 Coeff-Com: -0.162D-02-0.763D-02-0.664D-02 0.151D-01 0.162D+00 0.838D+00
 Coeff:      0.253D-06 0.604D-05 0.603D-04-0.229D-04 0.194D-03-0.434D-04
 Coeff:     -0.162D-02-0.763D-02-0.664D-02 0.151D-01 0.162D+00 0.838D+00
 Gap=     0.156 Goal=   None    Shift=    0.000
 RMSDP=1.36D-06 MaxDP=5.30D-05 DE=-5.95D-09 OVMax= 1.57D-05

 Cycle  13  Pass 1  IDiag  1:
 E= -706.262783681622     Delta-E=       -0.000000000277 Rises=F Damp=F
 DIIS: error= 1.92D-07 at cycle  13 NSaved=  13.
 NSaved=13 IEnMin=13 EnMin= -706.262783681622     IErMin=13 ErrMin= 1.92D-07
 ErrMax= 1.92D-07  0.00D+00 EMaxC= 1.00D-01 BMatC= 7.93D-12 BMatP= 2.06D-10
 IDIUse=1 WtCom= 1.00D+00 WtEn= 0.00D+00
 Coeff-Com: -0.390D-05 0.331D-05 0.821D-05-0.719D-06 0.184D-04-0.558D-04
 Coeff-Com: -0.141D-03-0.859D-03-0.402D-02-0.188D-01 0.423D-02 0.156D+00
 Coeff-Com:  0.864D+00
 Coeff:     -0.390D-05 0.331D-05 0.821D-05-0.719D-06 0.184D-04-0.558D-04
 Coeff:     -0.141D-03-0.859D-03-0.402D-02-0.188D-01 0.423D-02 0.156D+00
 Coeff:      0.864D+00
 Gap=     0.156 Goal=   None    Shift=    0.000
 RMSDP=2.83D-07 MaxDP=1.25D-05 DE=-2.77D-10 OVMax= 4.18D-06

 Cycle  14  Pass 1  IDiag  1:
 E= -706.262783681640     Delta-E=       -0.000000000018 Rises=F Damp=F
 DIIS: error= 3.13D-08 at cycle  14 NSaved=  14.
 NSaved=14 IEnMin=14 EnMin= -706.262783681640     IErMin=14 ErrMin= 3.13D-08
 ErrMax= 3.13D-08  0.00D+00 EMaxC= 1.00D-01 BMatC= 4.83D-13 BMatP= 7.93D-12
 IDIUse=1 WtCom= 1.00D+00 WtEn= 0.00D+00
 Coeff-Com: -0.368D-06 0.318D-06-0.264D-05 0.140D-05-0.898D-05-0.143D-04
 Coeff-Com:  0.142D-04 0.168D-03-0.193D-04-0.286D-02-0.647D-02-0.231D-01
 Coeff-Com:  0.116D+00 0.916D+00
 Coeff:     -0.368D-06 0.318D-06-0.264D-05 0.140D-05-0.898D-05-0.143D-04
 Coeff:      0.142D-04 0.168D-03-0.193D-04-0.286D-02-0.647D-02-0.231D-01
 Coeff:      0.116D+00 0.916D+00
 Gap=     0.156 Goal=   None    Shift=    0.000
 RMSDP=1.15D-07 MaxDP=6.14D-06 DE=-1.77D-11 OVMax= 1.11D-06

 Cycle  15  Pass 1  IDiag  1:
 E= -706.262783681641     Delta-E=       -0.000000000001 Rises=F Damp=F
 DIIS: error= 8.46D-09 at cycle  15 NSaved=  15.
 NSaved=15 IEnMin=15 EnMin= -706.262783681641     IErMin=15 ErrMin= 8.46D-09
 ErrMax= 8.46D-09  0.00D+00 EMaxC= 1.00D-01 BMatC= 2.25D-14 BMatP= 4.83D-13
 IDIUse=1 WtCom= 1.00D+00 WtEn= 0.00D+00
 Coeff-Com:  0.168D-06-0.118D-06-0.579D-06 0.171D-06-0.978D-06 0.293D-05
 Coeff-Com:  0.936D-05 0.561D-04 0.238D-03 0.101D-02-0.109D-02-0.138D-01
 Coeff-Com: -0.418D-01 0.116D+00 0.939D+00
 Coeff:      0.168D-06-0.118D-06-0.579D-06 0.171D-06-0.978D-06 0.293D-05
 Coeff:      0.936D-05 0.561D-04 0.238D-03 0.101D-02-0.109D-02-0.138D-01
 Coeff:     -0.418D-01 0.116D+00 0.939D+00
 Gap=     0.156 Goal=   None    Shift=    0.000
 RMSDP=2.45D-08 MaxDP=1.28D-06 DE=-1.14D-12 OVMax= 2.73D-07

 Cycle  16  Pass 1  IDiag  1:
 E= -706.262783681639     Delta-E=        0.000000000002 Rises=F Damp=F
 DIIS: error= 1.67D-09 at cycle  16 NSaved=  16.
 NSaved=16 IEnMin=15 EnMin= -706.262783681641     IErMin=16 ErrMin= 1.67D-09
 ErrMax= 1.67D-09  0.00D+00 EMaxC= 1.00D-01 BMatC= 1.03D-15 BMatP= 2.25D-14
 IDIUse=1 WtCom= 1.00D+00 WtEn= 0.00D+00
 Large coefficients: NSaved= 16 BigCof=    0.00 CofMax=   10.00 Det=-7.12D-15
 Inversion failed.  Reducing to 15 matrices.
 Coeff-Com:  0.508D-07-0.521D-07-0.786D-08 0.130D-07 0.103D-05 0.280D-05
 Coeff-Com:  0.680D-05 0.379D-04 0.252D-03 0.865D-05-0.147D-02-0.906D-02
 Coeff-Com: -0.798D-02 0.143D+00 0.875D+00
 Coeff:      0.508D-07-0.521D-07-0.786D-08 0.130D-07 0.103D-05 0.280D-05
 Coeff:      0.680D-05 0.379D-04 0.252D-03 0.865D-05-0.147D-02-0.906D-02
 Coeff:     -0.798D-02 0.143D+00 0.875D+00
 Gap=     0.156 Goal=   None    Shift=    0.000
 RMSDP=3.86D-09 MaxDP=1.22D-07 DE= 1.82D-12 OVMax= 3.62D-08

 Error on total polarization charges =  0.02359
 SCF Done:  E(RB3LYP) =  -706.262783682     A.U. after   16 cycles
            NFock= 16  Conv=0.39D-08     -V/T= 2.0044
 KE= 7.031875222089D+02 PE=-2.193556448011D+03 EE= 5.264929215383D+02
 SMD-CDS (non-electrostatic) energy       (kcal/mol) =      -0.75
 (included in total energy above)
 Leave Link  502 at Tue Jan  7 10:53:34 2020, MaxMem=  4294967296 cpu:             397.4 elap:              28.1
 (Enter /home/cwagen/sw/g16/g16/l601.exe)
 Copying SCF densities to generalized density rwf, IOpCl= 0 IROHF=0.

 **********************************************************************

            Population analysis using the SCF density.

 **********************************************************************

 Orbital symmetries:
       Occupied  (A) (A) (A) (A) (A) (A) (A) (A) (A) (A) (A) (A)
                 (A) (A) (A) (A) (A) (A) (A) (A) (A) (A) (A) (A)
                 (A) (A) (A)
       Virtual   (A) (A) (A) (A) (A) (A) (A) (A) (A) (A) (A) (A)
                 (A) (A) (A) (A) (A) (A) (A) (A) (A) (A) (A) (A)
                 (A) (A) (A) (A) (A) (A) (A) (A) (A) (A) (A) (A)
                 (A) (A) (A) (A) (A) (A) (A) (A) (A) (A) (A) (A)
                 (A) (A) (A) (A) (A) (A) (A) (A) (A) (A) (A) (A)
                 (A) (A) (A) (A) (A) (A) (A) (A) (A) (A) (A) (A)
                 (A) (A) (A) (A) (A) (A) (A) (A) (A) (A) (A) (A)
                 (A) (A) (A) (A) (A) (A) (A) (A) (A) (A) (A) (A)
                 (A)
 The electronic state is 1-A.
 Alpha  occ. eigenvalues -- -101.52917 -19.06360 -14.34774 -10.19566 -10.16455
 Alpha  occ. eigenvalues --  -10.16086  -9.45097  -7.21402  -7.20501  -7.20461
 Alpha  occ. eigenvalues --   -0.97130  -0.92173  -0.77010  -0.70399  -0.62554
 Alpha  occ. eigenvalues --   -0.49099  -0.42671  -0.41797  -0.41028  -0.36970
 Alpha  occ. eigenvalues --   -0.35415  -0.33519  -0.33246  -0.28312  -0.19456
 Alpha  occ. eigenvalues --   -0.16893  -0.14055
 Alpha virt. eigenvalues --    0.01569   0.03426   0.04000   0.05594   0.06729
 Alpha virt. eigenvalues --    0.08004   0.08357   0.08559   0.09885   0.10366
 Alpha virt. eigenvalues --    0.11279   0.12835   0.14260   0.14980   0.15994
 Alpha virt. eigenvalues --    0.16974   0.19757   0.20665   0.21421   0.21815
 Alpha virt. eigenvalues --    0.22346   0.23037   0.24547   0.25704   0.26531
 Alpha virt. eigenvalues --    0.28765   0.29466   0.31160   0.32480   0.34321
 Alpha virt. eigenvalues --    0.37577   0.43136   0.45191   0.52998   0.61806
 Alpha virt. eigenvalues --    0.62448   0.67416   0.69066   0.70202   0.72799
 Alpha virt. eigenvalues --    0.74027   0.75596   0.78042   0.78949   0.83821
 Alpha virt. eigenvalues --    0.88720   0.89350   0.90097   0.92198   0.97124
 Alpha virt. eigenvalues --    0.99227   1.01274   1.03864   1.04914   1.04978
 Alpha virt. eigenvalues --    1.09192   1.13461   1.21391   1.23660   1.28206
 Alpha virt. eigenvalues --    1.29970   1.34471   1.37221   1.46257   1.48073
 Alpha virt. eigenvalues --    1.51859   1.57523   1.68195   1.70183   1.74487
 Alpha virt. eigenvalues --    1.78149   1.86096   1.88723   1.92633   1.94799
 Alpha virt. eigenvalues --    2.00643   2.03569   2.10454   2.21787   2.29937
 Alpha virt. eigenvalues --    2.36380   2.37740   2.42274   2.46366   2.54959
 Alpha virt. eigenvalues --    2.62195   2.80099   2.86362   3.04954   3.18835
 Alpha virt. eigenvalues --    3.28491   4.22413   4.27858   4.33766   4.38081
 Alpha virt. eigenvalues --    4.48351   4.64768
          Condensed to atoms (all electrons):
               1          2          3          4          5          6
     1  C   11.498062   0.165588   0.085012  -0.058819  -0.079300  -0.044300
     2  O    0.165588   8.584909   0.040882  -0.000168   0.000380   0.000156
     3  C    0.085012   0.040882   6.504362   0.380714   0.492970   0.453782
     4  H   -0.058819  -0.000168   0.380714   0.518936  -0.024648  -0.037878
     5  H   -0.079300   0.000380   0.492970  -0.024648   0.485914  -0.025097
     6  H   -0.044300   0.000156   0.453782  -0.037878  -0.025097   0.515122
     7  Cl  -0.092357  -0.013128  -0.082101   0.011349  -0.002772   0.022830
     8  C   -5.640020  -0.286314  -0.863934   0.000057  -0.073431  -0.097616
     9  N   -0.321349  -0.018993  -0.053593   0.000434   0.004397   0.001227
               7          8          9
     1  C   -0.092357  -5.640020  -0.321349
     2  O   -0.013128  -0.286314  -0.018993
     3  C   -0.082101  -0.863934  -0.053593
     4  H    0.011349   0.000057   0.000434
     5  H   -0.002772  -0.073431   0.004397
     6  H    0.022830  -0.097616   0.001227
     7  Cl  17.396995  -0.306871  -0.009702
     8  C   -0.306871  12.992693   0.573730
     9  N   -0.009702   0.573730   7.300773
 Mulliken charges:
               1
     1  C    0.487483
     2  O   -0.473313
     3  C   -0.958094
     4  H    0.210024
     5  H    0.221588
     6  H    0.211774
     7  Cl   0.075757
     8  C   -0.298294
     9  N   -0.476924
 Sum of Mulliken charges =  -1.00000
 Mulliken charges with hydrogens summed into heavy atoms:
               1
     1  C    0.487483
     2  O   -0.473313
     3  C   -0.314708
     7  Cl   0.075757
     8  C   -0.298294
     9  N   -0.476924
 Electronic spatial extent (au):  <R**2>=            847.0985
 Charge=             -1.0000 electrons
 Dipole moment (field-independent basis, Debye):
    X=              9.8507    Y=              2.1592    Z=             -0.1829  Tot=             10.0862
 Quadrupole moment (field-independent basis, Debye-Ang):
   XX=            -78.5362   YY=            -44.9473   ZZ=            -47.8572
   XY=             -1.4064   XZ=              1.5531   YZ=             -0.0620
 Traceless Quadrupole moment (field-independent basis, Debye-Ang):
   XX=            -21.4227   YY=             12.1663   ZZ=              9.2564
   XY=             -1.4064   XZ=              1.5531   YZ=             -0.0620
 Octapole moment (field-independent basis, Debye-Ang**2):
  XXX=             97.2975  YYY=             -0.9884  ZZZ=              2.3229  XYY=              3.5914
  XXY=              6.6893  XXZ=             -6.0896  XZZ=              9.2878  YZZ=              0.4287
  YYZ=              0.4843  XYZ=             -0.3561
 Hexadecapole moment (field-independent basis, Debye-Ang**3):
 XXXX=          -1117.6300 YYYY=           -254.8324 ZZZZ=            -86.1197 XXXY=            -28.1632
 XXXZ=             20.3000 YYYX=            -10.7753 YYYZ=             -1.2510 ZZZX=             -2.9811
 ZZZY=             -0.6040 XXYY=           -182.6755 XXZZ=           -166.9382 YYZZ=            -56.2351
 XXYZ=              0.6138 YYXZ=              0.3091 ZZXY=             -1.4233
 N-N= 2.576132205823D+02 E-N=-2.193556448256D+03  KE= 7.031875222089D+02
 No NMR shielding tensors so no spin-rotation constants.
 Leave Link  601 at Tue Jan  7 10:53:36 2020, MaxMem=  4294967296 cpu:              24.5 elap:               2.0
 (Enter /home/cwagen/sw/g16/g16/l701.exe)
 ... and contract with generalized density number  0.
 Compute integral first derivatives.
 D1PCM: PCM CHGder 1st derivatives, ID1Alg=3 FixD1E=F DoIter=F DoCFld=F I1PDM=0.
 GePol: Maximum number of non-zero 1st derivatives   =     377
 Leave Link  701 at Tue Jan  7 10:53:42 2020, MaxMem=  4294967296 cpu:              81.6 elap:               5.6
 (Enter /home/cwagen/sw/g16/g16/l702.exe)
 L702 exits ... SP integral derivatives will be done elsewhere.
 Leave Link  702 at Tue Jan  7 10:53:42 2020, MaxMem=  4294967296 cpu:               1.4 elap:               0.1
 (Enter /home/cwagen/sw/g16/g16/l703.exe)
 Integral derivatives from FoFJK, PRISM(SPDF).
 Compute integral first derivatives, UseDBF=F ICtDFT=           0.
 Calling FoFJK, ICntrl=      2127 FMM=F ISym2X=0 I1Cent= 0 IOpClX= 0 NMat=1 NMatS=1 NMatT=0.
 FoFJK:  IHMeth= 1 ICntrl=    2127 DoSepK=F KAlg= 0 I1Cent=           0 FoldK=F
 IRaf=         0 NMat=       1 IRICut=       1 DoRegI=T DoRafI=F ISym2E= 0 IDoP0=0 IntGTp=1.
 FoFCou: FMM=F IPFlag=           0 FMFlag=      100000 FMFlg1=         800
         NFxFlg=           0 DoJE=F BraDBF=F KetDBF=F FulRan=T
         wScrn=  0.000000 ICntrl=      2127 IOpCl=  0 I1Cent=           0 NGrid=           0
         NMat0=    1 NMatS0=      1 NMatT0=    0 NMatD0=    1 NMtDS0=    0 NMtDT0=    0
 Symmetry not used in FoFCou.
 Leave Link  703 at Tue Jan  7 10:53:45 2020, MaxMem=  4294967296 cpu:              37.0 elap:               2.7
 (Enter /home/cwagen/sw/g16/g16/l716.exe)
 Dipole        = 3.87555479D+00 8.49506005D-01-7.19702650D-02
 ***** Axes restored to original set *****
 -------------------------------------------------------------------
 Center     Atomic                   Forces (Hartrees/Bohr)
 Number     Number              X              Y              Z
 -------------------------------------------------------------------
      1        6           0.139393671   -0.143249860   -0.010173977
      2        8          -0.006624668    0.000416080   -0.003775678
      3        6           0.005500157   -0.009928349   -0.000584993
      4        1          -0.000436988    0.000200640   -0.000863897
      5        1          -0.007298062    0.005488466    0.000568667
      6        1          -0.000036113   -0.000736947    0.001205916
      7       17          -0.183272198    0.136486149    0.015433330
      8        6           0.037563951    0.009311249   -0.002348378
      9        7           0.015210248    0.002012571    0.000539009
 -------------------------------------------------------------------
 Cartesian Forces:  Max     0.183272198 RMS     0.059168030
 Leave Link  716 at Tue Jan  7 10:53:45 2020, MaxMem=  4294967296 cpu:               1.9 elap:               0.2
 (Enter /home/cwagen/sw/g16/g16/l103.exe)

 GradGradGradGradGradGradGradGradGradGradGradGradGradGradGradGradGradGrad
 Berny optimization.
 FormGI is forming the generalized inverse of G from B-inverse, IUseBI=4.
 Internal  Forces:  Max     0.229029318 RMS     0.044348711
 Search for a local minimum.
 Step number   1 out of a maximum of   38
 All quantities printed in internal units (Hartrees-Bohrs-Radians)
 RMS Force = .35642D-02 SwitMx=.10000D-02 MixMth= 1
 Mixed Optimization -- RFO/linear search
 Second derivative matrix not updated -- first step.
 ITU=  0
     Eigenvalues ---    0.00446   0.01293   0.03412   0.03669   0.06918
     Eigenvalues ---    0.07114   0.16000   0.16000   0.16000   0.24999
     Eigenvalues ---    0.25000   0.25000   0.25000   0.29963   0.32781
     Eigenvalues ---    0.33634   0.33821   0.56182   0.830431000.00000
     Eigenvalues --- 1000.000001000.000001000.000001000.000001000.00000
     Eigenvalues --- 1000.000001000.000001000.00000
 RFO step:  Lambda=-9.45362729D-04 EMin= 4.45507032D-03
 Linear search not attempted -- first point.
 Iteration  1 RMS(Cart)=  0.02904444 RMS(Int)=  0.00046927
 Iteration  2 RMS(Cart)=  0.00050150 RMS(Int)=  0.00007258
 Iteration  3 RMS(Cart)=  0.00000009 RMS(Int)=  0.00007258
 Iteration  1 RMS(Cart)=  0.00000000 RMS(Int)=  0.00000000
 ITry= 1 IFail=0 DXMaxC= 8.99D-02 DCOld= 1.00D+10 DXMaxT= 3.00D-01 DXLimC= 3.00D+00 Rises=F
 Variable       Old X    -DE/DX   Delta X   Delta X   Delta X     New X
                                 (Linear)    (Quad)   (Total)
    R1        2.88037   0.00532   0.00000   0.01771   0.01771   2.89808
    R2        2.83459   0.22903   0.00000   0.00000   0.00000   2.83459
    R3        2.45664   0.04781   0.00000   0.00000   0.00000   2.45664
    R4        2.54096  -0.00750   0.00000  -0.01332  -0.01332   2.52764
    R5        2.07952   0.00085   0.00000   0.00253   0.00253   2.08205
    R6        2.09438  -0.00911   0.00000  -0.02772  -0.02772   2.06666
    R7        2.07633   0.00121   0.00000   0.00358   0.00358   2.07991
    R8        2.36315   0.00895   0.00000   0.01077   0.01077   2.37392
    A1        2.02822  -0.00136   0.00000  -0.00534  -0.00555   2.02267
    A2        2.07300   0.00053   0.00000   0.00220   0.00199   2.07499
    A3        2.18192   0.00084   0.00000   0.00347   0.00326   2.18518
    A4        1.93480  -0.00047   0.00000  -0.00213  -0.00214   1.93266
    A5        1.95112  -0.00122   0.00000  -0.00926  -0.00927   1.94185
    A6        1.93492   0.00089   0.00000   0.00634   0.00634   1.94126
    A7        1.88721   0.00064   0.00000   0.00242   0.00240   1.88961
    A8        1.86356   0.00033   0.00000   0.00530   0.00529   1.86885
    A9        1.88914  -0.00009   0.00000  -0.00210  -0.00209   1.88704
   A10        2.73148   0.00777   0.00000   0.03098   0.03098   2.76246
   A11        2.18458  -0.00351   0.00000  -0.01399  -0.01399   2.17060
    D1        1.06422  -0.00001   0.00000  -0.03161  -0.03159   1.03263
    D2       -3.11192  -0.00035   0.00000  -0.03631  -0.03627   3.13500
    D3       -1.00234  -0.00069   0.00000  -0.04092  -0.04090  -1.04323
    D4       -2.08674   0.00049   0.00000   0.00457   0.00454  -2.08220
    D5        0.02031   0.00015   0.00000  -0.00012  -0.00014   0.02017
    D6        2.12989  -0.00018   0.00000  -0.00473  -0.00477   2.12512
    D7        0.44187  -0.00031   0.00000  -0.02081  -0.02088   0.42099
    D8       -2.70998   0.00023   0.00000   0.01878   0.01885  -2.69114
    D9       -2.02157  -0.00082   0.00000  -0.02177  -0.02177  -2.04334
         Item               Value     Threshold  Converged?
 Maximum Force            0.009114     0.000450     NO 
 RMS     Force            0.003564     0.000300     NO 
 Maximum Displacement     0.089927     0.001800     NO 
 RMS     Displacement     0.028915     0.001200     NO 
 Predicted change in Energy=-4.764082D-04
 Lowest energy point so far.  Saving SCF results.
 GradGradGradGradGradGradGradGradGradGradGradGradGradGradGradGradGradGrad

 Leave Link  103 at Tue Jan  7 10:53:48 2020, MaxMem=  4294967296 cpu:              45.0 elap:               3.3
 (Enter /home/cwagen/sw/g16/g16/l202.exe)
                          Input orientation:                          
 ---------------------------------------------------------------------
 Center     Atomic      Atomic             Coordinates (Angstroms)
 Number     Number       Type             X           Y           Z
 ---------------------------------------------------------------------
      1          6           0       -0.540750   -0.157468   -0.019449
      2          8           0        2.919056    0.239174    0.390525
      3          6           0       -0.838384   -1.661073    0.030617
      4          1           0       -1.502312   -1.955069   -0.798038
      5          1           0        0.080475   -2.249796   -0.040952
      6          1           0       -1.348626   -1.935345    0.966479
      7         17           0       -1.732867    0.749277    0.062207
      8          6           0        0.691017    0.234679   -0.157185
      9          7           0        1.904162    0.179911   -0.478711
 ---------------------------------------------------------------------
                    Distance matrix (angstroms):
                    1          2          3          4          5
     1  C    0.000000
     2  O    3.506517   0.000000
     3  C    1.533598   4.225971   0.000000
     4  H    2.182240   5.076995   1.101772   0.000000
     5  H    2.182709   3.799827   1.093627   1.779117   0.000000
     6  H    2.187594   4.824249   1.100641   1.771307   1.776549
     7  Cl   1.499999   4.691310   2.571163   2.847220   3.506178
     8  C    1.299999   2.294378   2.442992   3.164866   2.561032
     9  N    2.510446   1.337570   3.342185   4.032886   3.069355
                    6          7          8          9
     6  H    0.000000
     7  Cl   2.858766   0.000000
     8  C    3.183044   2.487600   0.000000
     9  N    4.140473   3.720853   1.256224   0.000000
 Stoichiometry    C3H3ClNO(1-)
 Framework group  C1[X(C3H3ClNO)]
 Deg. of freedom    21
 Full point group                 C1      NOp   1
 RotChk:  IX=0 Diff= 1.81D-02
 Largest Abelian subgroup         C1      NOp   1
 Largest concise Abelian subgroup C1      NOp   1
                         Standard orientation:                         
 ---------------------------------------------------------------------
 Center     Atomic      Atomic             Coordinates (Angstroms)
 Number     Number       Type             X           Y           Z
 ---------------------------------------------------------------------
      1          6           0        0.548380    0.157438   -0.019857
      2          8           0       -2.915183   -0.208821    0.386646
      3          6           0        0.860232    1.657831    0.039243
      4          1           0        1.527227    1.950439   -0.787437
      5          1           0       -0.052981    2.255652   -0.029117
      6          1           0        1.372698    1.921688    0.976883
      7         17           0        1.731820   -0.761034    0.056786
      8          6           0       -0.686995   -0.222190   -0.160316
      9          7           0       -1.899446   -0.154016   -0.481898
 ---------------------------------------------------------------------
 Rotational constants (GHZ):           6.7494646           1.5715346           1.3260579
 Leave Link  202 at Tue Jan  7 10:53:48 2020, MaxMem=  4294967296 cpu:               3.7 elap:               0.3
 (Enter /home/cwagen/sw/g16/g16/l301.exe)
 Standard basis: 6-31+G(d) (6D, 7F)
 Ernie: Thresh=  0.10000D-02 Tol=  0.10000D-05 Strict=F.
 There are   124 symmetry adapted cartesian basis functions of A   symmetry.
 There are   124 symmetry adapted basis functions of A   symmetry.
   124 basis functions,   228 primitive gaussians,   124 cartesian basis functions
    27 alpha electrons       27 beta electrons
       nuclear repulsion energy       257.3724501269 Hartrees.
 IExCor=  402 DFT=T Ex+Corr=B3LYP ExCW=0 ScaHFX=  0.200000
 ScaDFX=  0.800000  0.720000  1.000000  0.810000 ScalE2=  1.000000  1.000000
 IRadAn=      5 IRanWt=     -1 IRanGd=            0 ICorTp=0 IEmpDi=  4
 NAtoms=    9 NActive=    9 NUniq=    9 SFac= 1.00D+00 NAtFMM=   60 NAOKFM=F Big=F
 Integral buffers will be    131072 words long.
 Raffenetti 2 integral format.
 Two-electron integral symmetry is turned on.
 ------------------------------------------------------------------------------
 Polarizable Continuum Model (PCM)
 =================================
 Model                : PCM.
 Atomic radii         : SMD-Coulomb.
 Polarization charges : Total charges.
 Charge compensation  : None.
 Solution method      : On-the-fly selection.
 Cavity type          : VdW (van der Waals Surface) (Alpha=1.000).
 Cavity algorithm     : GePol (No added spheres)
                        Default sphere list used, NSphG=    9.
                        Lebedev-Laikov grids with approx.  5.0 points / Ang**2.
                        Smoothing algorithm: York/Karplus (Gamma=1.0000).
                        Polarization charges: spherical gaussians, with
                                              point-specific exponents (IZeta= 3).
                        Self-potential: point-specific (ISelfS= 7).
                        Self-field    : sphere-specific E.n sum rule (ISelfD= 2).
 1st derivatives      : Analytical E(r).r(x)/FMM algorithm (CHGder, D1EAlg=3).
                        Cavity 1st derivative terms included.
 Solvent              : TetraHydroFuran, Eps=   7.425700 Eps(inf)=   1.974025
 ------------------------------------------------------------------------------
 Spheres list:
 ISph  on   Nord     Re0    Alpha      Xe            Ye            Ze
    1   C      1    1.8500  1.000      0.548380      0.157438     -0.019857
    2   O      2    2.2940  1.000     -2.915183     -0.208821      0.386646
    3   C      3    1.8500  1.000      0.860232      1.657831      0.039243
    4   H      4    1.2000  1.000      1.527227      1.950439     -0.787437
    5   H      5    1.2000  1.000     -0.052981      2.255652     -0.029117
    6   H      6    1.2000  1.000      1.372698      1.921688      0.976883
    7  Cl      7    2.3800  1.000      1.731820     -0.761034      0.056786
    8   C      8    1.8500  1.000     -0.686995     -0.222190     -0.160316
    9   N      9    1.8900  1.000     -1.899446     -0.154016     -0.481898
 ------------------------------------------------------------------------------
 GePol: Number of generator spheres                  =       9
 GePol: Total number of spheres                      =       9
 GePol: Number of exposed spheres                    =       9 (100.00%)
 GePol: Number of points                             =    1184
 GePol: Average weight of points                     =       0.13
 GePol: Minimum weight of points                     =   0.27D-08
 GePol: Maximum weight of points                     =    0.18138
 GePol: Number of points with low weight             =      35
 GePol: Fraction of low-weight points (<1% of avg)   =       2.96%
 GePol: Cavity surface area                          =    156.473 Ang**2
 GePol: Cavity volume                                =    139.489 Ang**3
 ------------------------------------------------------------------------------
 Atomic radii for non-electrostatic terms: SMD-CDS.
 ------------------------------------------------------------------------------
 PCM non-electrostatic energy =        -0.0011435486 Hartrees.
 Nuclear repulsion after PCM non-electrostatic terms =      257.3713065784 Hartrees.
 Leave Link  301 at Tue Jan  7 10:53:49 2020, MaxMem=  4294967296 cpu:               4.3 elap:               0.3
 (Enter /home/cwagen/sw/g16/g16/l302.exe)
 NPDir=0 NMtPBC=     1 NCelOv=     1 NCel=       1 NClECP=     1 NCelD=      1
         NCelK=      1 NCelE2=     1 NClLst=     1 CellRange=     0.0.
 One-electron integrals computed using PRISM.
 One-electron integral symmetry used in STVInt
 NBasis=   124 RedAO= T EigKep=  1.12D-05  NBF=   124
 NBsUse=   124 1.00D-06 EigRej= -1.00D+00 NBFU=   124
 Precomputing XC quadrature grid using
 IXCGrd= 4 IRadAn=           5 IRanWt=          -1 IRanGd=           0 AccXCQ= 0.00D+00.
 Generated NRdTot=       0 NPtTot=           0 NUsed=           0 NTot=          32
 NSgBfM=   124   124   124   124   124 MxSgAt=     9 MxSgA2=     9.
 Leave Link  302 at Tue Jan  7 10:53:50 2020, MaxMem=  4294967296 cpu:              21.4 elap:               1.6
 (Enter /home/cwagen/sw/g16/g16/l303.exe)
 DipDrv:  MaxL=1.
 Leave Link  303 at Tue Jan  7 10:53:51 2020, MaxMem=  4294967296 cpu:               5.3 elap:               0.5
 (Enter /home/cwagen/sw/g16/g16/l401.exe)
 Initial guess from the checkpoint file:  "/scratch/users/cwagen/cwagen_scan_150_130/Gau-57303.chk"
 B after Tr=     0.000000    0.000000    0.000000
         Rot=    0.999983   -0.003110   -0.000213    0.004861 Ang=  -0.66 deg.
 Guess basis will be translated and rotated to current coordinates.
 JPrj=2 DoOrth=T DoCkMO=T.
 Generating alternative initial guess.
 ExpMin= 4.38D-02 ExpMax= 2.52D+04 ExpMxC= 3.78D+03 IAcc=2 IRadAn=         4 AccDes= 0.00D+00
 Harris functional with IExCor=  402 and IRadAn=       4 diagonalized for initial guess.
 HarFok:  IExCor=  402 AccDes= 0.00D+00 IRadAn=         4 IDoV= 1 UseB2=F ITyADJ=14
 ICtDFT=  3500011 ScaDFX=  1.000000  1.000000  1.000000  1.000000
 FoFCou: FMM=F IPFlag=           0 FMFlag=      100000 FMFlg1=           0
         NFxFlg=           0 DoJE=T BraDBF=F KetDBF=T FulRan=T
         wScrn=  0.000000 ICntrl=       500 IOpCl=  0 I1Cent=   200000004 NGrid=           0
         NMat0=    1 NMatS0=      1 NMatT0=    0 NMatD0=    1 NMtDS0=    0 NMtDT0=    0
 Petite list used in FoFCou.
 Harris En= -706.288306703039    
 Leave Link  401 at Tue Jan  7 10:53:55 2020, MaxMem=  4294967296 cpu:              62.0 elap:               4.2
 (Enter /home/cwagen/sw/g16/g16/l502.exe)
 Keep R1 ints in memory in canonical form, NReq=45236517.
 FoFCou: FMM=F IPFlag=           0 FMFlag=           0 FMFlg1=           0
         NFxFlg=           0 DoJE=F BraDBF=F KetDBF=F FulRan=T
         wScrn=  0.000000 ICntrl=       600 IOpCl=  0 I1Cent=           0 NGrid=           0
         NMat0=    1 NMatS0=   7750 NMatT0=    0 NMatD0=    1 NMtDS0=    0 NMtDT0=    0
 Symmetry not used in FoFCou.
 Two-electron integral symmetry not used.
 Closed shell SCF:
 Using DIIS extrapolation, IDIIS=  1040.
 NGot=  4294967296 LenX=  4264898079 LenY=  4264882262
 Requested convergence on RMS density matrix=1.00D-08 within 128 cycles.
 Requested convergence on MAX density matrix=1.00D-06.
 Requested convergence on             energy=1.00D-06.
 No special actions if energy rises.

 Cycle   1  Pass 1  IDiag  1:
 Inv3:  Mode=1 IEnd=     4205568.
 Iteration    1 A*A^-1 deviation from unit magnitude is 4.11D-15 for   1180.
 Iteration    1 A*A^-1 deviation from orthogonality  is 1.46D-15 for    389     60.
 Iteration    1 A^-1*A deviation from unit magnitude is 3.89D-15 for   1180.
 Iteration    1 A^-1*A deviation from orthogonality  is 1.62D-15 for   1172   1170.
 E= -706.261852702503    
 DIIS: error= 1.30D-03 at cycle   1 NSaved=   1.
 NSaved= 1 IEnMin= 1 EnMin= -706.261852702503     IErMin= 1 ErrMin= 1.30D-03
 ErrMax= 1.30D-03  0.00D+00 EMaxC= 1.00D-01 BMatC= 8.04D-04 BMatP= 8.04D-04
 IDIUse=3 WtCom= 9.87D-01 WtEn= 1.30D-02
 Coeff-Com:  0.100D+01
 Coeff-En:   0.100D+01
 Coeff:      0.100D+01
 Gap=     0.405 Goal=   None    Shift=    0.000
 GapD=    0.405 DampG=2.000 DampE=1.000 DampFc=2.0000 IDamp=-1.
 RMSDP=7.30D-03 MaxDP=4.44D-01              OVMax= 1.69D-02

 Cycle   2  Pass 1  IDiag  1:
 E= -706.263285378278     Delta-E=       -0.001432675775 Rises=F Damp=F
 DIIS: error= 4.07D-04 at cycle   2 NSaved=   2.
 NSaved= 2 IEnMin= 2 EnMin= -706.263285378278     IErMin= 2 ErrMin= 4.07D-04
 ErrMax= 4.07D-04  0.00D+00 EMaxC= 1.00D-01 BMatC= 4.89D-05 BMatP= 8.04D-04
 IDIUse=3 WtCom= 9.96D-01 WtEn= 4.07D-03
 Coeff-Com:  0.201D-01 0.980D+00
 Coeff-En:   0.000D+00 0.100D+01
 Coeff:      0.200D-01 0.980D+00
 Gap=     0.156 Goal=   None    Shift=    0.000
 RMSDP=6.38D-04 MaxDP=3.03D-02 DE=-1.43D-03 OVMax= 1.02D-02

 Cycle   3  Pass 1  IDiag  1:
 E= -706.263136166920     Delta-E=        0.000149211357 Rises=F Damp=F
 DIIS: error= 1.04D-03 at cycle   3 NSaved=   3.
 NSaved= 3 IEnMin= 2 EnMin= -706.263285378278     IErMin= 2 ErrMin= 4.07D-04
 ErrMax= 1.04D-03  0.00D+00 EMaxC= 1.00D-01 BMatC= 2.29D-04 BMatP= 4.89D-05
 IDIUse=3 WtCom= 2.37D-01 WtEn= 7.63D-01
 Coeff-Com: -0.428D-01 0.722D+00 0.321D+00
 Coeff-En:   0.000D+00 0.758D+00 0.242D+00
 Coeff:     -0.101D-01 0.750D+00 0.260D+00
 Gap=     0.158 Goal=   None    Shift=    0.000
 RMSDP=7.45D-04 MaxDP=4.03D-02 DE= 1.49D-04 OVMax= 6.43D-03

 Cycle   4  Pass 1  IDiag  1:
 E= -706.263336725943     Delta-E=       -0.000200559023 Rises=F Damp=F
 DIIS: error= 1.18D-04 at cycle   4 NSaved=   4.
 NSaved= 4 IEnMin= 4 EnMin= -706.263336725943     IErMin= 4 ErrMin= 1.18D-04
 ErrMax= 1.18D-04  0.00D+00 EMaxC= 1.00D-01 BMatC= 3.83D-06 BMatP= 4.89D-05
 IDIUse=3 WtCom= 9.99D-01 WtEn= 1.18D-03
 Coeff-Com: -0.212D-01 0.280D+00 0.518D-01 0.690D+00
 Coeff-En:   0.000D+00 0.000D+00 0.000D+00 0.100D+01
 Coeff:     -0.212D-01 0.280D+00 0.517D-01 0.690D+00
 Gap=     0.157 Goal=   None    Shift=    0.000
 RMSDP=1.10D-04 MaxDP=6.13D-03 DE=-2.01D-04 OVMax= 9.30D-04

 Cycle   5  Pass 1  IDiag  1:
 E= -706.263340048020     Delta-E=       -0.000003322077 Rises=F Damp=F
 DIIS: error= 4.65D-05 at cycle   5 NSaved=   5.
 NSaved= 5 IEnMin= 5 EnMin= -706.263340048020     IErMin= 5 ErrMin= 4.65D-05
 ErrMax= 4.65D-05  0.00D+00 EMaxC= 1.00D-01 BMatC= 6.21D-07 BMatP= 3.83D-06
 IDIUse=1 WtCom= 1.00D+00 WtEn= 0.00D+00
 Coeff-Com: -0.608D-02 0.580D-01-0.147D-01 0.407D+00 0.556D+00
 Coeff:     -0.608D-02 0.580D-01-0.147D-01 0.407D+00 0.556D+00
 Gap=     0.157 Goal=   None    Shift=    0.000
 RMSDP=4.42D-05 MaxDP=2.35D-03 DE=-3.32D-06 OVMax= 3.91D-04

 Cycle   6  Pass 1  IDiag  1:
 E= -706.263340663844     Delta-E=       -0.000000615824 Rises=F Damp=F
 DIIS: error= 1.38D-05 at cycle   6 NSaved=   6.
 NSaved= 6 IEnMin= 6 EnMin= -706.263340663844     IErMin= 6 ErrMin= 1.38D-05
 ErrMax= 1.38D-05  0.00D+00 EMaxC= 1.00D-01 BMatC= 6.90D-08 BMatP= 6.21D-07
 IDIUse=1 WtCom= 1.00D+00 WtEn= 0.00D+00
 Coeff-Com: -0.139D-02 0.467D-02-0.141D-01 0.169D+00 0.329D+00 0.513D+00
 Coeff:     -0.139D-02 0.467D-02-0.141D-01 0.169D+00 0.329D+00 0.513D+00
 Gap=     0.157 Goal=   None    Shift=    0.000
 RMSDP=1.27D-05 MaxDP=8.20D-04 DE=-6.16D-07 OVMax= 7.57D-05

 Cycle   7  Pass 1  IDiag  1:
 E= -706.263340723736     Delta-E=       -0.000000059891 Rises=F Damp=F
 DIIS: error= 5.09D-06 at cycle   7 NSaved=   7.
 NSaved= 7 IEnMin= 7 EnMin= -706.263340723736     IErMin= 7 ErrMin= 5.09D-06
 ErrMax= 5.09D-06  0.00D+00 EMaxC= 1.00D-01 BMatC= 8.44D-09 BMatP= 6.90D-08
 IDIUse=1 WtCom= 1.00D+00 WtEn= 0.00D+00
 Coeff-Com:  0.238D-03-0.835D-02-0.734D-02 0.351D-01 0.113D+00 0.299D+00
 Coeff-Com:  0.568D+00
 Coeff:      0.238D-03-0.835D-02-0.734D-02 0.351D-01 0.113D+00 0.299D+00
 Coeff:      0.568D+00
 Gap=     0.157 Goal=   None    Shift=    0.000
 RMSDP=2.73D-06 MaxDP=1.14D-04 DE=-5.99D-08 OVMax= 3.11D-05

 Cycle   8  Pass 1  IDiag  1:
 E= -706.263340730678     Delta-E=       -0.000000006943 Rises=F Damp=F
 DIIS: error= 1.83D-06 at cycle   8 NSaved=   8.
 NSaved= 8 IEnMin= 8 EnMin= -706.263340730678     IErMin= 8 ErrMin= 1.83D-06
 ErrMax= 1.83D-06  0.00D+00 EMaxC= 1.00D-01 BMatC= 1.03D-09 BMatP= 8.44D-09
 IDIUse=1 WtCom= 1.00D+00 WtEn= 0.00D+00
 Coeff-Com:  0.250D-03-0.522D-02-0.331D-02 0.615D-02 0.375D-01 0.123D+00
 Coeff-Com:  0.327D+00 0.514D+00
 Coeff:      0.250D-03-0.522D-02-0.331D-02 0.615D-02 0.375D-01 0.123D+00
 Coeff:      0.327D+00 0.514D+00
 Gap=     0.157 Goal=   None    Shift=    0.000
 RMSDP=8.85D-07 MaxDP=2.48D-05 DE=-6.94D-09 OVMax= 1.02D-05

 Cycle   9  Pass 1  IDiag  1:
 E= -706.263340731578     Delta-E=       -0.000000000900 Rises=F Damp=F
 DIIS: error= 2.94D-07 at cycle   9 NSaved=   9.
 NSaved= 9 IEnMin= 9 EnMin= -706.263340731578     IErMin= 9 ErrMin= 2.94D-07
 ErrMax= 2.94D-07  0.00D+00 EMaxC= 1.00D-01 BMatC= 5.46D-11 BMatP= 1.03D-09
 IDIUse=1 WtCom= 1.00D+00 WtEn= 0.00D+00
 Coeff-Com:  0.519D-04-0.640D-03-0.331D-03-0.233D-02-0.210D-02-0.188D-02
 Coeff-Com:  0.299D-01 0.188D+00 0.790D+00
 Coeff:      0.519D-04-0.640D-03-0.331D-03-0.233D-02-0.210D-02-0.188D-02
 Coeff:      0.299D-01 0.188D+00 0.790D+00
 Gap=     0.157 Goal=   None    Shift=    0.000
 RMSDP=4.03D-07 MaxDP=1.04D-05 DE=-9.00D-10 OVMax= 4.58D-06

 Cycle  10  Pass 1  IDiag  1:
 E= -706.263340731643     Delta-E=       -0.000000000066 Rises=F Damp=F
 DIIS: error= 9.13D-08 at cycle  10 NSaved=  10.
 NSaved=10 IEnMin=10 EnMin= -706.263340731643     IErMin=10 ErrMin= 9.13D-08
 ErrMax= 9.13D-08  0.00D+00 EMaxC= 1.00D-01 BMatC= 2.44D-12 BMatP= 5.46D-11
 IDIUse=1 WtCom= 1.00D+00 WtEn= 0.00D+00
 Coeff-Com: -0.108D-04 0.351D-03 0.208D-03-0.111D-02-0.358D-02-0.131D-01
 Coeff-Com: -0.226D-01 0.123D-01 0.221D+00 0.806D+00
 Coeff:     -0.108D-04 0.351D-03 0.208D-03-0.111D-02-0.358D-02-0.131D-01
 Coeff:     -0.226D-01 0.123D-01 0.221D+00 0.806D+00
 Gap=     0.157 Goal=   None    Shift=    0.000
 RMSDP=1.40D-07 MaxDP=6.42D-06 DE=-6.56D-11 OVMax= 1.63D-06

 Cycle  11  Pass 1  IDiag  1:
 E= -706.263340731647     Delta-E=       -0.000000000004 Rises=F Damp=F
 DIIS: error= 1.60D-08 at cycle  11 NSaved=  11.
 NSaved=11 IEnMin=11 EnMin= -706.263340731647     IErMin=11 ErrMin= 1.60D-08
 ErrMax= 1.60D-08  0.00D+00 EMaxC= 1.00D-01 BMatC= 1.10D-13 BMatP= 2.44D-12
 IDIUse=1 WtCom= 1.00D+00 WtEn= 0.00D+00
 Coeff-Com: -0.508D-05 0.121D-03 0.743D-04-0.183D-03-0.734D-03-0.333D-02
 Coeff-Com: -0.703D-02-0.552D-02 0.163D-01 0.190D+00 0.810D+00
 Coeff:     -0.508D-05 0.121D-03 0.743D-04-0.183D-03-0.734D-03-0.333D-02
 Coeff:     -0.703D-02-0.552D-02 0.163D-01 0.190D+00 0.810D+00
 Gap=     0.157 Goal=   None    Shift=    0.000
 RMSDP=5.85D-08 MaxDP=3.18D-06 DE=-3.52D-12 OVMax= 4.16D-07

 Cycle  12  Pass 1  IDiag  1:
 E= -706.263340731651     Delta-E=       -0.000000000004 Rises=F Damp=F
 DIIS: error= 7.53D-09 at cycle  12 NSaved=  12.
 NSaved=12 IEnMin=12 EnMin= -706.263340731651     IErMin=12 ErrMin= 7.53D-09
 ErrMax= 7.53D-09  0.00D+00 EMaxC= 1.00D-01 BMatC= 1.63D-14 BMatP= 1.10D-13
 IDIUse=1 WtCom= 1.00D+00 WtEn= 0.00D+00
 Coeff-Com: -0.693D-06 0.494D-05 0.556D-05 0.511D-04 0.129D-03 0.181D-03
 Coeff-Com: -0.211D-04-0.307D-02-0.169D-01-0.147D-01 0.288D+00 0.746D+00
 Coeff:     -0.693D-06 0.494D-05 0.556D-05 0.511D-04 0.129D-03 0.181D-03
 Coeff:     -0.211D-04-0.307D-02-0.169D-01-0.147D-01 0.288D+00 0.746D+00
 Gap=     0.157 Goal=   None    Shift=    0.000
 RMSDP=8.99D-09 MaxDP=3.61D-07 DE=-4.09D-12 OVMax= 1.20D-07

 Error on total polarization charges =  0.02355
 SCF Done:  E(RB3LYP) =  -706.263340732     A.U. after   12 cycles
            NFock= 12  Conv=0.90D-08     -V/T= 2.0044
 KE= 7.031836677799D+02 PE=-2.193069634718D+03 EE= 5.262513196276D+02
 SMD-CDS (non-electrostatic) energy       (kcal/mol) =      -0.72
 (included in total energy above)
 Leave Link  502 at Tue Jan  7 10:54:17 2020, MaxMem=  4294967296 cpu:             307.1 elap:              22.0
 (Enter /home/cwagen/sw/g16/g16/l701.exe)
 ... and contract with generalized density number  0.
 Compute integral first derivatives.
 D1PCM: PCM CHGder 1st derivatives, ID1Alg=3 FixD1E=F DoIter=F DoCFld=F I1PDM=0.
 GePol: Maximum number of non-zero 1st derivatives   =     383
 Leave Link  701 at Tue Jan  7 10:54:23 2020, MaxMem=  4294967296 cpu:              73.4 elap:               5.4
 (Enter /home/cwagen/sw/g16/g16/l702.exe)
 L702 exits ... SP integral derivatives will be done elsewhere.
 Leave Link  702 at Tue Jan  7 10:54:23 2020, MaxMem=  4294967296 cpu:               1.6 elap:               0.2
 (Enter /home/cwagen/sw/g16/g16/l703.exe)
 Integral derivatives from FoFJK, PRISM(SPDF).
 Compute integral first derivatives, UseDBF=F ICtDFT=           0.
 Calling FoFJK, ICntrl=      2127 FMM=F ISym2X=0 I1Cent= 0 IOpClX= 0 NMat=1 NMatS=1 NMatT=0.
 FoFJK:  IHMeth= 1 ICntrl=    2127 DoSepK=F KAlg= 0 I1Cent=           0 FoldK=F
 IRaf=         0 NMat=       1 IRICut=       1 DoRegI=T DoRafI=F ISym2E= 0 IDoP0=0 IntGTp=1.
 FoFCou: FMM=F IPFlag=           0 FMFlag=      100000 FMFlg1=         800
         NFxFlg=           0 DoJE=F BraDBF=F KetDBF=F FulRan=T
         wScrn=  0.000000 ICntrl=      2127 IOpCl=  0 I1Cent=           0 NGrid=           0
         NMat0=    1 NMatS0=      1 NMatT0=    0 NMatD0=    1 NMtDS0=    0 NMtDT0=    0
 Symmetry not used in FoFCou.
 Leave Link  703 at Tue Jan  7 10:54:25 2020, MaxMem=  4294967296 cpu:              30.6 elap:               2.3
 (Enter /home/cwagen/sw/g16/g16/l716.exe)
 Dipole        = 3.89073113D+00 8.42076396D-01-7.47504256D-02
 ***** Axes restored to original set *****
 -------------------------------------------------------------------
 Center     Atomic                   Forces (Hartrees/Bohr)
 Number     Number              X              Y              Z
 -------------------------------------------------------------------
      1        6           0.138198643   -0.148797794   -0.009268156
      2        8          -0.001546223   -0.000482930   -0.001231009
      3        6          -0.000320242   -0.002280288    0.000984361
      4        1           0.000077636    0.000764773    0.000122883
      5        1           0.000351421    0.000232606    0.000038452
      6        1          -0.000064655    0.000267275   -0.000046046
      7       17          -0.182090992    0.138356861    0.012787236
      8        6           0.041304949    0.008980764   -0.003955390
      9        7           0.004089464    0.002958733    0.000567668
 -------------------------------------------------------------------
 Cartesian Forces:  Max     0.182090992 RMS     0.059512925
 Leave Link  716 at Tue Jan  7 10:54:25 2020, MaxMem=  4294967296 cpu:               1.9 elap:               0.2
 (Enter /home/cwagen/sw/g16/g16/l103.exe)

 GradGradGradGradGradGradGradGradGradGradGradGradGradGradGradGradGradGrad
 Berny optimization.
 Using GEDIIS/GDIIS optimizer.
 FormGI is forming the generalized inverse of G from B-inverse, IUseBI=4.
 Internal  Forces:  Max     0.229048109 RMS     0.044149159
 Search for a local minimum.
 Step number   2 out of a maximum of   38
 All quantities printed in internal units (Hartrees-Bohrs-Radians)
 RMS Force = .12979D-02 SwitMx=.10000D-02 MixMth= 1
 Mixed Optimization -- RFO/linear search
 Update second derivatives using D2CorX and points    1    2
 DE= -5.57D-04 DEPred=-4.76D-04 R= 1.17D+00
 TightC=F SS=  1.41D+00  RLast= 8.98D-02 DXNew= 5.0454D-01 2.6931D-01
 Trust test= 1.17D+00 RLast= 8.98D-02 DXMaxT set to 3.00D-01
 ITU=  1  0
 Use linear search instead of GDIIS.
     Eigenvalues ---    0.00449   0.01495   0.03386   0.03907   0.06987
     Eigenvalues ---    0.07163   0.14225   0.16000   0.16096   0.17559
     Eigenvalues ---    0.24995   0.25000   0.25421   0.29968   0.33576
     Eigenvalues ---    0.33798   0.36892   0.54581   0.805341000.00000
     Eigenvalues --- 1000.000001000.000001000.000001000.000001000.00000
     Eigenvalues --- 1000.000001000.000001000.00000
 RFO step:  Lambda=-3.61315795D-04 EMin= 4.49076833D-03
 Quartic linear search produced a step of  0.19843.
 Iteration  1 RMS(Cart)=  0.02034819 RMS(Int)=  0.00134150
 Iteration  2 RMS(Cart)=  0.00077945 RMS(Int)=  0.00015822
 Iteration  3 RMS(Cart)=  0.00000189 RMS(Int)=  0.00015820
 Iteration  4 RMS(Cart)=  0.00000000 RMS(Int)=  0.00015820
 Iteration  1 RMS(Cart)=  0.00000000 RMS(Int)=  0.00000000
 ITry= 1 IFail=0 DXMaxC= 5.94D-02 DCOld= 1.00D+10 DXMaxT= 3.00D-01 DXLimC= 3.00D+00 Rises=F
 Variable       Old X    -DE/DX   Delta X   Delta X   Delta X     New X
                                 (Linear)    (Quad)   (Total)
    R1        2.89808   0.00102   0.00351   0.00737   0.01088   2.90896
    R2        2.83459   0.22905   0.00000   0.00000   0.00000   2.83459
    R3        2.45664   0.04549   0.00000   0.00000   0.00000   2.45664
    R4        2.52764  -0.00199  -0.00264  -0.00672  -0.00937   2.51828
    R5        2.08205  -0.00034   0.00050  -0.00075  -0.00025   2.08180
    R6        2.06666   0.00017  -0.00550  -0.00451  -0.01001   2.05664
    R7        2.07991  -0.00008   0.00071   0.00039   0.00109   2.08100
    R8        2.37392   0.00251   0.00214   0.00564   0.00778   2.38170
    A1        2.02267  -0.00010  -0.00110  -0.00105  -0.00263   2.02004
    A2        2.07499  -0.00016   0.00039   0.00011   0.00002   2.07501
    A3        2.18518   0.00027   0.00065   0.00248   0.00264   2.18782
    A4        1.93266  -0.00089  -0.00043  -0.00762  -0.00806   1.92460
    A5        1.94185  -0.00027  -0.00184  -0.00317  -0.00503   1.93682
    A6        1.94126  -0.00012   0.00126   0.00028   0.00153   1.94280
    A7        1.88961   0.00062   0.00048   0.00512   0.00557   1.89517
    A8        1.86885   0.00038   0.00105   0.00273   0.00377   1.87262
    A9        1.88704   0.00035  -0.00042   0.00326   0.00285   1.88989
   A10        2.76246   0.00527   0.00615   0.03099   0.03714   2.79960
   A11        2.17060  -0.00013  -0.00278  -0.00320  -0.00597   2.16463
    D1        1.03263   0.00032  -0.00627   0.03507   0.02877   1.06140
    D2        3.13500   0.00032  -0.00720   0.03428   0.02708  -3.12110
    D3       -1.04323   0.00049  -0.00811   0.03645   0.02831  -1.01492
    D4       -2.08220  -0.00039   0.00090  -0.02437  -0.02346  -2.10565
    D5        0.02017  -0.00039  -0.00003  -0.02515  -0.02514  -0.00497
    D6        2.12512  -0.00022  -0.00095  -0.02298  -0.02391   2.10122
    D7        0.42099   0.00112  -0.00414   0.05810   0.05400   0.47499
    D8       -2.69114   0.00035   0.00374  -0.00728  -0.00358  -2.69472
    D9       -2.04334   0.00083  -0.00432   0.02339   0.01907  -2.02427
         Item               Value     Threshold  Converged?
 Maximum Force            0.005274     0.000450     NO 
 RMS     Force            0.001298     0.000300     NO 
 Maximum Displacement     0.059448     0.001800     NO 
 RMS     Displacement     0.020609     0.001200     NO 
 Predicted change in Energy=-1.962360D-04
 Lowest energy point so far.  Saving SCF results.
 GradGradGradGradGradGradGradGradGradGradGradGradGradGradGradGradGradGrad

 Leave Link  103 at Tue Jan  7 10:54:33 2020, MaxMem=  4294967296 cpu:              94.9 elap:               8.0
 (Enter /home/cwagen/sw/g16/g16/l202.exe)
                          Input orientation:                          
 ---------------------------------------------------------------------
 Center     Atomic      Atomic             Coordinates (Angstroms)
 Number     Number       Type             X           Y           Z
 ---------------------------------------------------------------------
      1          6           0       -0.538175   -0.161660   -0.043441
      2          8           0        2.912492    0.237605    0.406854
      3          6           0       -0.843091   -1.668745    0.029648
      4          1           0       -1.516096   -1.962263   -0.791646
      5          1           0        0.070786   -2.255094   -0.044395
      6          1           0       -1.345675   -1.930106    0.973992
      7         17           0       -1.723784    0.749396    0.076173
      8          6           0        0.696769    0.223788   -0.171278
      9          7           0        1.918544    0.211370   -0.480412
 ---------------------------------------------------------------------
                    Distance matrix (angstroms):
                    1          2          3          4          5
     1  C    0.000000
     2  O    3.502753   0.000000
     3  C    1.539357   4.228576   0.000000
     4  H    2.181356   5.088046   1.101641   0.000000
     5  H    2.180207   3.806897   1.088329   1.778294   0.000000
     6  H    2.194226   4.811715   1.101220   1.774135   1.774568
     7  Cl   1.499999   4.676145   2.573944   2.854705   3.501711
     8  C    1.299999   2.289947   2.448105   3.171821   2.559846
     9  N    2.523007   1.332614   3.379589   4.076556   3.112518
                    6          7          8          9
     6  H    0.000000
     7  Cl   2.851101   0.000000
     8  C    3.181584   2.489291   0.000000
     9  N    4.166094   3.723683   1.260339   0.000000
 Stoichiometry    C3H3ClNO(1-)
 Framework group  C1[X(C3H3ClNO)]
 Deg. of freedom    21
 Full point group                 C1      NOp   1
 RotChk:  IX=0 Diff= 8.70D-03
 Largest Abelian subgroup         C1      NOp   1
 Largest concise Abelian subgroup C1      NOp   1
                         Standard orientation:                         
 ---------------------------------------------------------------------
 Center     Atomic      Atomic             Coordinates (Angstroms)
 Number     Number       Type             X           Y           Z
 ---------------------------------------------------------------------
      1          6           0        0.550526    0.160286   -0.046179
      2          8           0       -2.905521   -0.192252    0.401860
      3          6           0        0.877604    1.661995    0.040487
      4          1           0        1.554634    1.953041   -0.778376
      5          1           0       -0.027566    2.262375   -0.027853
      6          1           0        1.384234    1.907333    0.986965
      7         17           0        1.722633   -0.769163    0.064668
      8          6           0       -0.689990   -0.205774   -0.177016
      9          7           0       -1.911534   -0.172572   -0.485532
 ---------------------------------------------------------------------
 Rotational constants (GHZ):           6.6734675           1.5736546           1.3271702
 Leave Link  202 at Tue Jan  7 10:54:34 2020, MaxMem=  4294967296 cpu:               2.3 elap:               0.2
 (Enter /home/cwagen/sw/g16/g16/l301.exe)
 Standard basis: 6-31+G(d) (6D, 7F)
 Ernie: Thresh=  0.10000D-02 Tol=  0.10000D-05 Strict=F.
 There are   124 symmetry adapted cartesian basis functions of A   symmetry.
 There are   124 symmetry adapted basis functions of A   symmetry.
   124 basis functions,   228 primitive gaussians,   124 cartesian basis functions
    27 alpha electrons       27 beta electrons
       nuclear repulsion energy       257.2210652604 Hartrees.
 IExCor=  402 DFT=T Ex+Corr=B3LYP ExCW=0 ScaHFX=  0.200000
 ScaDFX=  0.800000  0.720000  1.000000  0.810000 ScalE2=  1.000000  1.000000
 IRadAn=      5 IRanWt=     -1 IRanGd=            0 ICorTp=0 IEmpDi=  4
 NAtoms=    9 NActive=    9 NUniq=    9 SFac= 1.00D+00 NAtFMM=   60 NAOKFM=F Big=F
 Integral buffers will be    131072 words long.
 Raffenetti 2 integral format.
 Two-electron integral symmetry is turned on.
 ------------------------------------------------------------------------------
 Polarizable Continuum Model (PCM)
 =================================
 Model                : PCM.
 Atomic radii         : SMD-Coulomb.
 Polarization charges : Total charges.
 Charge compensation  : None.
 Solution method      : On-the-fly selection.
 Cavity type          : VdW (van der Waals Surface) (Alpha=1.000).
 Cavity algorithm     : GePol (No added spheres)
                        Default sphere list used, NSphG=    9.
                        Lebedev-Laikov grids with approx.  5.0 points / Ang**2.
                        Smoothing algorithm: York/Karplus (Gamma=1.0000).
                        Polarization charges: spherical gaussians, with
                                              point-specific exponents (IZeta= 3).
                        Self-potential: point-specific (ISelfS= 7).
                        Self-field    : sphere-specific E.n sum rule (ISelfD= 2).
 1st derivatives      : Analytical E(r).r(x)/FMM algorithm (CHGder, D1EAlg=3).
                        Cavity 1st derivative terms included.
 Solvent              : TetraHydroFuran, Eps=   7.425700 Eps(inf)=   1.974025
 ------------------------------------------------------------------------------
 Spheres list:
 ISph  on   Nord     Re0    Alpha      Xe            Ye            Ze
    1   C      1    1.8500  1.000      0.550526      0.160286     -0.046179
    2   O      2    2.2940  1.000     -2.905521     -0.192252      0.401860
    3   C      3    1.8500  1.000      0.877604      1.661995      0.040487
    4   H      4    1.2000  1.000      1.554634      1.953041     -0.778376
    5   H      5    1.2000  1.000     -0.027566      2.262375     -0.027853
    6   H      6    1.2000  1.000      1.384234      1.907333      0.986965
    7  Cl      7    2.3800  1.000      1.722633     -0.769163      0.064668
    8   C      8    1.8500  1.000     -0.689990     -0.205774     -0.177016
    9   N      9    1.8900  1.000     -1.911534     -0.172572     -0.485532
 ------------------------------------------------------------------------------
 GePol: Number of generator spheres                  =       9
 GePol: Total number of spheres                      =       9
 GePol: Number of exposed spheres                    =       9 (100.00%)
 GePol: Number of points                             =    1178
 GePol: Average weight of points                     =       0.13
 GePol: Minimum weight of points                     =   0.22D-06
 GePol: Maximum weight of points                     =    0.18138
 GePol: Number of points with low weight             =      34
 GePol: Fraction of low-weight points (<1% of avg)   =       2.89%
 GePol: Cavity surface area                          =    156.442 Ang**2
 GePol: Cavity volume                                =    139.523 Ang**3
 ------------------------------------------------------------------------------
 Atomic radii for non-electrostatic terms: SMD-CDS.
 ------------------------------------------------------------------------------
 PCM non-electrostatic energy =        -0.0011061041 Hartrees.
 Nuclear repulsion after PCM non-electrostatic terms =      257.2199591562 Hartrees.
 Leave Link  301 at Tue Jan  7 10:54:34 2020, MaxMem=  4294967296 cpu:               2.9 elap:               0.3
 (Enter /home/cwagen/sw/g16/g16/l302.exe)
[...]
 -------------------------------------------------------------------
      1        6           0.126775993   -0.165011503   -0.012285546
      2        8           0.000005445    0.000000323   -0.000006212
      3        6          -0.000002046   -0.000001964   -0.000005725
      4        1          -0.000006976    0.000007850    0.000003706
      5        1           0.000006397   -0.000003300   -0.000021359
      6        1           0.000013811   -0.000013117    0.000000717
      7       17          -0.168221886    0.155774166    0.016640364
      8        6           0.041427121    0.009230198   -0.004288485
      9        7           0.000002140    0.000017348   -0.000037461
 -------------------------------------------------------------------
 Cartesian Forces:  Max     0.168221886 RMS     0.060281062
 Leave Link  716 at Tue Jan  7 11:08:44 2020, MaxMem=  4294967296 cpu:               1.3 elap:               0.1
 (Enter /home/cwagen/sw/g16/g16/l103.exe)

 GradGradGradGradGradGradGradGradGradGradGradGradGradGradGradGradGradGrad
 Berny optimization.
 Using GEDIIS/GDIIS optimizer.
 FormGI is forming the generalized inverse of G from B-inverse, IUseBI=4.
 Internal  Forces:  Max     0.229870704 RMS     0.044183812
 Search for a local minimum.
 Step number  19 out of a maximum of   38
 All quantities printed in internal units (Hartrees-Bohrs-Radians)
 RMS Force = .59635D-05 SwitMx=.10000D-02 MixMth= 2
 Mixed Optimization -- En-DIIS/RFO-DIIS
 Swapping is turned off.
 Update second derivatives using D2CorX and points   15   16   17   18   19
 DE=  7.79D-08 DEPred=-2.24D-08 R=-3.48D+00
 Trust test=-3.48D+00 RLast= 1.35D-02 DXMaxT set to 2.84D-01
 ITU= -1 -1  1  1  1  1  1  1  1  1  1  1  1 -1  1  1  1  1  0
     Eigenvalues ---    0.00015   0.00389   0.03153   0.06974   0.07298
     Eigenvalues ---    0.08022   0.11327   0.15202   0.16120   0.16527
     Eigenvalues ---    0.24078   0.25354   0.27290   0.27829   0.33512
     Eigenvalues ---    0.33805   0.37964   0.42594   0.806061000.00000
     Eigenvalues --- 1000.000001000.000001000.000001000.000001000.00000
     Eigenvalues --- 1000.000001000.000001000.00000
 En-DIIS/RFO-DIIS/Sim-DIIS IScMMF=       -3 using points:    19   18   17   16   15   14
 RFO step:  Lambda=-5.46611695D-05.
 NNeg= 0 NGDIIS= 6 SimSw=  2.50D-03 Rises=F DC=  7.79D-08 SmlDif=  1.00D-05
 NRisDI= 0 DoIntr=F SqrtH=F CThrHd= 10.0 CDAdj=  3.0
 RMS Error=  0.6109028640D-03 NUsed= 6 OKEnD=F EnDIS=F
 InvSVX:  RCond= 1.15D-09 Info=           0 Equed=N FErr=  1.72D-11 BErr=  7.08D-17
 DIIS inversion failure, remove point   6.
 InvSVX:  RCond= 3.50D-09 Info=           0 Equed=N FErr=  5.47D-12 BErr=  8.99D-17
 DIIS inversion failure, remove point   5.
 InvSVX:  RCond= 4.16D-07 Info=           0 Equed=N FErr=  3.92D-14 BErr=  1.09D-16
 RFO-DIIS uses    4 points instead of    6
 DidBck=F Rises=F RFO-DIIS coefs:    1.33284   -0.30169   -0.05000    0.01884    0.00000
                  RFO-DIIS coefs:    0.00000
 Iteration  1 RMS(Cart)=  0.00023279 RMS(Int)=  0.00000036
 Iteration  2 RMS(Cart)=  0.00000027 RMS(Int)=  0.00000000
 Iteration  1 RMS(Cart)=  0.00000000 RMS(Int)=  0.00000000
 ITry= 1 IFail=0 DXMaxC= 6.18D-04 DCOld= 1.00D+10 DXMaxT= 2.84D-01 DXLimC= 3.00D+00 Rises=F
 Variable       Old X    -DE/DX   Delta X   Delta X   Delta X     New X
                                 (Linear)    (Quad)   (Total)
    R1        2.90094   0.00000  -0.00001   0.00000  -0.00001   2.90094
    R2        2.83459   0.22987   0.00000   0.00000   0.00000   2.83459
    R3        2.45664   0.04268   0.00000   0.00000   0.00000   2.45664
    R4        2.53955   0.00001  -0.00003   0.00003   0.00001   2.53956
    R5        2.08086   0.00000   0.00001   0.00000   0.00000   2.08086
    R6        2.06712   0.00001  -0.00002   0.00002   0.00000   2.06712
    R7        2.07946   0.00000   0.00001   0.00000   0.00000   2.07946
    R8        2.36150   0.00002   0.00001   0.00001   0.00002   2.36152
    A1        2.02377   0.00000   0.00000   0.00000  -0.00001   2.02377
    A2        2.08061   0.00000   0.00002   0.00000   0.00002   2.08063
    A3        2.17879   0.00000  -0.00002   0.00001  -0.00001   2.17878
    A4        1.92932   0.00000   0.00001   0.00000   0.00001   1.92932
    A5        1.93952   0.00000   0.00001   0.00001   0.00002   1.93953
    A6        1.93708   0.00000   0.00001  -0.00002  -0.00001   1.93708
    A7        1.89299   0.00000  -0.00001   0.00001   0.00000   1.89299
    A8        1.87117   0.00000  -0.00001   0.00000  -0.00001   1.87116
    A9        1.89169   0.00000  -0.00001   0.00000  -0.00001   1.89168
   A10        2.97900  -0.00001  -0.00006  -0.00001  -0.00006   2.97893
   A11        2.17893  -0.00002   0.00002  -0.00008  -0.00006   2.17888
    D1        1.04300   0.00000   0.00013  -0.00001   0.00012   1.04312
    D2       -3.13734   0.00000   0.00013   0.00000   0.00013  -3.13720
    D3       -1.03091   0.00000   0.00013   0.00000   0.00013  -1.03078
    D4       -2.09320   0.00000   0.00016  -0.00001   0.00016  -2.09305
    D5        0.00964   0.00000   0.00017   0.00001   0.00017   0.00982
    D6        2.11607   0.00000   0.00017   0.00000   0.00017   2.11624
    D7        1.64444   0.00000   0.00254   0.00001   0.00255   1.64699
    D8       -1.49125   0.00000   0.00258   0.00001   0.00259  -1.48866
    D9        3.07103   0.00000  -0.00254   0.00001  -0.00252   3.06851
         Item               Value     Threshold  Converged?
 Maximum Force            0.000020     0.000450     YES
 RMS     Force            0.000006     0.000300     YES
 Maximum Displacement     0.000618     0.001800     YES
 RMS     Displacement     0.000233     0.001200     YES
 Predicted change in Energy=-2.643906D-09
 Optimization completed.
    -- Stationary point found.
                           ----------------------------
                           !   Optimized Parameters   !
                           ! (Angstroms and Degrees)  !
 --------------------------                            --------------------------
 ! Name  Definition              Value          Derivative Info.                !
 --------------------------------------------------------------------------------
 ! R1    R(1,3)                  1.5351         -DE/DX =    0.0                 !
 ! R2    R(1,7)                  1.5            -DE/DX =    0.2299              !
 ! R3    R(1,8)                  1.3            -DE/DX =    0.0427              !
 ! R4    R(2,9)                  1.3439         -DE/DX =    0.0                 !
 ! R5    R(3,4)                  1.1011         -DE/DX =    0.0                 !
 ! R6    R(3,5)                  1.0939         -DE/DX =    0.0                 !
 ! R7    R(3,6)                  1.1004         -DE/DX =    0.0                 !
 ! R8    R(8,9)                  1.2497         -DE/DX =    0.0                 !
 ! A1    A(3,1,7)              115.9537         -DE/DX =    0.0                 !
 ! A2    A(3,1,8)              119.2101         -DE/DX =    0.0                 !
 ! A3    A(7,1,8)              124.8354         -DE/DX =    0.0                 !
 ! A4    A(1,3,4)              110.5417         -DE/DX =    0.0                 !
 ! A5    A(1,3,5)              111.1261         -DE/DX =    0.0                 !
 ! A6    A(1,3,6)              110.9868         -DE/DX =    0.0                 !
 ! A7    A(4,3,5)              108.4605         -DE/DX =    0.0                 !
 ! A8    A(4,3,6)              107.2101         -DE/DX =    0.0                 !
 ! A9    A(5,3,6)              108.3856         -DE/DX =    0.0                 !
 ! A10   A(1,8,9)              170.6841         -DE/DX =    0.0                 !
 ! A11   A(2,9,8)              124.8436         -DE/DX =    0.0                 !
 ! D1    D(7,1,3,4)             59.7596         -DE/DX =    0.0                 !
 ! D2    D(7,1,3,5)           -179.7561         -DE/DX =    0.0                 !
 ! D3    D(7,1,3,6)            -59.0668         -DE/DX =    0.0                 !
 ! D4    D(8,1,3,4)           -119.9318         -DE/DX =    0.0                 !
 ! D5    D(8,1,3,5)              0.5525         -DE/DX =    0.0                 !
 ! D6    D(8,1,3,6)            121.2418         -DE/DX =    0.0                 !
 ! D7    D(3,1,8,9)             94.2196         -DE/DX =    0.0                 !
 ! D8    D(7,1,8,9)            -85.4423         -DE/DX =    0.0                 !
 ! D9    D(1,8,9,2)            175.9573         -DE/DX =    0.0                 !
 --------------------------------------------------------------------------------
 Largest change from initial coordinates is atom    5       0.126 Angstoms.
 GradGradGradGradGradGradGradGradGradGradGradGradGradGradGradGradGradGrad

 Leave Link  103 at Tue Jan  7 11:08:49 2020, MaxMem=  4294967296 cpu:              70.3 elap:               5.1
 (Enter /home/cwagen/sw/g16/g16/l202.exe)
                          Input orientation:                          
 ---------------------------------------------------------------------
 Center     Atomic      Atomic             Coordinates (Angstroms)
 Number     Number       Type             X           Y           Z
 ---------------------------------------------------------------------
      1          6           0       -0.476942   -0.243252   -0.020161
      2          8           0        2.965987    0.527807    0.389204
      3          6           0       -0.916128   -1.713548    0.023632
      4          1           0       -1.609333   -1.934515   -0.802901
      5          1           0       -0.055975   -2.384517   -0.056937
      6          1           0       -1.445496   -1.938971    0.961629
      7         17           0       -1.574638    0.773271    0.088191
      8          6           0        0.785449    0.038144   -0.151253
      9          7           0        1.958846    0.319872   -0.475911
 ---------------------------------------------------------------------
                    Distance matrix (angstroms):
                    1          2          3          4          5
     1  C    0.000000
     2  O    3.551883   0.000000
     3  C    1.535113   4.497570   0.000000
     4  H    2.180679   5.330826   1.101143   0.000000
     5  H    2.182562   4.220537   1.093870   1.780979   0.000000
     6  H    2.185743   5.086634   1.100403   1.772126   1.779539
     7  Cl   1.499999   4.557207   2.573339   2.850852   3.506996
     8  C    1.299999   2.299263   2.448341   3.170333   2.566354
     9  N    2.541236   1.343873   3.556658   4.233331   3.398347
                    6          7          8          9
     6  H    0.000000
     7  Cl   2.852337   0.000000
     8  C    3.181918   2.483496   0.000000
     9  N    4.331102   3.606839   1.249654   0.000000
 Stoichiometry    C3H3ClNO(1-)
 Framework group  C1[X(C3H3ClNO)]
 Deg. of freedom    21
 Full point group                 C1      NOp   1
 RotChk:  IX=0 Diff= 3.46D-16
 Largest Abelian subgroup         C1      NOp   1
 Largest concise Abelian subgroup C1      NOp   1
                         Standard orientation:                         
 ---------------------------------------------------------------------
 Center     Atomic      Atomic             Coordinates (Angstroms)
 Number     Number       Type             X           Y           Z
 ---------------------------------------------------------------------
      1          6           0        0.578181    0.215969   -0.023532
      2          8           0       -2.927942   -0.182374    0.381803
      3          6           0        1.178117    1.626001    0.068444
      4          1           0        1.889272    1.797758   -0.754524
      5          1           0        0.397612    2.390671    0.017027
      6          1           0        1.731868    1.758038    1.010151
      7         17           0        1.556445   -0.919239    0.042039
      8          6           0       -0.708018    0.081155   -0.155879
      9          7           0       -1.906352   -0.057023   -0.482278
 ---------------------------------------------------------------------
 Rotational constants (GHZ):           6.2049926           1.6091278           1.3288530
 Leave Link  202 at Tue Jan  7 11:08:49 2020, MaxMem=  4294967296 cpu:               2.6 elap:               0.2
 (Enter /home/cwagen/sw/g16/g16/l601.exe)
 Copying SCF densities to generalized density rwf, IOpCl= 0 IROHF=0.

 **********************************************************************

            Population analysis using the SCF density.

 **********************************************************************

 Orbital symmetries:
       Occupied  (A) (A) (A) (A) (A) (A) (A) (A) (A) (A) (A) (A)
                 (A) (A) (A) (A) (A) (A) (A) (A) (A) (A) (A) (A)
                 (A) (A) (A)
       Virtual   (A) (A) (A) (A) (A) (A) (A) (A) (A) (A) (A) (A)
                 (A) (A) (A) (A) (A) (A) (A) (A) (A) (A) (A) (A)
                 (A) (A) (A) (A) (A) (A) (A) (A) (A) (A) (A) (A)
                 (A) (A) (A) (A) (A) (A) (A) (A) (A) (A) (A) (A)
                 (A) (A) (A) (A) (A) (A) (A) (A) (A) (A) (A) (A)
                 (A) (A) (A) (A) (A) (A) (A) (A) (A) (A) (A) (A)
                 (A) (A) (A) (A) (A) (A) (A) (A) (A) (A) (A) (A)
                 (A) (A) (A) (A) (A) (A) (A) (A) (A) (A) (A) (A)
                 (A)
 The electronic state is 1-A.
 Alpha  occ. eigenvalues -- -101.53080 -19.05696 -14.34628 -10.19850 -10.16459
 Alpha  occ. eigenvalues --  -10.16424  -9.45251  -7.21561  -7.20652  -7.20615
 Alpha  occ. eigenvalues --   -0.96867  -0.92266  -0.76585  -0.70686  -0.62866
 Alpha  occ. eigenvalues --   -0.49263  -0.42660  -0.41797  -0.40740  -0.37206
 Alpha  occ. eigenvalues --   -0.35503  -0.33433  -0.33232  -0.28329  -0.19429
 Alpha  occ. eigenvalues --   -0.16398  -0.13890
 Alpha virt. eigenvalues --    0.02073   0.03716   0.03926   0.05765   0.07132
 Alpha virt. eigenvalues --    0.08058   0.08176   0.08609   0.09843   0.10175
 Alpha virt. eigenvalues --    0.11219   0.12310   0.14362   0.14784   0.15966
 Alpha virt. eigenvalues --    0.16848   0.19976   0.20438   0.21566   0.22045
 Alpha virt. eigenvalues --    0.22733   0.24120   0.24574   0.25718   0.26944
 Alpha virt. eigenvalues --    0.27943   0.29160   0.31455   0.32738   0.34347
 Alpha virt. eigenvalues --    0.37039   0.41896   0.45086   0.53364   0.61638
 Alpha virt. eigenvalues --    0.61855   0.67306   0.69318   0.70125   0.71848
 Alpha virt. eigenvalues --    0.74408   0.77795   0.78969   0.81515   0.82214
 Alpha virt. eigenvalues --    0.87495   0.89265   0.91155   0.91354   0.94297
 Alpha virt. eigenvalues --    1.01117   1.01915   1.04174   1.05954   1.07120
 Alpha virt. eigenvalues --    1.11744   1.13140   1.21148   1.24722   1.27936
 Alpha virt. eigenvalues --    1.28730   1.33774   1.38746   1.42312   1.46340
 Alpha virt. eigenvalues --    1.52288   1.61481   1.66831   1.73457   1.75402
 Alpha virt. eigenvalues --    1.79901   1.82165   1.88447   1.90469   1.95379
 Alpha virt. eigenvalues --    2.03430   2.05583   2.08845   2.22866   2.28262
 Alpha virt. eigenvalues --    2.33417   2.35777   2.42105   2.46981   2.57358
 Alpha virt. eigenvalues --    2.61547   2.83020   2.88478   3.07823   3.22014
 Alpha virt. eigenvalues --    3.31718   4.23214   4.32657   4.34139   4.38486
 Alpha virt. eigenvalues --    4.48798   4.70391
          Condensed to atoms (all electrons):
               1          2          3          4          5          6
     1  C    8.747688   0.099417   0.572912  -0.075951  -0.065990  -0.052434
     2  O    0.099417   8.642478   0.035310  -0.000138  -0.000153   0.000046
     3  C    0.572912   0.035310   7.364667   0.368955   0.485579   0.393032
     4  H   -0.075951  -0.000138   0.368955   0.517099  -0.025038  -0.037483
     5  H   -0.065990  -0.000153   0.485579  -0.025038   0.485552  -0.024719
     6  H   -0.052434   0.000046   0.393032  -0.037483  -0.024719   0.514681
     7  Cl  -0.591359  -0.010880  -0.263079   0.012051  -0.000296   0.022524
     8  C   -2.564133  -0.209642  -2.113667   0.029572  -0.079427  -0.027066
     9  N   -0.297492  -0.063156   0.019684  -0.000530   0.003695  -0.000393
               7          8          9
     1  C   -0.591359  -2.564133  -0.297492
     2  O   -0.010880  -0.209642  -0.063156
     3  C   -0.263079  -2.113667   0.019684
     4  H    0.012051   0.029572  -0.000530
     5  H   -0.000296  -0.079427   0.003695
     6  H    0.022524  -0.027066  -0.000393
     7  Cl  17.454703   0.303843  -0.032618
     8  C    0.303843  10.377319   0.314955
     9  N   -0.032618   0.314955   7.643945
 Mulliken charges:
               1
     1  C    0.227342
     2  O   -0.493284
     3  C   -0.863394
     4  H    0.211462
     5  H    0.220796
     6  H    0.211811
     7  Cl   0.105110
     8  C   -0.031753
     9  N   -0.588091
 Sum of Mulliken charges =  -1.00000
 Mulliken charges with hydrogens summed into heavy atoms:
               1
     1  C    0.227342
     2  O   -0.493284
     3  C   -0.219324
     7  Cl   0.105110
     8  C   -0.031753
     9  N   -0.588091
 Electronic spatial extent (au):  <R**2>=            851.6606
 Charge=             -1.0000 electrons
 Dipole moment (field-independent basis, Debye):
    X=             10.4614    Y=              1.7133    Z=             -0.2015  Tot=             10.6027
 Quadrupole moment (field-independent basis, Debye-Ang):
   XX=            -79.1577   YY=            -44.7380   ZZ=            -47.8204
   XY=             -0.6626   XZ=              1.6686   YZ=              0.1903
 Traceless Quadrupole moment (field-independent basis, Debye-Ang):
   XX=            -21.9190   YY=             12.5007   ZZ=              9.4183
   XY=             -0.6626   XZ=              1.6686   YZ=              0.1903
 Octapole moment (field-independent basis, Debye-Ang**2):
  XXX=            101.8374  YYY=             -3.1890  ZZZ=              2.1882  XYY=              3.5574
  XXY=              5.4433  XXZ=             -6.5004  XZZ=              9.3894  YZZ=             -0.7554
  YYZ=              0.3626  XYZ=             -0.5754
 Hexadecapole moment (field-independent basis, Debye-Ang**3):
 XXXX=          -1128.1533 YYYY=           -263.3747 ZZZZ=            -86.1265 XXXY=            -24.0772
 XXXZ=             20.9168 YYYX=            -12.5005 YYYZ=             -0.5236 ZZZX=             -2.7755
 ZZZY=              0.0694 XXYY=           -185.2475 XXZZ=           -165.7652 YYZZ=            -58.9902
 XXYZ=              0.8760 YYXZ=              0.3465 ZZXY=             -0.4832
 N-N= 2.569542017177D+02 E-N=-2.192208763021D+03  KE= 7.031781855017D+02
 No NMR shielding tensors so no spin-rotation constants.
 Leave Link  601 at Tue Jan  7 11:08:50 2020, MaxMem=  4294967296 cpu:              14.7 elap:               1.1
 (Enter /home/cwagen/sw/g16/g16/l9999.exe)
 1\1\GINC-NODE053\FOpt\RB3LYP\6-31+G(d)\C3H3Cl1N1O1(1-)\CWAGEN\07-Jan-2
 020\0\\#p opt=modredundant b3lyp/6-31+g(d) scrf=(smd, solvent=tetrahyd
 rofuran)\\title\\-1,1\C,-0.4769415591,-0.2432524321,-0.0201612488\O,2.
 9659871721,0.5278071207,0.3892044848\C,-0.9161278046,-1.7135484007,0.0
 236316448\H,-1.6093330744,-1.9345152699,-0.8029014496\H,-0.0559750895,
 -2.3845167151,-0.0569371979\H,-1.4454961898,-1.9389709193,0.9616292552
 \Cl,-1.5746377048,0.7732709586,0.0881910718\C,0.7854485926,0.038144141
 3,-0.1512526791\N,1.9588461976,0.3198723564,-0.4759105212\\Version=AS6
 4L-G16RevA.03\State=1-A\HF=-706.2642525\RMSD=2.104e-09\RMSF=6.028e-02\
 Dipole=-4.0161064,-1.1239927,-0.0915437\Quadrupole=-15.8879885,8.88599
 78,7.0019907,-3.2646196,-1.1782433,-0.1910626\PG=C01 [X(C3H3Cl1N1O1)]\
 \@


 A SLIP OF THE FOOT YOU MAY SOON RECOVER, BUT A SLIP OF THE TONGUE
 YOU MAY NEVER GET OVER. -- BEN FRANKLIN
 Job cpu time:       0 days  3 hours 40 minutes 13.5 seconds.
 Elapsed time:       0 days  0 hours 15 minutes 48.9 seconds.
 File lengths (MBytes):  RWF=     60 Int=      0 D2E=      0 Chk=      4 Scr=      1
 Normal termination of Gaussian 16 at Tue Jan  7 11:08:51 2020.
