 Entering Gaussian System, Link 0=g16
 Input=scan_190_280.gjf
 Output=scan_190_280.out
 Initial command:
 /home/cwagen/sw/g16/g16/l1.exe "/scratch/users/cwagen/cwagen_scan_190_280/Gau-28664.inp" -scrdir="/scratch/users/cwagen/cwagen_scan_190_280/"
 Entering Link 1 = /home/cwagen/sw/g16/g16/l1.exe PID=     28665.
  
 Copyright (c) 1988,1990,1992,1993,1995,1998,2003,2009,2016,
            Gaussian, Inc.  All Rights Reserved.
  
 This is part of the Gaussian(R) 16 program.  It is based on
 the Gaussian(R) 09 system (copyright 2009, Gaussian, Inc.),
 the Gaussian(R) 03 system (copyright 2003, Gaussian, Inc.),
 the Gaussian(R) 98 system (copyright 1998, Gaussian, Inc.),
 the Gaussian(R) 94 system (copyright 1995, Gaussian, Inc.),
 the Gaussian 92(TM) system (copyright 1992, Gaussian, Inc.),
 the Gaussian 90(TM) system (copyright 1990, Gaussian, Inc.),
 the Gaussian 88(TM) system (copyright 1988, Gaussian, Inc.),
 the Gaussian 86(TM) system (copyright 1986, Carnegie Mellon
 University), and the Gaussian 82(TM) system (copyright 1983,
 Carnegie Mellon University). Gaussian is a federally registered
 trademark of Gaussian, Inc.
  
 This software contains proprietary and confidential information,
 including trade secrets, belonging to Gaussian, Inc.
  
 This software is provided under written license and may be
 used, copied, transmitted, or stored only in accord with that
 written license.
  
 The following legend is applicable only to US Government
 contracts under FAR:
  
                    RESTRICTED RIGHTS LEGEND
  
 Use, reproduction and disclosure by the US Government is
 subject to restrictions as set forth in subparagraphs (a)
 and (c) of the Commercial Computer Software - Restricted
 Rights clause in FAR 52.227-19.
  
 Gaussian, Inc.
 340 Quinnipiac St., Bldg. 40, Wallingford CT 06492
  
  
 ---------------------------------------------------------------
 Warning -- This program may not be used in any manner that
 competes with the business of Gaussian, Inc. or will provide
 assistance to any competitor of Gaussian, Inc.  The licensee
 of this program is prohibited from giving any competitor of
 Gaussian, Inc. access to this program.  By using this program,
 the user acknowledges that Gaussian, Inc. is engaged in the
 business of creating and licensing software in the field of
 computational chemistry and represents and warrants to the
 licensee that it is not a competitor of Gaussian, Inc. and that
 it will not use this program in any manner prohibited above.
 ---------------------------------------------------------------
  

 Cite this work as:
 Gaussian 16, Revision A.03,
 M. J. Frisch, G. W. Trucks, H. B. Schlegel, G. E. Scuseria, 
 M. A. Robb, J. R. Cheeseman, G. Scalmani, V. Barone, 
 G. A. Petersson, H. Nakatsuji, X. Li, M. Caricato, A. V. Marenich, 
 J. Bloino, B. G. Janesko, R. Gomperts, B. Mennucci, H. P. Hratchian, 
 J. V. Ortiz, A. F. Izmaylov, J. L. Sonnenberg, D. Williams-Young, 
 F. Ding, F. Lipparini, F. Egidi, J. Goings, B. Peng, A. Petrone, 
 T. Henderson, D. Ranasinghe, V. G. Zakrzewski, J. Gao, N. Rega, 
 G. Zheng, W. Liang, M. Hada, M. Ehara, K. Toyota, R. Fukuda, 
 J. Hasegawa, M. Ishida, T. Nakajima, Y. Honda, O. Kitao, H. Nakai, 
 T. Vreven, K. Throssell, J. A. Montgomery, Jr., J. E. Peralta, 
 F. Ogliaro, M. J. Bearpark, J. J. Heyd, E. N. Brothers, K. N. Kudin, 
 V. N. Staroverov, T. A. Keith, R. Kobayashi, J. Normand, 
 K. Raghavachari, A. P. Rendell, J. C. Burant, S. S. Iyengar, 
 J. Tomasi, M. Cossi, J. M. Millam, M. Klene, C. Adamo, R. Cammi, 
 J. W. Ochterski, R. L. Martin, K. Morokuma, O. Farkas, 
 J. B. Foresman, and D. J. Fox, Gaussian, Inc., Wallingford CT, 2016.
 
 ******************************************
 Gaussian 16:  AS64L-G16RevA.03 25-Dec-2016
                 8-Jan-2020 
 ******************************************
 %nprocshared=16
 Will use up to   16 processors via shared memory.
 %mem=32GB
 ----------------------------------------------------------------------
 #p opt=modredundant b3lyp/6-31+g(d) scrf=(smd, solvent=tetrahydrofuran
 )
 ----------------------------------------------------------------------
 1/18=120,19=15,26=3,38=1/1,3;
 2/9=110,12=2,17=6,18=5,40=1/2;
 3/5=1,6=6,7=11,11=2,25=1,30=1,70=32201,71=1,72=20,74=-5/1,2,3;
 4//1;
 5/5=2,38=5,53=20/2;
 6/7=2,8=2,9=2,10=2,28=1/1;
 7//1,2,3,16;
 1/18=20,19=15,26=3/3(2);
 2/9=110/2;
 99//99;
 2/9=110/2;
 3/5=1,6=6,7=11,11=2,25=1,30=1,70=32205,71=1,72=20,74=-5/1,2,3;
 4/5=5,16=3,69=1/1;
 5/5=2,38=5,53=20/2;
 7//1,2,3,16;
 1/18=20,19=15,26=3/3(-5);
 2/9=110/2;
 6/7=2,8=2,9=2,10=2,19=2,28=1/1;
 99/9=1/99;
 Leave Link    1 at Wed Jan  8 00:04:18 2020, MaxMem=  4294967296 cpu:               1.7 elap:               0.1
 (Enter /home/cwagen/sw/g16/g16/l101.exe)
 -----
 title
 -----
 Symbolic Z-matrix:
 Charge = -1 Multiplicity = 1
 6                    -0.19426  -0.292    -0.21291 
 8                    -0.25532  -0.66526  -1.45426 
 6                    -0.33095  -1.45422   0.81632 
 1                    -0.18039  -1.13044   1.85373 
 1                    -1.34067  -1.87301   0.71427 
 1                     0.39707  -2.23395   0.57058 
 17                   -1.33187   1.15115   0.26998 
 6                     2.40168   0.61703   0.31126 
 7                     3.53625   0.89733   0.34157 
 
 Add virtual bond connecting atoms C8         and C1         Dist= 5.29D+00.
 The following ModRedundant input section has been read:
 B       1       7 F                                                           
 B       1       8 F                                                           
 
 ITRead=  0  0  0  0  0  0  0  0  0
 MicOpt= -1 -1 -1 -1 -1 -1 -1 -1 -1
 NAtoms=      9 NQM=        9 NQMF=       0 NMMI=      0 NMMIF=      0
                NMic=       0 NMicF=      0.
                    Isotopes and Nuclear Properties:
 (Nuclear quadrupole moments (NQMom) in fm**2, nuclear magnetic moments (NMagM)
  in nuclear magnetons)

  Atom         1           2           3           4           5           6           7           8           9
 IAtWgt=          12          16          12           1           1           1          35          12          14
 AtmWgt=  12.0000000  15.9949146  12.0000000   1.0078250   1.0078250   1.0078250  34.9688527  12.0000000  14.0030740
 NucSpn=           0           0           0           1           1           1           3           0           2
 AtZEff=   0.0000000   0.0000000   0.0000000   0.0000000   0.0000000   0.0000000   0.0000000   0.0000000   0.0000000
 NQMom=    0.0000000   0.0000000   0.0000000   0.0000000   0.0000000   0.0000000  -8.1650000   0.0000000   2.0440000
 NMagM=    0.0000000   0.0000000   0.0000000   2.7928460   2.7928460   2.7928460   0.8218740   0.0000000   0.4037610
 AtZNuc=   6.0000000   8.0000000   6.0000000   1.0000000   1.0000000   1.0000000  17.0000000   6.0000000   7.0000000
 Leave Link  101 at Wed Jan  8 00:04:19 2020, MaxMem=  4294967296 cpu:               8.0 elap:               0.6
 (Enter /home/cwagen/sw/g16/g16/l103.exe)

 GradGradGradGradGradGradGradGradGradGradGradGradGradGradGradGradGradGrad
 Berny optimization.
 Initialization pass.
                           ----------------------------
                           !    Initial Parameters    !
                           ! (Angstroms and Degrees)  !
 --------------------------                            --------------------------
 ! Name  Definition              Value          Derivative Info.                !
 --------------------------------------------------------------------------------
 ! R1    R(1,2)                  1.2977         estimate D2E/DX2                !
 ! R2    R(1,3)                  1.5584         estimate D2E/DX2                !
 ! R3    R(1,7)                  1.9            Frozen                          !
 ! R4    R(1,8)                  2.8            Frozen                          !
 ! R5    R(3,4)                  1.0971         estimate D2E/DX2                !
 ! R6    R(3,5)                  1.0979         estimate D2E/DX2                !
 ! R7    R(3,6)                  1.0947         estimate D2E/DX2                !
 ! R8    R(8,9)                  1.1691         estimate D2E/DX2                !
 ! A1    A(2,1,3)              114.4006         estimate D2E/DX2                !
 ! A2    A(2,1,7)              115.6846         estimate D2E/DX2                !
 ! A3    A(2,1,8)              108.426          estimate D2E/DX2                !
 ! A4    A(3,1,7)              110.248          estimate D2E/DX2                !
 ! A5    A(3,1,8)              101.5248         estimate D2E/DX2                !
 ! A6    A(7,1,8)              105.1256         estimate D2E/DX2                !
 ! A7    A(1,3,4)              113.1005         estimate D2E/DX2                !
 ! A8    A(1,3,5)              107.683          estimate D2E/DX2                !
 ! A9    A(1,3,6)              108.9421         estimate D2E/DX2                !
 ! A10   A(4,3,5)              109.0662         estimate D2E/DX2                !
 ! A11   A(4,3,6)              109.3417         estimate D2E/DX2                !
 ! A12   A(5,3,6)              108.6067         estimate D2E/DX2                !
 ! A13   L(1,8,9,6,-1)         177.1066         estimate D2E/DX2                !
 ! A14   L(1,8,9,6,-2)         163.8302         estimate D2E/DX2                !
 ! D1    D(2,1,3,4)            174.4714         estimate D2E/DX2                !
 ! D2    D(2,1,3,5)            -64.9488         estimate D2E/DX2                !
 ! D3    D(2,1,3,6)             52.6633         estimate D2E/DX2                !
 ! D4    D(7,1,3,4)            -53.1046         estimate D2E/DX2                !
 ! D5    D(7,1,3,5)             67.4752         estimate D2E/DX2                !
 ! D6    D(7,1,3,6)           -174.9127         estimate D2E/DX2                !
 ! D7    D(8,1,3,4)             57.938          estimate D2E/DX2                !
 ! D8    D(8,1,3,5)            178.5177         estimate D2E/DX2                !
 ! D9    D(8,1,3,6)            -63.8702         estimate D2E/DX2                !
 --------------------------------------------------------------------------------
 Trust Radius=3.00D-01 FncErr=1.00D-07 GrdErr=1.00D-06 EigMax=2.50D+02 EigMin=1.00D-04
 Number of steps in this run=     41 maximum allowed number of steps=    100.
 GradGradGradGradGradGradGradGradGradGradGradGradGradGradGradGradGradGrad

 Leave Link  103 at Wed Jan  8 00:04:19 2020, MaxMem=  4294967296 cpu:               0.6 elap:               0.1
 (Enter /home/cwagen/sw/g16/g16/l202.exe)
                          Input orientation:                          
 ---------------------------------------------------------------------
 Center     Atomic      Atomic             Coordinates (Angstroms)
 Number     Number       Type             X           Y           Z
 ---------------------------------------------------------------------
      1          6           0       -0.194263   -0.291999   -0.212908
      2          8           0       -0.255321   -0.665256   -1.454255
      3          6           0       -0.330945   -1.454221    0.816316
      4          1           0       -0.180394   -1.130438    1.853734
      5          1           0       -1.340665   -1.873010    0.714272
      6          1           0        0.397068   -2.233949    0.570583
      7         17           0       -1.331867    1.151149    0.269979
      8          6           0        2.401678    0.617030    0.311263
      9          7           0        3.536249    0.897328    0.341566
 ---------------------------------------------------------------------
                    Distance matrix (angstroms):
                    1          2          3          4          5
     1  C    0.000000
     2  O    1.297687   0.000000
     3  C    1.558443   2.404928   0.000000
     4  H    2.230287   3.341377   1.097150   0.000000
     5  H    2.161827   2.709087   1.097876   1.787740   0.000000
     6  H    2.175937   2.643176   1.094698   1.788205   1.780629
     7  Cl   1.900000   2.726034   2.843991   3.006628   3.056634
     8  C    2.800000   3.438162   3.465889   3.478499   4.513075
     9  N    3.954575   4.476902   4.550864   4.495767   5.621208
                    6          7          8          9
     6  H    0.000000
     7  Cl   3.812934   0.000000
     8  C    3.494824   3.771783   0.000000
     9  N    4.439798   4.875255   1.169075   0.000000
 Stoichiometry    C3H3ClNO(1-)
 Framework group  C1[X(C3H3ClNO)]
 Deg. of freedom    21
 Full point group                 C1      NOp   1
 Largest Abelian subgroup         C1      NOp   1
 Largest concise Abelian subgroup C1      NOp   1
                         Standard orientation:                         
 ---------------------------------------------------------------------
 Center     Atomic      Atomic             Coordinates (Angstroms)
 Number     Number       Type             X           Y           Z
 ---------------------------------------------------------------------
      1          6           0       -0.445457    0.441732    0.209393
      2          8           0       -0.611595    0.960911    1.387036
      3          6           0       -0.641450    1.442637   -0.968962
      4          1           0       -0.402545    1.007679   -1.947467
      5          1           0       -1.692161    1.760947   -0.964872
      6          1           0       -0.009912    2.320382   -0.798414
      7         17           0       -1.404339   -1.164025   -0.125402
      8          6           0        2.253398   -0.244528   -0.082554
      9          7           0        3.410314   -0.403846   -0.028711
 ---------------------------------------------------------------------
 Rotational constants (GHZ):           3.3686025           1.4153418           1.2283304
 Leave Link  202 at Wed Jan  8 00:04:19 2020, MaxMem=  4294967296 cpu:               1.2 elap:               0.1
 (Enter /home/cwagen/sw/g16/g16/l301.exe)
 Standard basis: 6-31+G(d) (6D, 7F)
 Ernie: Thresh=  0.10000D-02 Tol=  0.10000D-05 Strict=F.
 There are   124 symmetry adapted cartesian basis functions of A   symmetry.
 There are   124 symmetry adapted basis functions of A   symmetry.
   124 basis functions,   228 primitive gaussians,   124 cartesian basis functions
    27 alpha electrons       27 beta electrons
       nuclear repulsion energy       230.6916435063 Hartrees.
 IExCor=  402 DFT=T Ex+Corr=B3LYP ExCW=0 ScaHFX=  0.200000
 ScaDFX=  0.800000  0.720000  1.000000  0.810000 ScalE2=  1.000000  1.000000
 IRadAn=      5 IRanWt=     -1 IRanGd=            0 ICorTp=0 IEmpDi=  4
 NAtoms=    9 NActive=    9 NUniq=    9 SFac= 1.00D+00 NAtFMM=   60 NAOKFM=F Big=F
 Integral buffers will be    131072 words long.
 Raffenetti 2 integral format.
 Two-electron integral symmetry is turned on.
 ------------------------------------------------------------------------------
 Polarizable Continuum Model (PCM)
 =================================
 Model                : PCM.
 Atomic radii         : SMD-Coulomb.
 Polarization charges : Total charges.
 Charge compensation  : None.
 Solution method      : On-the-fly selection.
 Cavity type          : VdW (van der Waals Surface) (Alpha=1.000).
 Cavity algorithm     : GePol (No added spheres)
                        Default sphere list used, NSphG=    9.
                        Lebedev-Laikov grids with approx.  5.0 points / Ang**2.
                        Smoothing algorithm: York/Karplus (Gamma=1.0000).
                        Polarization charges: spherical gaussians, with
                                              point-specific exponents (IZeta= 3).
                        Self-potential: point-specific (ISelfS= 7).
                        Self-field    : sphere-specific E.n sum rule (ISelfD= 2).
 1st derivatives      : Analytical E(r).r(x)/FMM algorithm (CHGder, D1EAlg=3).
                        Cavity 1st derivative terms included.
 Solvent              : TetraHydroFuran, Eps=   7.425700 Eps(inf)=   1.974025
 ------------------------------------------------------------------------------
 Spheres list:
 ISph  on   Nord     Re0    Alpha      Xe            Ye            Ze
    1   C      1    1.8500  1.000     -0.445457      0.441732      0.209393
    2   O      2    2.2940  1.000     -0.611595      0.960911      1.387036
    3   C      3    1.8500  1.000     -0.641450      1.442637     -0.968962
    4   H      4    1.2000  1.000     -0.402545      1.007679     -1.947467
    5   H      5    1.2000  1.000     -1.692161      1.760947     -0.964872
    6   H      6    1.2000  1.000     -0.009912      2.320382     -0.798414
    7  Cl      7    2.3800  1.000     -1.404339     -1.164025     -0.125402
    8   C      8    1.8500  1.000      2.253398     -0.244528     -0.082554
    9   N      9    1.8900  1.000      3.410314     -0.403846     -0.028711
 ------------------------------------------------------------------------------
 GePol: Number of generator spheres                  =       9
 GePol: Total number of spheres                      =       9
 GePol: Number of exposed spheres                    =       9 (100.00%)
 GePol: Number of points                             =    1261
 GePol: Average weight of points                     =       0.14
 GePol: Minimum weight of points                     =   0.10D-08
 GePol: Maximum weight of points                     =    0.18138
 GePol: Number of points with low weight             =      38
 GePol: Fraction of low-weight points (<1% of avg)   =       3.01%
 GePol: Cavity surface area                          =    170.603 Ang**2
 GePol: Cavity volume                                =    151.821 Ang**3
 ------------------------------------------------------------------------------
 Atomic radii for non-electrostatic terms: SMD-CDS.
 ------------------------------------------------------------------------------
 PCM non-electrostatic energy =         0.0011407076 Hartrees.
 Nuclear repulsion after PCM non-electrostatic terms =      230.6927842139 Hartrees.
 Leave Link  301 at Wed Jan  8 00:04:19 2020, MaxMem=  4294967296 cpu:               2.3 elap:               0.2
 (Enter /home/cwagen/sw/g16/g16/l302.exe)
 NPDir=0 NMtPBC=     1 NCelOv=     1 NCel=       1 NClECP=     1 NCelD=      1
         NCelK=      1 NCelE2=     1 NClLst=     1 CellRange=     0.0.
 One-electron integrals computed using PRISM.
 One-electron integral symmetry used in STVInt
 NBasis=   124 RedAO= T EigKep=  1.25D-04  NBF=   124
 NBsUse=   124 1.00D-06 EigRej= -1.00D+00 NBFU=   124
 Precomputing XC quadrature grid using
 IXCGrd= 4 IRadAn=           5 IRanWt=          -1 IRanGd=           0 AccXCQ= 0.00D+00.
 Generated NRdTot=       0 NPtTot=           0 NUsed=           0 NTot=          32
 NSgBfM=   124   124   124   124   124 MxSgAt=     9 MxSgA2=     9.
 Leave Link  302 at Wed Jan  8 00:04:21 2020, MaxMem=  4294967296 cpu:              24.3 elap:               1.8
 (Enter /home/cwagen/sw/g16/g16/l303.exe)
 DipDrv:  MaxL=1.
 Leave Link  303 at Wed Jan  8 00:04:21 2020, MaxMem=  4294967296 cpu:               2.5 elap:               0.3
 (Enter /home/cwagen/sw/g16/g16/l401.exe)
 ExpMin= 4.38D-02 ExpMax= 2.52D+04 ExpMxC= 3.78D+03 IAcc=3 IRadAn=         5 AccDes= 0.00D+00
 Harris functional with IExCor=  402 and IRadAn=       5 diagonalized for initial guess.
 HarFok:  IExCor=  402 AccDes= 0.00D+00 IRadAn=         5 IDoV= 1 UseB2=F ITyADJ=14
 ICtDFT=  3500011 ScaDFX=  1.000000  1.000000  1.000000  1.000000
 FoFCou: FMM=F IPFlag=           0 FMFlag=      100000 FMFlg1=           0
         NFxFlg=           0 DoJE=T BraDBF=F KetDBF=T FulRan=T
         wScrn=  0.000000 ICntrl=       500 IOpCl=  0 I1Cent=   200000004 NGrid=           0
         NMat0=    1 NMatS0=      1 NMatT0=    0 NMatD0=    1 NMtDS0=    0 NMtDT0=    0
 Petite list used in FoFCou.
 Harris En= -706.397614295771    
 JPrj=0 DoOrth=F DoCkMO=F.
 Leave Link  401 at Wed Jan  8 00:04:23 2020, MaxMem=  4294967296 cpu:              27.7 elap:               2.0
 (Enter /home/cwagen/sw/g16/g16/l502.exe)
 Keep R1 ints in memory in canonical form, NReq=45236517.
 FoFCou: FMM=F IPFlag=           0 FMFlag=           0 FMFlg1=           0
         NFxFlg=           0 DoJE=F BraDBF=F KetDBF=F FulRan=T
         wScrn=  0.000000 ICntrl=       600 IOpCl=  0 I1Cent=           0 NGrid=           0
         NMat0=    1 NMatS0=   7750 NMatT0=    0 NMatD0=    1 NMtDS0=    0 NMtDT0=    0
 Symmetry not used in FoFCou.
 Two-electron integral symmetry not used.
 Closed shell SCF:
 Using DIIS extrapolation, IDIIS=  1040.
 NGot=  4294967296 LenX=  4264898079 LenY=  4264882262
 Requested convergence on RMS density matrix=1.00D-08 within 128 cycles.
 Requested convergence on MAX density matrix=1.00D-06.
 Requested convergence on             energy=1.00D-06.
 No special actions if energy rises.

 Cycle   1  Pass 1  IDiag  1:
 Inv3:  Mode=1 IEnd=     4770363.
 Iteration    1 A*A^-1 deviation from unit magnitude is 3.00D-15 for     65.
 Iteration    1 A*A^-1 deviation from orthogonality  is 1.78D-15 for   1258   1127.
 Iteration    1 A^-1*A deviation from unit magnitude is 2.55D-15 for   1234.
 Iteration    1 A^-1*A deviation from orthogonality  is 1.70D-15 for   1255   1124.
 E= -706.144113232038    
 DIIS: error= 3.17D-02 at cycle   1 NSaved=   1.
 NSaved= 1 IEnMin= 1 EnMin= -706.144113232038     IErMin= 1 ErrMin= 3.17D-02
 ErrMax= 3.17D-02  0.00D+00 EMaxC= 1.00D-01 BMatC= 2.44D-01 BMatP= 2.44D-01
 IDIUse=3 WtCom= 6.83D-01 WtEn= 3.17D-01
 Coeff-Com:  0.100D+01
 Coeff-En:   0.100D+01
 Coeff:      0.100D+01
 Gap=     0.270 Goal=   None    Shift=    0.000
 GapD=    0.270 DampG=1.000 DampE=0.500 DampFc=0.5000 IDamp=-1.
 Damping current iteration by 5.00D-01
 RMSDP=1.78D-02 MaxDP=8.61D-01              OVMax= 5.02D-01

 Cycle   2  Pass 1  IDiag  1:
 E= -706.053014752636     Delta-E=        0.091098479401 Rises=F Damp=T
 DIIS: error= 2.59D-02 at cycle   2 NSaved=   2.
 NSaved= 2 IEnMin= 1 EnMin= -706.144113232038     IErMin= 2 ErrMin= 2.59D-02
 ErrMax= 2.59D-02  0.00D+00 EMaxC= 1.00D-01 BMatC= 1.47D-01 BMatP= 2.44D-01
 IDIUse=3 WtCom= 7.41D-01 WtEn= 2.59D-01
 Coeff-Com:  0.423D+00 0.577D+00
 Coeff-En:   0.608D+00 0.392D+00
 Coeff:      0.471D+00 0.529D+00
 Gap=     0.092 Goal=   None    Shift=    0.000
 RMSDP=5.30D-03 MaxDP=9.60D-02 DE= 9.11D-02 OVMax= 4.04D-01

 Cycle   3  Pass 1  IDiag  1:
 E= -706.314577931582     Delta-E=       -0.261563178945 Rises=F Damp=F
 DIIS: error= 1.67D-02 at cycle   3 NSaved=   3.
 NSaved= 3 IEnMin= 3 EnMin= -706.314577931582     IErMin= 3 ErrMin= 1.67D-02
 ErrMax= 1.67D-02  0.00D+00 EMaxC= 1.00D-01 BMatC= 6.48D-02 BMatP= 1.47D-01
 IDIUse=3 WtCom= 8.33D-01 WtEn= 1.67D-01
 Coeff-Com:  0.205D+00 0.373D+00 0.422D+00
 Coeff-En:   0.250D-01 0.000D+00 0.975D+00
 Coeff:      0.175D+00 0.311D+00 0.514D+00
 Gap=     0.177 Goal=   None    Shift=    0.000
 RMSDP=4.54D-03 MaxDP=2.35D-01 DE=-2.62D-01 OVMax= 1.21D-01

 Cycle   4  Pass 1  IDiag  1:
 E= -706.371198086722     Delta-E=       -0.056620155140 Rises=F Damp=F
 DIIS: error= 6.09D-03 at cycle   4 NSaved=   4.
 NSaved= 4 IEnMin= 4 EnMin= -706.371198086722     IErMin= 4 ErrMin= 6.09D-03
 ErrMax= 6.09D-03  0.00D+00 EMaxC= 1.00D-01 BMatC= 9.59D-03 BMatP= 6.48D-02
 IDIUse=3 WtCom= 9.39D-01 WtEn= 6.09D-02
 Coeff-Com:  0.350D-01 0.492D-01 0.280D+00 0.635D+00
 Coeff-En:   0.000D+00 0.000D+00 0.121D+00 0.879D+00
 Coeff:      0.329D-01 0.462D-01 0.271D+00 0.650D+00
 Gap=     0.184 Goal=   None    Shift=    0.000
 RMSDP=9.57D-04 MaxDP=2.81D-02 DE=-5.66D-02 OVMax= 3.21D-02

 Cycle   5  Pass 1  IDiag  1:
 E= -706.378376410166     Delta-E=       -0.007178323444 Rises=F Damp=F
 DIIS: error= 3.65D-03 at cycle   5 NSaved=   5.
 NSaved= 5 IEnMin= 5 EnMin= -706.378376410166     IErMin= 5 ErrMin= 3.65D-03
 ErrMax= 3.65D-03  0.00D+00 EMaxC= 1.00D-01 BMatC= 1.28D-03 BMatP= 9.59D-03
 IDIUse=3 WtCom= 9.63D-01 WtEn= 3.65D-02
 Coeff-Com:  0.550D-02-0.180D-03 0.144D+00 0.431D+00 0.420D+00
 Coeff-En:   0.000D+00 0.000D+00 0.000D+00 0.444D-01 0.956D+00
 Coeff:      0.530D-02-0.173D-03 0.139D+00 0.416D+00 0.439D+00
 Gap=     0.164 Goal=   None    Shift=    0.000
 RMSDP=4.65D-04 MaxDP=2.27D-02 DE=-7.18D-03 OVMax= 1.46D-02

 Cycle   6  Pass 1  IDiag  1:
 E= -706.379362351698     Delta-E=       -0.000985941532 Rises=F Damp=F
 DIIS: error= 1.11D-03 at cycle   6 NSaved=   6.
 NSaved= 6 IEnMin= 6 EnMin= -706.379362351698     IErMin= 6 ErrMin= 1.11D-03
 ErrMax= 1.11D-03  0.00D+00 EMaxC= 1.00D-01 BMatC= 1.56D-04 BMatP= 1.28D-03
 IDIUse=3 WtCom= 9.89D-01 WtEn= 1.11D-02
 Coeff-Com:  0.765D-03-0.591D-02 0.503D-01 0.151D+00 0.279D+00 0.525D+00
 Coeff-En:   0.000D+00 0.000D+00 0.000D+00 0.000D+00 0.126D+00 0.874D+00
 Coeff:      0.756D-03-0.584D-02 0.497D-01 0.150D+00 0.277D+00 0.529D+00
 Gap=     0.166 Goal=   None    Shift=    0.000
 RMSDP=1.23D-04 MaxDP=3.71D-03 DE=-9.86D-04 OVMax= 3.68D-03

 Cycle   7  Pass 1  IDiag  1:
 E= -706.379502828583     Delta-E=       -0.000140476885 Rises=F Damp=F
 DIIS: error= 1.59D-04 at cycle   7 NSaved=   7.
 NSaved= 7 IEnMin= 7 EnMin= -706.379502828583     IErMin= 7 ErrMin= 1.59D-04
 ErrMax= 1.59D-04  0.00D+00 EMaxC= 1.00D-01 BMatC= 6.20D-06 BMatP= 1.56D-04
 IDIUse=3 WtCom= 9.98D-01 WtEn= 1.59D-03
 Coeff-Com:  0.784D-03-0.343D-02 0.792D-02 0.154D-01 0.667D-01 0.204D+00
 Coeff-Com:  0.709D+00
 Coeff-En:   0.000D+00 0.000D+00 0.000D+00 0.000D+00 0.000D+00 0.000D+00
 Coeff-En:   0.100D+01
 Coeff:      0.783D-03-0.342D-02 0.791D-02 0.154D-01 0.666D-01 0.204D+00
 Coeff:      0.709D+00
 Gap=     0.166 Goal=   None    Shift=    0.000
 RMSDP=3.43D-05 MaxDP=6.85D-04 DE=-1.40D-04 OVMax= 7.10D-04

 Cycle   8  Pass 1  IDiag  1:
 E= -706.379508291957     Delta-E=       -0.000005463374 Rises=F Damp=F
 DIIS: error= 4.88D-05 at cycle   8 NSaved=   8.
 NSaved= 8 IEnMin= 8 EnMin= -706.379508291957     IErMin= 8 ErrMin= 4.88D-05
 ErrMax= 4.88D-05  0.00D+00 EMaxC= 1.00D-01 BMatC= 3.56D-07 BMatP= 6.20D-06
 IDIUse=1 WtCom= 1.00D+00 WtEn= 0.00D+00
 Coeff-Com:  0.475D-03-0.129D-02 0.163D-02 0.289D-03 0.125D-01 0.468D-01
 Coeff-Com:  0.222D+00 0.718D+00
 Coeff:      0.475D-03-0.129D-02 0.163D-02 0.289D-03 0.125D-01 0.468D-01
 Coeff:      0.222D+00 0.718D+00
 Gap=     0.166 Goal=   None    Shift=    0.000
 RMSDP=6.93D-06 MaxDP=1.37D-04 DE=-5.46D-06 OVMax= 1.91D-04

 Cycle   9  Pass 1  IDiag  1:
 E= -706.379508528615     Delta-E=       -0.000000236658 Rises=F Damp=F
 DIIS: error= 1.92D-05 at cycle   9 NSaved=   9.
 NSaved= 9 IEnMin= 9 EnMin= -706.379508528615     IErMin= 9 ErrMin= 1.92D-05
 ErrMax= 1.92D-05  0.00D+00 EMaxC= 1.00D-01 BMatC= 8.59D-08 BMatP= 3.56D-07
 IDIUse=1 WtCom= 1.00D+00 WtEn= 0.00D+00
 Coeff-Com:  0.241D-03-0.369D-03-0.227D-03-0.276D-02-0.264D-02-0.140D-02
 Coeff-Com:  0.308D-01 0.421D+00 0.555D+00
 Coeff:      0.241D-03-0.369D-03-0.227D-03-0.276D-02-0.264D-02-0.140D-02
 Coeff:      0.308D-01 0.421D+00 0.555D+00
 Gap=     0.166 Goal=   None    Shift=    0.000
 RMSDP=3.91D-06 MaxDP=1.02D-04 DE=-2.37D-07 OVMax= 1.48D-04

 Cycle  10  Pass 1  IDiag  1:
 E= -706.379508622912     Delta-E=       -0.000000094296 Rises=F Damp=F
 DIIS: error= 2.97D-06 at cycle  10 NSaved=  10.
 NSaved=10 IEnMin=10 EnMin= -706.379508622912     IErMin=10 ErrMin= 2.97D-06
 ErrMax= 2.97D-06  0.00D+00 EMaxC= 1.00D-01 BMatC= 2.91D-09 BMatP= 8.59D-08
 IDIUse=1 WtCom= 1.00D+00 WtEn= 0.00D+00
 Coeff-Com:  0.470D-04-0.420D-04-0.690D-04-0.549D-03-0.147D-02-0.406D-02
 Coeff-Com: -0.126D-01 0.608D-01 0.195D+00 0.763D+00
 Coeff:      0.470D-04-0.420D-04-0.690D-04-0.549D-03-0.147D-02-0.406D-02
 Coeff:     -0.126D-01 0.608D-01 0.195D+00 0.763D+00
 Gap=     0.166 Goal=   None    Shift=    0.000
 RMSDP=8.01D-07 MaxDP=1.92D-05 DE=-9.43D-08 OVMax= 1.49D-05

 Cycle  11  Pass 1  IDiag  1:
 E= -706.379508625838     Delta-E=       -0.000000002927 Rises=F Damp=F
 DIIS: error= 6.68D-07 at cycle  11 NSaved=  11.
 NSaved=11 IEnMin=11 EnMin= -706.379508625838     IErMin=11 ErrMin= 6.68D-07
 ErrMax= 6.68D-07  0.00D+00 EMaxC= 1.00D-01 BMatC= 1.32D-10 BMatP= 2.91D-09
 IDIUse=1 WtCom= 1.00D+00 WtEn= 0.00D+00
 Coeff-Com:  0.630D-05 0.471D-05-0.123D-04-0.873D-04-0.469D-03-0.162D-02
 Coeff-Com: -0.698D-02-0.147D-03 0.488D-01 0.290D+00 0.671D+00
 Coeff:      0.630D-05 0.471D-05-0.123D-04-0.873D-04-0.469D-03-0.162D-02
 Coeff:     -0.698D-02-0.147D-03 0.488D-01 0.290D+00 0.671D+00
 Gap=     0.166 Goal=   None    Shift=    0.000
 RMSDP=2.70D-07 MaxDP=1.50D-05 DE=-2.93D-09 OVMax= 7.12D-06

 Cycle  12  Pass 1  IDiag  1:
 E= -706.379508625974     Delta-E=       -0.000000000135 Rises=F Damp=F
 DIIS: error= 2.30D-07 at cycle  12 NSaved=  12.
 NSaved=12 IEnMin=12 EnMin= -706.379508625974     IErMin=12 ErrMin= 2.30D-07
 ErrMax= 2.30D-07  0.00D+00 EMaxC= 1.00D-01 BMatC= 1.38D-11 BMatP= 1.32D-10
 IDIUse=1 WtCom= 1.00D+00 WtEn= 0.00D+00
 Coeff-Com: -0.141D-05 0.502D-05 0.442D-05 0.134D-04-0.609D-04-0.302D-03
 Coeff-Com: -0.193D-02-0.553D-02 0.413D-02 0.610D-01 0.305D+00 0.638D+00
 Coeff:     -0.141D-05 0.502D-05 0.442D-05 0.134D-04-0.609D-04-0.302D-03
 Coeff:     -0.193D-02-0.553D-02 0.413D-02 0.610D-01 0.305D+00 0.638D+00
 Gap=     0.166 Goal=   None    Shift=    0.000
 RMSDP=5.87D-08 MaxDP=2.24D-06 DE=-1.35D-10 OVMax= 1.23D-06

 Cycle  13  Pass 1  IDiag  1:
 E= -706.379508625991     Delta-E=       -0.000000000017 Rises=F Damp=F
 DIIS: error= 3.77D-08 at cycle  13 NSaved=  13.
 NSaved=13 IEnMin=13 EnMin= -706.379508625991     IErMin=13 ErrMin= 3.77D-08
 ErrMax= 3.77D-08  0.00D+00 EMaxC= 1.00D-01 BMatC= 3.42D-13 BMatP= 1.38D-11
 IDIUse=1 WtCom= 1.00D+00 WtEn= 0.00D+00
 Coeff-Com: -0.904D-06 0.104D-05 0.956D-06 0.393D-05 0.160D-04 0.568D-04
 Coeff-Com:  0.112D-03-0.116D-02-0.349D-02-0.913D-02 0.190D-01 0.126D+00
 Coeff-Com:  0.869D+00
 Coeff:     -0.904D-06 0.104D-05 0.956D-06 0.393D-05 0.160D-04 0.568D-04
 Coeff:      0.112D-03-0.116D-02-0.349D-02-0.913D-02 0.190D-01 0.126D+00
 Coeff:      0.869D+00
 Gap=     0.166 Goal=   None    Shift=    0.000
 RMSDP=1.56D-08 MaxDP=2.44D-07 DE=-1.71D-11 OVMax= 4.90D-07

 Cycle  14  Pass 1  IDiag  1:
 E= -706.379508625993     Delta-E=       -0.000000000002 Rises=F Damp=F
 DIIS: error= 5.00D-09 at cycle  14 NSaved=  14.
 NSaved=14 IEnMin=14 EnMin= -706.379508625993     IErMin=14 ErrMin= 5.00D-09
 ErrMax= 5.00D-09  0.00D+00 EMaxC= 1.00D-01 BMatC= 1.08D-14 BMatP= 3.42D-13
 IDIUse=1 WtCom= 1.00D+00 WtEn= 0.00D+00
 Coeff-Com: -0.138D-06 0.108D-06-0.447D-07 0.171D-06 0.387D-05 0.191D-04
 Coeff-Com:  0.687D-04-0.242D-04-0.769D-03-0.316D-02-0.516D-02-0.190D-02
 Coeff-Com:  0.154D+00 0.857D+00
 Coeff:     -0.138D-06 0.108D-06-0.447D-07 0.171D-06 0.387D-05 0.191D-04
 Coeff:      0.687D-04-0.242D-04-0.769D-03-0.316D-02-0.516D-02-0.190D-02
 Coeff:      0.154D+00 0.857D+00
 Gap=     0.166 Goal=   None    Shift=    0.000
 RMSDP=2.13D-09 MaxDP=4.20D-08 DE=-1.71D-12 OVMax= 6.54D-08

 Error on total polarization charges =  0.02530
 SCF Done:  E(RB3LYP) =  -706.379508626     A.U. after   14 cycles
            NFock= 14  Conv=0.21D-08     -V/T= 2.0060
 KE= 7.021877375216D+02 PE=-2.138418268732D+03 EE= 4.991582383707D+02
 SMD-CDS (non-electrostatic) energy       (kcal/mol) =       0.72
 (included in total energy above)
 Leave Link  502 at Wed Jan  8 00:04:59 2020, MaxMem=  4294967296 cpu:             481.8 elap:              35.9
 (Enter /home/cwagen/sw/g16/g16/l601.exe)
 Copying SCF densities to generalized density rwf, IOpCl= 0 IROHF=0.

 **********************************************************************

            Population analysis using the SCF density.

 **********************************************************************

 Orbital symmetries:
       Occupied  (A) (A) (A) (A) (A) (A) (A) (A) (A) (A) (A) (A)
                 (A) (A) (A) (A) (A) (A) (A) (A) (A) (A) (A) (A)
                 (A) (A) (A)
       Virtual   (A) (A) (A) (A) (A) (A) (A) (A) (A) (A) (A) (A)
                 (A) (A) (A) (A) (A) (A) (A) (A) (A) (A) (A) (A)
                 (A) (A) (A) (A) (A) (A) (A) (A) (A) (A) (A) (A)
                 (A) (A) (A) (A) (A) (A) (A) (A) (A) (A) (A) (A)
                 (A) (A) (A) (A) (A) (A) (A) (A) (A) (A) (A) (A)
                 (A) (A) (A) (A) (A) (A) (A) (A) (A) (A) (A) (A)
                 (A) (A) (A) (A) (A) (A) (A) (A) (A) (A) (A) (A)
                 (A) (A) (A) (A) (A) (A) (A) (A) (A) (A) (A) (A)
                 (A)
 The electronic state is 1-A.
 Alpha  occ. eigenvalues -- -101.53181 -19.16356 -14.26796 -10.34110 -10.19474
 Alpha  occ. eigenvalues --  -10.13720  -9.44725  -7.21053  -7.20218  -7.20144
 Alpha  occ. eigenvalues --   -1.01639  -0.82942  -0.81386  -0.72297  -0.54283
 Alpha  occ. eigenvalues --   -0.44825  -0.43268  -0.42756  -0.38230  -0.36376
 Alpha  occ. eigenvalues --   -0.34845  -0.30205  -0.30021  -0.27653  -0.27613
 Alpha  occ. eigenvalues --   -0.26966  -0.24280
 Alpha virt. eigenvalues --   -0.07717   0.01490   0.03321   0.04841   0.05339
 Alpha virt. eigenvalues --    0.05824   0.07656   0.08476   0.08724   0.09623
 Alpha virt. eigenvalues --    0.10761   0.11073   0.11471   0.12861   0.13318
 Alpha virt. eigenvalues --    0.14083   0.15395   0.16090   0.17974   0.21119
 Alpha virt. eigenvalues --    0.22028   0.23748   0.24447   0.25244   0.25904
 Alpha virt. eigenvalues --    0.26511   0.27677   0.28369   0.31105   0.33369
 Alpha virt. eigenvalues --    0.34229   0.38284   0.40666   0.55154   0.57709
 Alpha virt. eigenvalues --    0.63196   0.63783   0.65268   0.66617   0.68718
 Alpha virt. eigenvalues --    0.71173   0.71983   0.74078   0.77926   0.78712
 Alpha virt. eigenvalues --    0.81019   0.85680   0.89572   0.90510   0.94243
 Alpha virt. eigenvalues --    0.97374   1.00179   1.01109   1.01554   1.02920
 Alpha virt. eigenvalues --    1.05290   1.09882   1.15251   1.18916   1.21132
 Alpha virt. eigenvalues --    1.28985   1.29559   1.31633   1.34247   1.48253
 Alpha virt. eigenvalues --    1.51606   1.58144   1.60247   1.60363   1.61369
 Alpha virt. eigenvalues --    1.63875   1.68314   1.76859   1.80172   1.85864
 Alpha virt. eigenvalues --    1.89820   1.97005   2.03142   2.03218   2.14339
 Alpha virt. eigenvalues --    2.19318   2.24844   2.28880   2.48387   2.50650
 Alpha virt. eigenvalues --    2.54142   2.66962   2.67092   2.71650   2.95797
 Alpha virt. eigenvalues --    3.09658   4.00693   4.14444   4.23022   4.29934
 Alpha virt. eigenvalues --    4.34780   4.43808
          Condensed to atoms (all electrons):
               1          2          3          4          5          6
     1  C    5.979048   0.421139  -0.338617  -0.073124   0.009216  -0.073552
     2  O    0.421139   8.134037  -0.094860   0.008698  -0.012711  -0.000715
     3  C   -0.338617  -0.094860   6.002892   0.383938   0.350126   0.400776
     4  H   -0.073124   0.008698   0.383938   0.468541  -0.027563  -0.022107
     5  H    0.009216  -0.012711   0.350126  -0.027563   0.452121  -0.022853
     6  H   -0.073552  -0.000715   0.400776  -0.022107  -0.022853   0.451078
     7  Cl  -0.264493  -0.089957   0.093805   0.012731  -0.014056   0.010244
     8  C    0.354511  -0.052744  -0.230798   0.001830   0.001798  -0.000362
     9  N   -0.015980   0.000005   0.004322  -0.000130  -0.000008  -0.000025
               7          8          9
     1  C   -0.264493   0.354511  -0.015980
     2  O   -0.089957  -0.052744   0.000005
     3  C    0.093805  -0.230798   0.004322
     4  H    0.012731   0.001830  -0.000130
     5  H   -0.014056   0.001798  -0.000008
     6  H    0.010244  -0.000362  -0.000025
     7  Cl  17.369314  -0.068237  -0.001199
     8  C   -0.068237   5.551319   0.640502
     9  N   -0.001199   0.640502   7.012542
 Mulliken charges:
               1
     1  C    0.001852
     2  O   -0.312894
     3  C   -0.571584
     4  H    0.247187
     5  H    0.263930
     6  H    0.257515
     7  Cl  -0.048152
     8  C   -0.197821
     9  N   -0.640031
 Sum of Mulliken charges =  -1.00000
 Mulliken charges with hydrogens summed into heavy atoms:
               1
     1  C    0.001852
     2  O   -0.312894
     3  C    0.197047
     7  Cl  -0.048152
     8  C   -0.197821
     9  N   -0.640031
 Electronic spatial extent (au):  <R**2>=            981.8439
 Charge=             -1.0000 electrons
 Dipole moment (field-independent basis, Debye):
    X=            -10.6990    Y=              2.9438    Z=             -2.9451  Tot=             11.4808
 Quadrupole moment (field-independent basis, Debye-Ang):
   XX=            -86.2693   YY=            -46.3700   ZZ=            -49.0146
   XY=              2.8490   XZ=              2.7293   YZ=             -4.1549
 Traceless Quadrupole moment (field-independent basis, Debye-Ang):
   XX=            -25.7180   YY=             14.1813   ZZ=             11.5367
   XY=              2.8490   XZ=              2.7293   YZ=             -4.1549
 Octapole moment (field-independent basis, Debye-Ang**2):
  XXX=           -165.9958  YYY=              7.1762  ZZZ=             -5.3965  XYY=            -12.5948
  XXY=             20.1397  XXZ=              0.6211  XZZ=             -7.9560  YZZ=             -1.2302
  YYZ=             -4.2211  XYZ=              2.1755
 Hexadecapole moment (field-independent basis, Debye-Ang**3):
 XXXX=          -1442.0472 YYYY=           -305.4887 ZZZZ=           -185.0273 XXXY=             63.2780
 XXXZ=              7.0713 YYYX=             13.6226 YYYZ=             -4.1040 ZZZX=              4.8467
 ZZZY=             -4.3519 XXYY=           -214.9872 XXZZ=           -193.0969 YYZZ=            -86.2199
 XXYZ=             -1.4868 YYXZ=              4.0888 ZZXY=              4.2488
 N-N= 2.306927842139D+02 E-N=-2.138418268793D+03  KE= 7.021877375216D+02
 No NMR shielding tensors so no spin-rotation constants.
 Leave Link  601 at Wed Jan  8 00:05:00 2020, MaxMem=  4294967296 cpu:              12.0 elap:               0.9
 (Enter /home/cwagen/sw/g16/g16/l701.exe)
 ... and contract with generalized density number  0.
 Compute integral first derivatives.
 D1PCM: PCM CHGder 1st derivatives, ID1Alg=3 FixD1E=F DoIter=F DoCFld=F I1PDM=0.
 GePol: Maximum number of non-zero 1st derivatives   =     358
 Leave Link  701 at Wed Jan  8 00:05:04 2020, MaxMem=  4294967296 cpu:              52.2 elap:               4.1
 (Enter /home/cwagen/sw/g16/g16/l702.exe)
 L702 exits ... SP integral derivatives will be done elsewhere.
 Leave Link  702 at Wed Jan  8 00:05:05 2020, MaxMem=  4294967296 cpu:               0.8 elap:               0.1
 (Enter /home/cwagen/sw/g16/g16/l703.exe)
 Integral derivatives from FoFJK, PRISM(SPDF).
 Compute integral first derivatives, UseDBF=F ICtDFT=           0.
 Calling FoFJK, ICntrl=      2127 FMM=F ISym2X=0 I1Cent= 0 IOpClX= 0 NMat=1 NMatS=1 NMatT=0.
 FoFJK:  IHMeth= 1 ICntrl=    2127 DoSepK=F KAlg= 0 I1Cent=           0 FoldK=F
 IRaf=         0 NMat=       1 IRICut=       1 DoRegI=T DoRafI=F ISym2E= 0 IDoP0=0 IntGTp=1.
 FoFCou: FMM=F IPFlag=           0 FMFlag=      100000 FMFlg1=         800
         NFxFlg=           0 DoJE=F BraDBF=F KetDBF=F FulRan=T
         wScrn=  0.000000 ICntrl=      2127 IOpCl=  0 I1Cent=           0 NGrid=           0
         NMat0=    1 NMatS0=      1 NMatT0=    0 NMatD0=    1 NMtDS0=    0 NMtDT0=    0
 Symmetry not used in FoFCou.
 Leave Link  703 at Wed Jan  8 00:05:07 2020, MaxMem=  4294967296 cpu:              32.1 elap:               2.3
 (Enter /home/cwagen/sw/g16/g16/l716.exe)
 Dipole        =-4.20931635D+00 1.15817388D+00-1.15870779D+00
 ***** Axes restored to original set *****
 -------------------------------------------------------------------
 Center     Atomic                   Forces (Hartrees/Bohr)
 Number     Number              X              Y              Z
 -------------------------------------------------------------------
      1        6          -0.059235890   -0.074813625   -0.100475260
      2        8           0.024166352    0.052484482    0.103235511
      3        6           0.020861038    0.019399811    0.006780238
      4        1           0.000052123    0.000357256   -0.003242960
      5        1           0.000763588    0.005089952   -0.002962413
      6        1           0.000317975    0.002169252   -0.000932535
      7       17           0.019632673   -0.002711404   -0.002472911
      8        6          -0.026502113   -0.007037039   -0.000432306
      9        7           0.019944255    0.005061314    0.000502636
 -------------------------------------------------------------------
 Cartesian Forces:  Max     0.103235511 RMS     0.036352782
 Leave Link  716 at Wed Jan  8 00:05:07 2020, MaxMem=  4294967296 cpu:               0.9 elap:               0.1
 (Enter /home/cwagen/sw/g16/g16/l103.exe)

 GradGradGradGradGradGradGradGradGradGradGradGradGradGradGradGradGradGrad
 Berny optimization.
 FormGI is forming the generalized inverse of G from B-inverse, IUseBI=4.
 Internal  Forces:  Max     0.114999788 RMS     0.024141816
 Search for a local minimum.
 Step number   1 out of a maximum of   41
 All quantities printed in internal units (Hartrees-Bohrs-Radians)
 RMS Force = .24785D-01 SwitMx=.10000D-02 MixMth= 1
 Mixed Optimization -- RFO/linear search
 Second derivative matrix not updated -- first step.
 ITU=  0
     Eigenvalues ---    0.00230   0.04746   0.04746   0.05330   0.05908
     Eigenvalues ---    0.07453   0.10176   0.16000   0.16000   0.16000
     Eigenvalues ---    0.25000   0.25000   0.25000   0.26946   0.33918
     Eigenvalues ---    0.33999   0.34275   0.67840   1.220341000.00000
     Eigenvalues --- 1000.000001000.000001000.000001000.000001000.00000
     Eigenvalues --- 1000.000001000.000001000.000001000.000001000.00000
     Eigenvalues --- 1000.00000
 RFO step:  Lambda=-4.03559850D-02 EMin= 2.30000000D-03
 Linear search not attempted -- first point.
 Maximum step size (   0.300) exceeded in Quadratic search.
    -- Step size scaled by   0.997
 Iteration  1 RMS(Cart)=  0.08447448 RMS(Int)=  0.00943251
 Iteration  2 RMS(Cart)=  0.00897341 RMS(Int)=  0.00544632
 Iteration  3 RMS(Cart)=  0.00007364 RMS(Int)=  0.00544590
 Iteration  4 RMS(Cart)=  0.00000145 RMS(Int)=  0.00544590
 Iteration  5 RMS(Cart)=  0.00000002 RMS(Int)=  0.00544590
 Iteration  1 RMS(Cart)=  0.00000000 RMS(Int)=  0.00000000
 ITry= 1 IFail=0 DXMaxC= 1.70D-01 DCOld= 1.00D+10 DXMaxT= 3.00D-01 DXLimC= 3.00D+00 Rises=F
 Variable       Old X    -DE/DX   Delta X   Delta X   Delta X     New X
                                 (Linear)    (Quad)   (Total)
    R1        2.45227  -0.11500   0.00000  -0.15944  -0.15944   2.29283
    R2        2.94503  -0.02235   0.00000  -0.07190  -0.07190   2.87313
    R3        3.59048  -0.01443   0.00000   0.00000   0.00000   3.59048
    R4        5.29123  -0.00669   0.00000   0.00000   0.00000   5.29123
    R5        2.07331  -0.00297   0.00000  -0.00778  -0.00778   2.06553
    R6        2.07468  -0.00236   0.00000  -0.00619  -0.00619   2.06850
    R7        2.06868  -0.00112   0.00000  -0.00292  -0.00292   2.06576
    R8        2.20923   0.02059   0.00000   0.01628   0.01628   2.22551
    A1        1.99667   0.04034   0.00000   0.16364   0.15132   2.14799
    A2        2.01908  -0.01511   0.00000   0.00884  -0.00918   2.00990
    A3        1.89239  -0.01445   0.00000  -0.08527  -0.07723   1.81516
    A4        1.92419   0.01055   0.00000   0.05870   0.04372   1.96791
    A5        1.77194  -0.01642   0.00000  -0.09821  -0.09270   1.67924
    A6        1.83479  -0.01113   0.00000  -0.09419  -0.09238   1.74241
    A7        1.97398  -0.00025   0.00000  -0.00128  -0.00136   1.97261
    A8        1.87942  -0.00733   0.00000  -0.03789  -0.03808   1.84134
    A9        1.90140  -0.00146   0.00000  -0.00577  -0.00585   1.89554
   A10        1.90356   0.00349   0.00000   0.01461   0.01442   1.91799
   A11        1.90837   0.00153   0.00000   0.01014   0.01015   1.91852
   A12        1.89554   0.00413   0.00000   0.02069   0.02049   1.91604
   A13        3.09109   0.00018   0.00000   0.00205   0.00205   3.09314
   A14        2.85938  -0.00001   0.00000  -0.00008  -0.00008   2.85929
    D1        3.04510  -0.01103   0.00000  -0.09964  -0.10475   2.94035
    D2       -1.13357  -0.01182   0.00000  -0.10805  -0.11312  -1.24669
    D3        0.91915  -0.01177   0.00000  -0.10760  -0.11260   0.80655
    D4       -0.92685   0.01431   0.00000   0.11847   0.12187  -0.80498
    D5        1.17766   0.01351   0.00000   0.11005   0.11350   1.29117
    D6       -3.05280   0.01356   0.00000   0.11051   0.11402  -2.93878
    D7        1.01121  -0.00219   0.00000  -0.01287  -0.01132   0.99989
    D8        3.11572  -0.00298   0.00000  -0.02129  -0.01969   3.09603
    D9       -1.11475  -0.00293   0.00000  -0.02083  -0.01917  -1.13392
         Item               Value     Threshold  Converged?
 Maximum Force            0.115000     0.000450     NO 
 RMS     Force            0.024785     0.000300     NO 
 Maximum Displacement     0.170282     0.001800     NO 
 RMS     Displacement     0.084181     0.001200     NO 
 Predicted change in Energy=-2.414584D-02
 Lowest energy point so far.  Saving SCF results.
 GradGradGradGradGradGradGradGradGradGradGradGradGradGradGradGradGradGrad

 Leave Link  103 at Wed Jan  8 00:05:11 2020, MaxMem=  4294967296 cpu:              63.2 elap:               4.3
 (Enter /home/cwagen/sw/g16/g16/l202.exe)
                          Input orientation:                          
 ---------------------------------------------------------------------
 Center     Atomic      Atomic             Coordinates (Angstroms)
 Number     Number       Type             X           Y           Z
 ---------------------------------------------------------------------
      1          6           0       -0.271757   -0.358556   -0.247759
      2          8           0       -0.241872   -0.593486   -1.437736
      3          6           0       -0.300677   -1.447889    0.812482
      4          1           0       -0.124560   -1.066913    1.821718
      5          1           0       -1.300071   -1.890057    0.750427
      6          1           0        0.452540   -2.199235    0.561235
      7         17           0       -1.276718    1.175925    0.247640
      8          6           0        2.311569    0.555593    0.327359
      9          7           0        3.453086    0.841252    0.375184
 ---------------------------------------------------------------------
                    Distance matrix (angstroms):
                    1          2          3          4          5
     1  C    0.000000
     2  O    1.213314   0.000000
     3  C    1.520393   2.407685   0.000000
     4  H    2.192299   3.295745   1.093031   0.000000
     5  H    2.097451   2.754803   1.094601   1.790826   0.000000
     6  H    2.137095   2.656412   1.093151   1.789976   1.789701
     7  Cl   1.900000   2.653717   2.855890   2.972459   3.107023
     8  C    2.800000   3.309985   3.327629   3.286390   4.382252
     9  N    3.962581   4.358654   4.418386   4.305009   5.494848
                    6          7          8          9
     6  H    0.000000
     7  Cl   3.805309   0.000000
     8  C    3.331631   3.642385   0.000000
     9  N    4.275798   4.743345   1.177688   0.000000
 Stoichiometry    C3H3ClNO(1-)
 Framework group  C1[X(C3H3ClNO)]
 Deg. of freedom    21
 Full point group                 C1      NOp   1
 RotChk:  IX=0 Diff= 6.00D-02
 Largest Abelian subgroup         C1      NOp   1
 Largest concise Abelian subgroup C1      NOp   1
                         Standard orientation:                         
 ---------------------------------------------------------------------
 Center     Atomic      Atomic             Coordinates (Angstroms)
 Number     Number       Type             X           Y           Z
 ---------------------------------------------------------------------
      1          6           0       -0.520880    0.506354    0.234975
      2          8           0       -0.594777    0.857461    1.394023
      3          6           0       -0.557908    1.481200   -0.931173
      4          1           0       -0.280822    1.020175   -1.882697
      5          1           0       -1.590417    1.841518   -0.978586
      6          1           0        0.114866    2.314180   -0.710947
      7         17           0       -1.365806   -1.148191   -0.163246
      8          6           0        2.160090   -0.238413   -0.077632
      9          7           0        3.320783   -0.430165   -0.023112
 ---------------------------------------------------------------------
 Rotational constants (GHZ):           3.4144982           1.4929592           1.2905488
 Leave Link  202 at Wed Jan  8 00:05:11 2020, MaxMem=  4294967296 cpu:               1.2 elap:               0.1
 (Enter /home/cwagen/sw/g16/g16/l301.exe)
 Standard basis: 6-31+G(d) (6D, 7F)
 Ernie: Thresh=  0.10000D-02 Tol=  0.10000D-05 Strict=F.
 There are   124 symmetry adapted cartesian basis functions of A   symmetry.
 There are   124 symmetry adapted basis functions of A   symmetry.
   124 basis functions,   228 primitive gaussians,   124 cartesian basis functions
    27 alpha electrons       27 beta electrons
       nuclear repulsion energy       234.8398036626 Hartrees.
 IExCor=  402 DFT=T Ex+Corr=B3LYP ExCW=0 ScaHFX=  0.200000
 ScaDFX=  0.800000  0.720000  1.000000  0.810000 ScalE2=  1.000000  1.000000
 IRadAn=      5 IRanWt=     -1 IRanGd=            0 ICorTp=0 IEmpDi=  4
 NAtoms=    9 NActive=    9 NUniq=    9 SFac= 1.00D+00 NAtFMM=   60 NAOKFM=F Big=F
 Integral buffers will be    131072 words long.
 Raffenetti 2 integral format.
 Two-electron integral symmetry is turned on.
 ------------------------------------------------------------------------------
 Polarizable Continuum Model (PCM)
 =================================
 Model                : PCM.
 Atomic radii         : SMD-Coulomb.
 Polarization charges : Total charges.
 Charge compensation  : None.
 Solution method      : On-the-fly selection.
 Cavity type          : VdW (van der Waals Surface) (Alpha=1.000).
 Cavity algorithm     : GePol (No added spheres)
                        Default sphere list used, NSphG=    9.
                        Lebedev-Laikov grids with approx.  5.0 points / Ang**2.
                        Smoothing algorithm: York/Karplus (Gamma=1.0000).
                        Polarization charges: spherical gaussians, with
                                              point-specific exponents (IZeta= 3).
                        Self-potential: point-specific (ISelfS= 7).
                        Self-field    : sphere-specific E.n sum rule (ISelfD= 2).
 1st derivatives      : Analytical E(r).r(x)/FMM algorithm (CHGder, D1EAlg=3).
                        Cavity 1st derivative terms included.
 Solvent              : TetraHydroFuran, Eps=   7.425700 Eps(inf)=   1.974025
 ------------------------------------------------------------------------------
 Spheres list:
 ISph  on   Nord     Re0    Alpha      Xe            Ye            Ze
    1   C      1    1.8500  1.000     -0.520880      0.506354      0.234975
    2   O      2    2.2940  1.000     -0.594777      0.857461      1.394023
    3   C      3    1.8500  1.000     -0.557908      1.481200     -0.931173
    4   H      4    1.2000  1.000     -0.280822      1.020175     -1.882697
    5   H      5    1.2000  1.000     -1.590417      1.841518     -0.978586
    6   H      6    1.2000  1.000      0.114866      2.314180     -0.710947
    7  Cl      7    2.3800  1.000     -1.365806     -1.148191     -0.163246
    8   C      8    1.8500  1.000      2.160090     -0.238413     -0.077632
    9   N      9    1.8900  1.000      3.320783     -0.430165     -0.023112
 ------------------------------------------------------------------------------
 GePol: Number of generator spheres                  =       9
 GePol: Total number of spheres                      =       9
 GePol: Number of exposed spheres                    =       9 (100.00%)
 GePol: Number of points                             =    1242
 GePol: Average weight of points                     =       0.14
 GePol: Minimum weight of points                     =   0.99D-07
 GePol: Maximum weight of points                     =    0.18138
 GePol: Number of points with low weight             =      34
 GePol: Fraction of low-weight points (<1% of avg)   =       2.74%
 GePol: Cavity surface area                          =    168.112 Ang**2
 GePol: Cavity volume                                =    150.449 Ang**3
 ------------------------------------------------------------------------------
 Atomic radii for non-electrostatic terms: SMD-CDS.
 ------------------------------------------------------------------------------
 PCM non-electrostatic energy =         0.0009714855 Hartrees.
 Nuclear repulsion after PCM non-electrostatic terms =      234.8407751482 Hartrees.
 Leave Link  301 at Wed Jan  8 00:05:12 2020, MaxMem=  4294967296 cpu:               2.2 elap:               0.2
 (Enter /home/cwagen/sw/g16/g16/l302.exe)
 NPDir=0 NMtPBC=     1 NCelOv=     1 NCel=       1 NClECP=     1 NCelD=      1
         NCelK=      1 NCelE2=     1 NClLst=     1 CellRange=     0.0.
 One-electron integrals computed using PRISM.
 One-electron integral symmetry used in STVInt
 NBasis=   124 RedAO= T EigKep=  9.70D-05  NBF=   124
 NBsUse=   124 1.00D-06 EigRej= -1.00D+00 NBFU=   124
 Precomputing XC quadrature grid using
 IXCGrd= 4 IRadAn=           5 IRanWt=          -1 IRanGd=           0 AccXCQ= 0.00D+00.
 Generated NRdTot=       0 NPtTot=           0 NUsed=           0 NTot=          32
 NSgBfM=   124   124   124   124   124 MxSgAt=     9 MxSgA2=     9.
 Leave Link  302 at Wed Jan  8 00:05:13 2020, MaxMem=  4294967296 cpu:              22.5 elap:               1.6
 (Enter /home/cwagen/sw/g16/g16/l303.exe)
 DipDrv:  MaxL=1.
 Leave Link  303 at Wed Jan  8 00:05:14 2020, MaxMem=  4294967296 cpu:               3.7 elap:               0.3
 (Enter /home/cwagen/sw/g16/g16/l401.exe)
 Initial guess from the checkpoint file:  "/scratch/users/cwagen/cwagen_scan_190_280/Gau-28665.chk"
 B after Tr=     0.000000    0.000000    0.000000
         Rot=    0.999828   -0.017417    0.004795    0.004269 Ang=  -2.13 deg.
 Guess basis will be translated and rotated to current coordinates.
 JPrj=2 DoOrth=T DoCkMO=T.
 Generating alternative initial guess.
 ExpMin= 4.38D-02 ExpMax= 2.52D+04 ExpMxC= 3.78D+03 IAcc=2 IRadAn=         4 AccDes= 0.00D+00
 Harris functional with IExCor=  402 and IRadAn=       4 diagonalized for initial guess.
 HarFok:  IExCor=  402 AccDes= 0.00D+00 IRadAn=         4 IDoV= 1 UseB2=F ITyADJ=14
 ICtDFT=  3500011 ScaDFX=  1.000000  1.000000  1.000000  1.000000
 FoFCou: FMM=F IPFlag=           0 FMFlag=      100000 FMFlg1=           0
         NFxFlg=           0 DoJE=T BraDBF=F KetDBF=T FulRan=T
         wScrn=  0.000000 ICntrl=       500 IOpCl=  0 I1Cent=   200000004 NGrid=           0
         NMat0=    1 NMatS0=      1 NMatT0=    0 NMatD0=    1 NMtDS0=    0 NMtDT0=    0
 Petite list used in FoFCou.
 Harris En= -706.419459643060    
 Leave Link  401 at Wed Jan  8 00:05:16 2020, MaxMem=  4294967296 cpu:              33.3 elap:               2.3
 (Enter /home/cwagen/sw/g16/g16/l502.exe)
 Keep R1 ints in memory in canonical form, NReq=45236517.
 FoFCou: FMM=F IPFlag=           0 FMFlag=           0 FMFlg1=           0
         NFxFlg=           0 DoJE=F BraDBF=F KetDBF=F FulRan=T
         wScrn=  0.000000 ICntrl=       600 IOpCl=  0 I1Cent=           0 NGrid=           0
         NMat0=    1 NMatS0=   7750 NMatT0=    0 NMatD0=    1 NMtDS0=    0 NMtDT0=    0
 Symmetry not used in FoFCou.
 Two-electron integral symmetry not used.
 Closed shell SCF:
 Using DIIS extrapolation, IDIIS=  1040.
 NGot=  4294967296 LenX=  4264898079 LenY=  4264882262
 Requested convergence on RMS density matrix=1.00D-08 within 128 cycles.
 Requested convergence on MAX density matrix=1.00D-06.
 Requested convergence on             energy=1.00D-06.
 No special actions if energy rises.

 Cycle   1  Pass 1  IDiag  1:
 Inv3:  Mode=1 IEnd=     4627692.
 Iteration    1 A*A^-1 deviation from unit magnitude is 4.44D-15 for   1240.
 Iteration    1 A*A^-1 deviation from orthogonality  is 1.73D-15 for   1240   1100.
 Iteration    1 A^-1*A deviation from unit magnitude is 4.44D-15 for   1240.
 Iteration    1 A^-1*A deviation from orthogonality  is 1.60D-15 for   1240   1100.
 E= -706.388852215259    
 DIIS: error= 6.24D-03 at cycle   1 NSaved=   1.
 NSaved= 1 IEnMin= 1 EnMin= -706.388852215259     IErMin= 1 ErrMin= 6.24D-03
 ErrMax= 6.24D-03  0.00D+00 EMaxC= 1.00D-01 BMatC= 1.13D-02 BMatP= 1.13D-02
 IDIUse=3 WtCom= 9.38D-01 WtEn= 6.24D-02
 Coeff-Com:  0.100D+01
 Coeff-En:   0.100D+01
 Coeff:      0.100D+01
 Gap=     0.585 Goal=   None    Shift=    0.000
 GapD=    0.585 DampG=2.000 DampE=1.000 DampFc=2.0000 IDamp=-1.
 RMSDP=5.11D-03 MaxDP=3.34D-01              OVMax= 4.85D-02

 Cycle   2  Pass 1  IDiag  1:
 E= -706.407085413214     Delta-E=       -0.018233197955 Rises=F Damp=F
 DIIS: error= 1.56D-03 at cycle   2 NSaved=   2.
 NSaved= 2 IEnMin= 2 EnMin= -706.407085413214     IErMin= 2 ErrMin= 1.56D-03
 ErrMax= 1.56D-03  0.00D+00 EMaxC= 1.00D-01 BMatC= 9.97D-04 BMatP= 1.13D-02
 IDIUse=3 WtCom= 9.84D-01 WtEn= 1.56D-02
 Coeff-Com:  0.103D+00 0.897D+00
 Coeff-En:   0.000D+00 0.100D+01
 Coeff:      0.102D+00 0.898D+00
 Gap=     0.204 Goal=   None    Shift=    0.000
 RMSDP=8.94D-04 MaxDP=4.04D-02 DE=-1.82D-02 OVMax= 2.47D-02

 Cycle   3  Pass 1  IDiag  1:
 E= -706.406607711988     Delta-E=        0.000477701226 Rises=F Damp=F
 DIIS: error= 2.36D-03 at cycle   3 NSaved=   3.
 NSaved= 3 IEnMin= 2 EnMin= -706.407085413214     IErMin= 2 ErrMin= 1.56D-03
 ErrMax= 2.36D-03  0.00D+00 EMaxC= 1.00D-01 BMatC= 1.61D-03 BMatP= 9.97D-04
 IDIUse=3 WtCom= 1.71D-01 WtEn= 8.29D-01
 Coeff-Com: -0.214D-01 0.570D+00 0.452D+00
 Coeff-En:   0.000D+00 0.587D+00 0.413D+00
 Coeff:     -0.366D-02 0.584D+00 0.420D+00
 Gap=     0.195 Goal=   None    Shift=    0.000
 RMSDP=5.63D-04 MaxDP=2.55D-02 DE= 4.78D-04 OVMax= 1.24D-02

 Cycle   4  Pass 1  IDiag  1:
 E= -706.408034805052     Delta-E=       -0.001427093064 Rises=F Damp=F
 DIIS: error= 6.82D-04 at cycle   4 NSaved=   4.
 NSaved= 4 IEnMin= 4 EnMin= -706.408034805052     IErMin= 4 ErrMin= 6.82D-04
 ErrMax= 6.82D-04  0.00D+00 EMaxC= 1.00D-01 BMatC= 1.24D-04 BMatP= 9.97D-04
 IDIUse=3 WtCom= 9.93D-01 WtEn= 6.82D-03
 Coeff-Com: -0.232D-01 0.276D+00 0.274D+00 0.474D+00
 Coeff-En:   0.000D+00 0.000D+00 0.000D+00 0.100D+01
 Coeff:     -0.231D-01 0.274D+00 0.272D+00 0.477D+00
 Gap=     0.192 Goal=   None    Shift=    0.000
 RMSDP=1.18D-04 MaxDP=2.10D-03 DE=-1.43D-03 OVMax= 2.93D-03

 Cycle   5  Pass 1  IDiag  1:
 E= -706.408129622075     Delta-E=       -0.000094817023 Rises=F Damp=F
 DIIS: error= 1.84D-04 at cycle   5 NSaved=   5.
 NSaved= 5 IEnMin= 5 EnMin= -706.408129622075     IErMin= 5 ErrMin= 1.84D-04
 ErrMax= 1.84D-04  0.00D+00 EMaxC= 1.00D-01 BMatC= 1.26D-05 BMatP= 1.24D-04
 IDIUse=3 WtCom= 9.98D-01 WtEn= 1.84D-03
 Coeff-Com: -0.809D-02 0.772D-01 0.981D-01 0.278D+00 0.555D+00
 Coeff-En:   0.000D+00 0.000D+00 0.000D+00 0.708D-01 0.929D+00
 Coeff:     -0.807D-02 0.771D-01 0.979D-01 0.277D+00 0.556D+00
 Gap=     0.193 Goal=   None    Shift=    0.000
 RMSDP=4.59D-05 MaxDP=9.42D-04 DE=-9.48D-05 OVMax= 9.67D-04

 Cycle   6  Pass 1  IDiag  1:
 E= -706.408142125162     Delta-E=       -0.000012503087 Rises=F Damp=F
 DIIS: error= 5.21D-05 at cycle   6 NSaved=   6.
 NSaved= 6 IEnMin= 6 EnMin= -706.408142125162     IErMin= 6 ErrMin= 5.21D-05
 ErrMax= 5.21D-05  0.00D+00 EMaxC= 1.00D-01 BMatC= 4.89D-07 BMatP= 1.26D-05
 IDIUse=1 WtCom= 1.00D+00 WtEn= 0.00D+00
 Coeff-Com: -0.150D-02 0.796D-02 0.174D-01 0.789D-01 0.234D+00 0.664D+00
 Coeff:     -0.150D-02 0.796D-02 0.174D-01 0.789D-01 0.234D+00 0.664D+00
 Gap=     0.193 Goal=   None    Shift=    0.000
 RMSDP=1.68D-05 MaxDP=8.64D-04 DE=-1.25D-05 OVMax= 3.66D-04

 Cycle   7  Pass 1  IDiag  1:
 E= -706.408142668143     Delta-E=       -0.000000542981 Rises=F Damp=F
 DIIS: error= 1.34D-05 at cycle   7 NSaved=   7.
 NSaved= 7 IEnMin= 7 EnMin= -706.408142668143     IErMin= 7 ErrMin= 1.34D-05
 ErrMax= 1.34D-05  0.00D+00 EMaxC= 1.00D-01 BMatC= 4.20D-08 BMatP= 4.89D-07
 IDIUse=1 WtCom= 1.00D+00 WtEn= 0.00D+00
 Coeff-Com:  0.167D-03-0.480D-02-0.309D-02 0.691D-02 0.488D-01 0.277D+00
 Coeff-Com:  0.675D+00
 Coeff:      0.167D-03-0.480D-02-0.309D-02 0.691D-02 0.488D-01 0.277D+00
 Coeff:      0.675D+00
 Gap=     0.193 Goal=   None    Shift=    0.000
 RMSDP=6.09D-06 MaxDP=3.36D-04 DE=-5.43D-07 OVMax= 7.29D-05

 Cycle   8  Pass 1  IDiag  1:
 E= -706.408142717369     Delta-E=       -0.000000049226 Rises=F Damp=F
 DIIS: error= 2.06D-06 at cycle   8 NSaved=   8.
 NSaved= 8 IEnMin= 8 EnMin= -706.408142717369     IErMin= 8 ErrMin= 2.06D-06
 ErrMax= 2.06D-06  0.00D+00 EMaxC= 1.00D-01 BMatC= 1.44D-09 BMatP= 4.20D-08
 IDIUse=1 WtCom= 1.00D+00 WtEn= 0.00D+00
 Coeff-Com:  0.111D-03-0.169D-02-0.199D-02-0.192D-02 0.393D-02 0.460D-01
 Coeff-Com:  0.195D+00 0.761D+00
 Coeff:      0.111D-03-0.169D-02-0.199D-02-0.192D-02 0.393D-02 0.460D-01
 Coeff:      0.195D+00 0.761D+00
 Gap=     0.193 Goal=   None    Shift=    0.000
 RMSDP=1.67D-06 MaxDP=1.07D-04 DE=-4.92D-08 OVMax= 2.09D-05

 Cycle   9  Pass 1  IDiag  1:
 E= -706.408142719064     Delta-E=       -0.000000001695 Rises=F Damp=F
 DIIS: error= 1.21D-06 at cycle   9 NSaved=   9.
 NSaved= 9 IEnMin= 9 EnMin= -706.408142719064     IErMin= 9 ErrMin= 1.21D-06
 ErrMax= 1.21D-06  0.00D+00 EMaxC= 1.00D-01 BMatC= 2.11D-10 BMatP= 1.44D-09
 IDIUse=1 WtCom= 1.00D+00 WtEn= 0.00D+00
 Coeff-Com:  0.466D-04-0.525D-03-0.822D-03-0.132D-02-0.112D-02 0.393D-02
 Coeff-Com:  0.435D-01 0.327D+00 0.629D+00
 Coeff:      0.466D-04-0.525D-03-0.822D-03-0.132D-02-0.112D-02 0.393D-02
 Coeff:      0.435D-01 0.327D+00 0.629D+00
 Gap=     0.193 Goal=   None    Shift=    0.000
 RMSDP=3.32D-07 MaxDP=1.75D-05 DE=-1.69D-09 OVMax= 6.82D-06

 Cycle  10  Pass 1  IDiag  1:
 E= -706.408142719208     Delta-E=       -0.000000000145 Rises=F Damp=F
 DIIS: error= 7.71D-07 at cycle  10 NSaved=  10.
 NSaved=10 IEnMin=10 EnMin= -706.408142719208     IErMin=10 ErrMin= 7.71D-07
 ErrMax= 7.71D-07  0.00D+00 EMaxC= 1.00D-01 BMatC= 1.01D-10 BMatP= 2.11D-10
 IDIUse=1 WtCom= 1.00D+00 WtEn= 0.00D+00
 Coeff-Com:  0.128D-04-0.563D-04-0.243D-03-0.634D-03-0.159D-02-0.537D-02
 Coeff-Com: -0.235D-02 0.117D+00 0.441D+00 0.452D+00
 Coeff:      0.128D-04-0.563D-04-0.243D-03-0.634D-03-0.159D-02-0.537D-02
 Coeff:     -0.235D-02 0.117D+00 0.441D+00 0.452D+00
 Gap=     0.193 Goal=   None    Shift=    0.000
 RMSDP=1.03D-07 MaxDP=4.23D-06 DE=-1.45D-10 OVMax= 3.16D-06

 Cycle  11  Pass 1  IDiag  1:
 E= -706.408142719290     Delta-E=       -0.000000000081 Rises=F Damp=F
 DIIS: error= 1.60D-07 at cycle  11 NSaved=  11.
 NSaved=11 IEnMin=11 EnMin= -706.408142719290     IErMin=11 ErrMin= 1.60D-07
 ErrMax= 1.60D-07  0.00D+00 EMaxC= 1.00D-01 BMatC= 6.13D-12 BMatP= 1.01D-10
 IDIUse=1 WtCom= 1.00D+00 WtEn= 0.00D+00
 Coeff-Com:  0.154D-05 0.260D-04-0.267D-04-0.161D-03-0.617D-03-0.279D-02
 Coeff-Com: -0.590D-02 0.202D-01 0.141D+00 0.256D+00 0.592D+00
 Coeff:      0.154D-05 0.260D-04-0.267D-04-0.161D-03-0.617D-03-0.279D-02
 Coeff:     -0.590D-02 0.202D-01 0.141D+00 0.256D+00 0.592D+00
 Gap=     0.193 Goal=   None    Shift=    0.000
 RMSDP=2.95D-08 MaxDP=9.73D-07 DE=-8.12D-11 OVMax= 5.92D-07

 Cycle  12  Pass 1  IDiag  1:
 E= -706.408142719294     Delta-E=       -0.000000000004 Rises=F Damp=F
 DIIS: error= 2.43D-08 at cycle  12 NSaved=  12.
 NSaved=12 IEnMin=12 EnMin= -706.408142719294     IErMin=12 ErrMin= 2.43D-08
 ErrMax= 2.43D-08  0.00D+00 EMaxC= 1.00D-01 BMatC= 1.23D-13 BMatP= 6.13D-12
 IDIUse=1 WtCom= 1.00D+00 WtEn= 0.00D+00
 Coeff-Com: -0.498D-06 0.111D-04 0.111D-04-0.486D-05-0.834D-04-0.377D-03
 Coeff-Com: -0.159D-02-0.238D-02 0.557D-02 0.482D-01 0.154D+00 0.797D+00
 Coeff:     -0.498D-06 0.111D-04 0.111D-04-0.486D-05-0.834D-04-0.377D-03
 Coeff:     -0.159D-02-0.238D-02 0.557D-02 0.482D-01 0.154D+00 0.797D+00
 Gap=     0.193 Goal=   None    Shift=    0.000
 RMSDP=7.00D-09 MaxDP=1.42D-07 DE=-4.21D-12 OVMax= 1.54D-07

 Error on total polarization charges =  0.02564
 SCF Done:  E(RB3LYP) =  -706.408142719     A.U. after   12 cycles
            NFock= 12  Conv=0.70D-08     -V/T= 2.0056
 KE= 7.024737876397D+02 PE=-2.147009886966D+03 EE= 5.032871814586D+02
 SMD-CDS (non-electrostatic) energy       (kcal/mol) =       0.61
 (included in total energy above)
 Leave Link  502 at Wed Jan  8 00:05:44 2020, MaxMem=  4294967296 cpu:             398.6 elap:              27.9
 (Enter /home/cwagen/sw/g16/g16/l701.exe)
 ... and contract with generalized density number  0.
 Compute integral first derivatives.
 D1PCM: PCM CHGder 1st derivatives, ID1Alg=3 FixD1E=F DoIter=F DoCFld=F I1PDM=0.
 GePol: Maximum number of non-zero 1st derivatives   =     351
 Leave Link  701 at Wed Jan  8 00:05:46 2020, MaxMem=  4294967296 cpu:              22.7 elap:               1.5
 (Enter /home/cwagen/sw/g16/g16/l702.exe)
 L702 exits ... SP integral derivatives will be done elsewhere.
 Leave Link  702 at Wed Jan  8 00:05:46 2020, MaxMem=  4294967296 cpu:               0.8 elap:               0.1
 (Enter /home/cwagen/sw/g16/g16/l703.exe)
 Integral derivatives from FoFJK, PRISM(SPDF).
 Compute integral first derivatives, UseDBF=F ICtDFT=           0.
 Calling FoFJK, ICntrl=      2127 FMM=F ISym2X=0 I1Cent= 0 IOpClX= 0 NMat=1 NMatS=1 NMatT=0.
 FoFJK:  IHMeth= 1 ICntrl=    2127 DoSepK=F KAlg= 0 I1Cent=           0 FoldK=F
 IRaf=         0 NMat=       1 IRICut=       1 DoRegI=T DoRafI=F ISym2E= 0 IDoP0=0 IntGTp=1.
 FoFCou: FMM=F IPFlag=           0 FMFlag=      100000 FMFlg1=         800
         NFxFlg=           0 DoJE=F BraDBF=F KetDBF=F FulRan=T
         wScrn=  0.000000 ICntrl=      2127 IOpCl=  0 I1Cent=           0 NGrid=           0
         NMat0=    1 NMatS0=      1 NMatT0=    0 NMatD0=    1 NMtDS0=    0 NMtDT0=    0
 Symmetry not used in FoFCou.
 Leave Link  703 at Wed Jan  8 00:05:48 2020, MaxMem=  4294967296 cpu:              25.3 elap:               1.6
 (Enter /home/cwagen/sw/g16/g16/l716.exe)
 Dipole        =-4.25156358D+00 1.51135163D+00-1.01357944D+00
 ***** Axes restored to original set *****
 -------------------------------------------------------------------
 Center     Atomic                   Forces (Hartrees/Bohr)
 Number     Number              X              Y              Z
 -------------------------------------------------------------------
      1        6          -0.033097021   -0.025709991   -0.037204831
      2        8           0.013742329    0.014536689    0.031653383
      3        6           0.012974227    0.014316571    0.003209085
      4        1          -0.000684379   -0.000025785   -0.001566190
      5        1          -0.001350966   -0.000139391    0.000319542
      6        1          -0.000422299    0.000073385   -0.000518357
      7       17           0.009900092   -0.002018597    0.003351083
      8        6          -0.004707211   -0.002168981    0.000735081
      9        7           0.003645228    0.001136100    0.000021203
 -------------------------------------------------------------------
 Cartesian Forces:  Max     0.037204831 RMS     0.013726065
 Leave Link  716 at Wed Jan  8 00:05:48 2020, MaxMem=  4294967296 cpu:               0.9 elap:               0.1
 (Enter /home/cwagen/sw/g16/g16/l103.exe)

 GradGradGradGradGradGradGradGradGradGradGradGradGradGradGradGradGradGrad
 Berny optimization.
 Using GEDIIS/GDIIS optimizer.
 FormGI is forming the generalized inverse of G from B-inverse, IUseBI=4.
 Internal  Forces:  Max     0.033504394 RMS     0.008310431
 Search for a local minimum.
 Step number   2 out of a maximum of   41
 All quantities printed in internal units (Hartrees-Bohrs-Radians)
 RMS Force = .85165D-02 SwitMx=.10000D-02 MixMth= 1
 Mixed Optimization -- RFO/linear search
 Update second derivatives using D2CorX and points    1    2
 DE= -2.86D-02 DEPred=-2.41D-02 R= 1.19D+00
 TightC=F SS=  1.41D+00  RLast= 3.99D-01 DXNew= 5.0454D-01 1.1971D+00
 Trust test= 1.19D+00 RLast= 3.99D-01 DXMaxT set to 5.05D-01
 ITU=  1  0
 Use linear search instead of GDIIS.
     Eigenvalues ---    0.00230   0.04739   0.04746   0.04961   0.05406
     Eigenvalues ---    0.06131   0.10274   0.15993   0.16000   0.16147
     Eigenvalues ---    0.22544   0.25000   0.26402   0.26990   0.33956
     Eigenvalues ---    0.33987   0.34276   0.59114   1.219781000.00000
     Eigenvalues --- 1000.000001000.000001000.000001000.000001000.00000
     Eigenvalues --- 1000.000001000.000001000.000001000.000001000.00000
     Eigenvalues --- 1000.00000
 RFO step:  Lambda=-2.61375672D-03 EMin= 2.30007407D-03
 Quartic linear search produced a step of  0.49116.
 Iteration  1 RMS(Cart)=  0.07370967 RMS(Int)=  0.00727705
 Iteration  2 RMS(Cart)=  0.00551243 RMS(Int)=  0.00545449
 Iteration  3 RMS(Cart)=  0.00002582 RMS(Int)=  0.00545445
 Iteration  4 RMS(Cart)=  0.00000037 RMS(Int)=  0.00545445
 Iteration  1 RMS(Cart)=  0.00000000 RMS(Int)=  0.00000000
 ITry= 1 IFail=0 DXMaxC= 1.59D-01 DCOld= 1.00D+10 DXMaxT= 5.05D-01 DXLimC= 3.00D+00 Rises=F
 Variable       Old X    -DE/DX   Delta X   Delta X   Delta X     New X
                                 (Linear)    (Quad)   (Total)
    R1        2.29283  -0.03350  -0.07831   0.00868  -0.06963   2.22320
    R2        2.87313  -0.00938  -0.03532  -0.00767  -0.04299   2.83014
    R3        3.59048  -0.00602   0.00000   0.00000   0.00000   3.59048
    R4        5.29123  -0.00117   0.00000   0.00000   0.00000   5.29123
    R5        2.06553  -0.00156  -0.00382  -0.00230  -0.00613   2.05940
    R6        2.06850   0.00127  -0.00304   0.00918   0.00614   2.07463
    R7        2.06576  -0.00020  -0.00144   0.00081  -0.00063   2.06513
    R8        2.22551   0.00380   0.00799  -0.00330   0.00469   2.23020
    A1        2.14799   0.01685   0.07432   0.02961   0.09034   2.23833
    A2        2.00990  -0.00057  -0.00451   0.05886   0.03777   2.04767
    A3        1.81516  -0.00493  -0.03793  -0.02828  -0.05655   1.75861
    A4        1.96791  -0.00597   0.02148  -0.03589  -0.03023   1.93768
    A5        1.67924  -0.00980  -0.04553  -0.04907  -0.08929   1.58995
    A6        1.74241  -0.00339  -0.04537  -0.01583  -0.06347   1.67894
    A7        1.97261  -0.00070  -0.00067  -0.00584  -0.00654   1.96607
    A8        1.84134   0.00009  -0.01870   0.02784   0.00904   1.85038
    A9        1.89554  -0.00024  -0.00288   0.00300   0.00008   1.89563
   A10        1.91799  -0.00007   0.00708  -0.01279  -0.00578   1.91221
   A11        1.91852   0.00073   0.00499   0.00039   0.00538   1.92391
   A12        1.91604   0.00017   0.01007  -0.01205  -0.00210   1.91394
   A13        3.09314   0.00061   0.00101   0.01560   0.01661   3.10975
   A14        2.85929  -0.00011  -0.00004  -0.00327  -0.00331   2.85599
    D1        2.94035  -0.00785  -0.05145  -0.06365  -0.11930   2.82106
    D2       -1.24669  -0.00827  -0.05556  -0.06448  -0.12423  -1.37092
    D3        0.80655  -0.00815  -0.05530  -0.06241  -0.12186   0.68469
    D4       -0.80498   0.00884   0.05986   0.04463   0.10545  -0.69953
    D5        1.29117   0.00842   0.05575   0.04379   0.10052   1.39168
    D6       -2.93878   0.00854   0.05600   0.04587   0.10289  -2.83589
    D7        0.99989  -0.00066  -0.00556  -0.00291  -0.00529   0.99459
    D8        3.09603  -0.00108  -0.00967  -0.00374  -0.01023   3.08580
    D9       -1.13392  -0.00095  -0.00942  -0.00167  -0.00786  -1.14178
         Item               Value     Threshold  Converged?
 Maximum Force            0.033504     0.000450     NO 
 RMS     Force            0.008517     0.000300     NO 
 Maximum Displacement     0.159204     0.001800     NO 
 RMS     Displacement     0.075308     0.001200     NO 
 Predicted change in Energy=-7.522232D-03
 Lowest energy point so far.  Saving SCF results.
 GradGradGradGradGradGradGradGradGradGradGradGradGradGradGradGradGradGrad

 Leave Link  103 at Wed Jan  8 00:05:48 2020, MaxMem=  4294967296 cpu:               1.7 elap:               0.1
 (Enter /home/cwagen/sw/g16/g16/l202.exe)
                          Input orientation:                          
 ---------------------------------------------------------------------
 Center     Atomic      Atomic             Coordinates (Angstroms)
 Number     Number       Type             X           Y           Z
 ---------------------------------------------------------------------
      1          6           0       -0.331101   -0.398287   -0.295484
      2          8           0       -0.223736   -0.564169   -1.455237
      3          6           0       -0.279183   -1.422179    0.796255
      4          1           0       -0.088223   -0.982665    1.775031
      5          1           0       -1.261482   -1.912438    0.798780
      6          1           0        0.495868   -2.153003    0.552433
      7         17           0       -1.240215    1.167303    0.281092
      8          6           0        2.244222    0.494308    0.345597
      9          7           0        3.385389    0.787766    0.412084
 ---------------------------------------------------------------------
                    Distance matrix (angstroms):
                    1          2          3          4          5
     1  C    0.000000
     2  O    1.176466   0.000000
     3  C    1.497646   2.410077   0.000000
     4  H    2.165067   3.260081   1.089789   0.000000
     5  H    2.087025   2.824064   1.097849   1.787198   0.000000
     6  H    2.117043   2.659504   1.092820   1.790419   1.790765
     7  Cl   1.900000   2.654442   2.809697   2.860298   3.123021
     8  C    2.800000   3.233294   3.200561   3.108863   4.276419
     9  N    3.964805   4.282569   4.296572   4.130137   5.388325
                    6          7          8          9
     6  H    0.000000
     7  Cl   3.756600   0.000000
     8  C    3.179273   3.549420   0.000000
     9  N    4.125185   4.642997   1.180170   0.000000
 Stoichiometry    C3H3ClNO(1-)
 Framework group  C1[X(C3H3ClNO)]
 Deg. of freedom    21
 Full point group                 C1      NOp   1
 RotChk:  IX=0 Diff= 7.25D-02
 Largest Abelian subgroup         C1      NOp   1
 Largest concise Abelian subgroup C1      NOp   1
                         Standard orientation:                         
 ---------------------------------------------------------------------
 Center     Atomic      Atomic             Coordinates (Angstroms)
 Number     Number       Type             X           Y           Z
 ---------------------------------------------------------------------
      1          6           0       -0.575870    0.556762    0.251558
      2          8           0       -0.572049    0.896755    1.377818
      3          6           0       -0.498233    1.412090   -0.975361
      4          1           0       -0.203289    0.849688   -1.860999
      5          1           0       -1.504870    1.825389   -1.120746
      6          1           0        0.209395    2.224039   -0.790274
      7         17           0       -1.339983   -1.136885   -0.145551
      8          6           0        2.091589   -0.233436   -0.065058
      9          7           0        3.249992   -0.451229   -0.006141
 ---------------------------------------------------------------------
 Rotational constants (GHZ):           3.4511391           1.5513280           1.3427935
 Leave Link  202 at Wed Jan  8 00:05:48 2020, MaxMem=  4294967296 cpu:               1.2 elap:               0.1
 (Enter /home/cwagen/sw/g16/g16/l301.exe)
 Standard basis: 6-31+G(d) (6D, 7F)
 Ernie: Thresh=  0.10000D-02 Tol=  0.10000D-05 Strict=F.
 There are   124 symmetry adapted cartesian basis functions of A   symmetry.
 There are   124 symmetry adapted basis functions of A   symmetry.
   124 basis functions,   228 primitive gaussians,   124 cartesian basis functions
    27 alpha electrons       27 beta electrons
       nuclear repulsion energy       237.6339119712 Hartrees.
 IExCor=  402 DFT=T Ex+Corr=B3LYP ExCW=0 ScaHFX=  0.200000
 ScaDFX=  0.800000  0.720000  1.000000  0.810000 ScalE2=  1.000000  1.000000
 IRadAn=      5 IRanWt=     -1 IRanGd=            0 ICorTp=0 IEmpDi=  4
 NAtoms=    9 NActive=    9 NUniq=    9 SFac= 1.00D+00 NAtFMM=   60 NAOKFM=F Big=F
 Integral buffers will be    131072 words long.
 Raffenetti 2 integral format.
 Two-electron integral symmetry is turned on.
 ------------------------------------------------------------------------------
 Polarizable Continuum Model (PCM)
 =================================
 Model                : PCM.
 Atomic radii         : SMD-Coulomb.
 Polarization charges : Total charges.
 Charge compensation  : None.
 Solution method      : On-the-fly selection.
 Cavity type          : VdW (van der Waals Surface) (Alpha=1.000).
 Cavity algorithm     : GePol (No added spheres)
                        Default sphere list used, NSphG=    9.
                        Lebedev-Laikov grids with approx.  5.0 points / Ang**2.
                        Smoothing algorithm: York/Karplus (Gamma=1.0000).
                        Polarization charges: spherical gaussians, with
                                              point-specific exponents (IZeta= 3).
                        Self-potential: point-specific (ISelfS= 7).
                        Self-field    : sphere-specific E.n sum rule (ISelfD= 2).
 1st derivatives      : Analytical E(r).r(x)/FMM algorithm (CHGder, D1EAlg=3).
                        Cavity 1st derivative terms included.
 Solvent              : TetraHydroFuran, Eps=   7.425700 Eps(inf)=   1.974025
 ------------------------------------------------------------------------------
 Spheres list:
 ISph  on   Nord     Re0    Alpha      Xe            Ye            Ze
    1   C      1    1.8500  1.000     -0.575870      0.556762      0.251558
    2   O      2    2.2940  1.000     -0.572049      0.896755      1.377818
    3   C      3    1.8500  1.000     -0.498233      1.412090     -0.975361
    4   H      4    1.2000  1.000     -0.203289      0.849688     -1.860999
    5   H      5    1.2000  1.000     -1.504870      1.825389     -1.120746
    6   H      6    1.2000  1.000      0.209395      2.224039     -0.790274
    7  Cl      7    2.3800  1.000     -1.339983     -1.136885     -0.145551
    8   C      8    1.8500  1.000      2.091589     -0.233436     -0.065058
    9   N      9    1.8900  1.000      3.249992     -0.451229     -0.006141
 ------------------------------------------------------------------------------
 GePol: Number of generator spheres                  =       9
 GePol: Total number of spheres                      =       9
 GePol: Number of exposed spheres                    =       9 (100.00%)
 GePol: Number of points                             =    1225
 GePol: Average weight of points                     =       0.14
 GePol: Minimum weight of points                     =   0.13D-06
 GePol: Maximum weight of points                     =    0.18138
 GePol: Number of points with low weight             =      29
 GePol: Fraction of low-weight points (<1% of avg)   =       2.37%
 GePol: Cavity surface area                          =    165.529 Ang**2
 GePol: Cavity volume                                =    149.204 Ang**3
 ------------------------------------------------------------------------------
 Atomic radii for non-electrostatic terms: SMD-CDS.
 ------------------------------------------------------------------------------
 PCM non-electrostatic energy =         0.0009414543 Hartrees.
 Nuclear repulsion after PCM non-electrostatic terms =      237.6348534255 Hartrees.
 Leave Link  301 at Wed Jan  8 00:05:49 2020, MaxMem=  4294967296 cpu:               3.3 elap:               0.2
 (Enter /home/cwagen/sw/g16/g16/l302.exe)
 NPDir=0 NMtPBC=     1 NCelOv=     1 NCel=       1 NClECP=     1 NCelD=      1
         NCelK=      1 NCelE2=     1 NClLst=     1 CellRange=     0.0.
 One-electron integrals computed using PRISM.
 One-electron integral symmetry used in STVInt
 NBasis=   124 RedAO= T EigKep=  7.97D-05  NBF=   124
 NBsUse=   124 1.00D-06 EigRej= -1.00D+00 NBFU=   124
 Precomputing XC quadrature grid using
 IXCGrd= 4 IRadAn=           5 IRanWt=          -1 IRanGd=           0 AccXCQ= 0.00D+00.
 Generated NRdTot=       0 NPtTot=           0 NUsed=           0 NTot=          32
[...]
     Eigenvalues ---    0.17955   0.22129   0.25498   0.30980   0.32687
     Eigenvalues ---    0.34337   0.36288   0.74810   1.229211000.00000
     Eigenvalues --- 1000.000001000.000001000.000001000.000001000.00000
     Eigenvalues --- 1000.000001000.000001000.000001000.000001000.00000
     Eigenvalues --- 1000.00000
 Eigenvalue     1 is   2.25D-05 Eigenvector:
                          A14       A13       D8        D7        A6
   1                    0.98001   0.14627  -0.06610  -0.06333  -0.05577
                          A3        D9        A8        D3        A10
   1                    0.05070  -0.04995   0.02256   0.02001  -0.01190
 En-DIIS/RFO-DIIS/Sim-DIIS IScMMF=       -3 using points:    37   36   35   34   33   32   31   30   29   28
 RFO step:  Lambda=-1.67055837D-05.
 NNeg= 0 NGDIIS=10 SimSw=  2.50D-03 Rises=T DC=  5.30D-06 SmlDif=  1.00D-05
 NRisDI= 8 DoIntr=T SqrtH=F CThrHd= 10.0 CDAdj=  3.0
 RMS Error=  0.6107278279D-01 NUsed=10 OKEnD=T EnDIS=T
 InvSVX:  RCond= 1.84D-11 Info=           0 Equed=R FErr=  2.23D-06 BErr=  6.26D-17
 DIIS inversion failure, remove point  10.
 InvSVX:  RCond= 3.24D-10 Info=           0 Equed=R FErr=  1.70D-07 BErr=  7.83D-17
 DIIS inversion failure, remove point   9.
 InvSVX:  RCond= 8.45D-10 Info=           0 Equed=R FErr=  6.01D-08 BErr=  5.01D-17
 DIIS inversion failure, remove point   8.
 InvSVX:  RCond= 2.09D-09 Info=           0 Equed=R FErr=  3.48D-08 BErr=  6.41D-17
 DIIS inversion failure, remove point   7.
 InvSVX:  RCond= 6.47D-09 Info=           0 Equed=N FErr=  1.52D-08 BErr=  6.56D-17
 DIIS inversion failure, remove point   6.
 InvSVX:  RCond= 1.83D-07 Info=           0 Equed=N FErr=  2.93D-10 BErr=  3.24D-17
 DIIS inversion failure, remove point   5.
 InvSVX:  RCond= 1.11D-05 Info=           0 Equed=N FErr=  3.97D-12 BErr=  4.54D-17
 Old DIIS coefficients:      0.22642      3.66282     -2.19171     -0.69754      0.00000
 Old DIIS coefficients:      0.00000      0.00000      0.00000      0.00000      0.00000
 RFO-DIIS uses    4 points instead of   10
 EnCoef did   100 forward-backward iterations
 IWarn =    2
 Energies =   -706.415981807      -706.416011820      -706.415999124      -706.415865932      -706.415992230    
 Energies =   -706.415990584      -706.415990996      -706.415991114      -706.415990687      -706.415985384    
 Point number   4 has energy  -0.7064158659D+03 and has been removed
 IWarn =    0
 DidBck=T Rises=T En-DIIS coefs:    0.98196    0.00000    0.00000    0.00000    0.00000
                  En-DIIS coefs:    0.00000    0.00000    0.00000    0.00000    0.01804
 Iteration  1 RMS(Cart)=  0.00017878 RMS(Int)=  0.00000005
 Iteration  2 RMS(Cart)=  0.00000005 RMS(Int)=  0.00000000
 Iteration  1 RMS(Cart)=  0.00000000 RMS(Int)=  0.00000000
 ITry= 1 IFail=0 DXMaxC= 5.98D-04 DCOld= 1.00D+10 DXMaxT= 5.00D-02 DXLimC= 3.00D+00 Rises=F
 Variable       Old X    -DE/DX   Delta X   Delta X   Delta X     New X
                                 (Linear)    (Quad)   (Total)
    R1        2.24132   0.00032   0.00000   0.00000   0.00000   2.24132
    R2        2.82467  -0.00011  -0.00001   0.00000  -0.00001   2.82467
    R3        3.59048  -0.00299   0.00000   0.00000   0.00000   3.59048
    R4        5.29123   0.00619   0.00000   0.00000   0.00000   5.29123
    R5        2.05768  -0.00004   0.00000   0.00000   0.00000   2.05768
    R6        2.07707   0.00001   0.00000   0.00000   0.00000   2.07707
    R7        2.06442  -0.00001   0.00000   0.00000   0.00000   2.06442
    R8        2.23091  -0.00009   0.00000   0.00000   0.00000   2.23091
    A1        2.26841   0.00003   0.00000   0.00000   0.00000   2.26841
    A2        2.05218   0.00021   0.00001   0.00000   0.00001   2.05219
    A3        1.67650   0.00000  -0.00003   0.00000  -0.00003   1.67647
    A4        1.93932  -0.00026  -0.00001   0.00000  -0.00001   1.93931
    A5        1.53619   0.00003   0.00003   0.00000   0.00003   1.53622
    A6        1.70558   0.00004  -0.00001   0.00000  -0.00001   1.70558
    A7        1.94784   0.00014   0.00002   0.00000   0.00002   1.94786
    A8        1.86975  -0.00014  -0.00001   0.00000  -0.00001   1.86974
    A9        1.90042   0.00004   0.00000   0.00000   0.00000   1.90042
   A10        1.90182   0.00003   0.00001   0.00000   0.00001   1.90182
   A11        1.93110  -0.00008  -0.00001   0.00000  -0.00001   1.93109
   A12        1.91173   0.00001  -0.00001   0.00000  -0.00001   1.91172
   A13        3.15084  -0.00004   0.00038   0.00000   0.00038   3.15122
   A14        2.55628  -0.00003  -0.00037   0.00000  -0.00037   2.55591
    D1        2.62323   0.00000  -0.00016   0.00000  -0.00016   2.62307
    D2       -1.57956   0.00003  -0.00015   0.00000  -0.00015  -1.57971
    D3        0.48646  -0.00002  -0.00016   0.00000  -0.00016   0.48630
    D4       -0.75846  -0.00008  -0.00015   0.00000  -0.00015  -0.75861
    D5        1.32194  -0.00005  -0.00014   0.00000  -0.00014   1.32180
    D6       -2.89523  -0.00009  -0.00015   0.00000  -0.00015  -2.89538
    D7        0.94348  -0.00004  -0.00014   0.00000  -0.00014   0.94334
    D8        3.02388  -0.00001  -0.00013   0.00000  -0.00013   3.02375
    D9       -1.19329  -0.00005  -0.00014   0.00000  -0.00014  -1.19343
         Item               Value     Threshold  Converged?
 Maximum Force            0.000317     0.000450     YES
 RMS     Force            0.000103     0.000300     YES
 Maximum Displacement     0.000598     0.001800     YES
 RMS     Displacement     0.000179     0.001200     YES
 Predicted change in Energy=-5.225334D-08
 Optimization completed.
    -- Stationary point found.
                           ----------------------------
                           !   Optimized Parameters   !
                           ! (Angstroms and Degrees)  !
 --------------------------                            --------------------------
 ! Name  Definition              Value          Derivative Info.                !
 --------------------------------------------------------------------------------
 ! R1    R(1,2)                  1.1861         -DE/DX =    0.0003              !
 ! R2    R(1,3)                  1.4948         -DE/DX =   -0.0001              !
 ! R3    R(1,7)                  1.9            -DE/DX =   -0.003               !
 ! R4    R(1,8)                  2.8            -DE/DX =    0.0062              !
 ! R5    R(3,4)                  1.0889         -DE/DX =    0.0                 !
 ! R6    R(3,5)                  1.0991         -DE/DX =    0.0                 !
 ! R7    R(3,6)                  1.0924         -DE/DX =    0.0                 !
 ! R8    R(8,9)                  1.1805         -DE/DX =   -0.0001              !
 ! A1    A(2,1,3)              129.9702         -DE/DX =    0.0                 !
 ! A2    A(2,1,7)              117.5812         -DE/DX =    0.0002              !
 ! A3    A(2,1,8)               96.0564         -DE/DX =    0.0                 !
 ! A4    A(3,1,7)              111.1148         -DE/DX =   -0.0003              !
 ! A5    A(3,1,8)               88.0172         -DE/DX =    0.0                 !
 ! A6    A(7,1,8)               97.7227         -DE/DX =    0.0                 !
 ! A7    A(1,3,4)              111.6033         -DE/DX =    0.0001              !
 ! A8    A(1,3,5)              107.1287         -DE/DX =   -0.0001              !
 ! A9    A(1,3,6)              108.8861         -DE/DX =    0.0                 !
 ! A10   A(4,3,5)              108.966          -DE/DX =    0.0                 !
 ! A11   A(4,3,6)              110.6437         -DE/DX =   -0.0001              !
 ! A12   A(5,3,6)              109.5341         -DE/DX =    0.0                 !
 ! A13   L(1,8,9,6,-1)         180.53           -DE/DX =    0.0                 !
 ! A14   L(1,8,9,6,-2)         146.4643         -DE/DX =    0.0                 !
 ! D1    D(2,1,3,4)            150.3            -DE/DX =    0.0                 !
 ! D2    D(2,1,3,5)            -90.5022         -DE/DX =    0.0                 !
 ! D3    D(2,1,3,6)             27.872          -DE/DX =    0.0                 !
 ! D4    D(7,1,3,4)            -43.4564         -DE/DX =   -0.0001              !
 ! D5    D(7,1,3,5)             75.7415         -DE/DX =   -0.0001              !
 ! D6    D(7,1,3,6)           -165.8844         -DE/DX =   -0.0001              !
 ! D7    D(8,1,3,4)             54.0576         -DE/DX =    0.0                 !
 ! D8    D(8,1,3,5)            173.2555         -DE/DX =    0.0                 !
 ! D9    D(8,1,3,6)            -68.3704         -DE/DX =    0.0                 !
 --------------------------------------------------------------------------------
 Largest change from initial coordinates is atom    4       0.255 Angstoms.
 GradGradGradGradGradGradGradGradGradGradGradGradGradGradGradGradGradGrad

 Leave Link  103 at Wed Jan  8 00:31:06 2020, MaxMem=  4294967296 cpu:              38.0 elap:               2.8
 (Enter /home/cwagen/sw/g16/g16/l202.exe)
                          Input orientation:                          
 ---------------------------------------------------------------------
 Center     Atomic      Atomic             Coordinates (Angstroms)
 Number     Number       Type             X           Y           Z
 ---------------------------------------------------------------------
      1          6           0       -0.347852   -0.397547   -0.298757
      2          8           0       -0.112205   -0.500897   -1.456564
      3          6           0       -0.273689   -1.417886    0.791057
      4          1           0       -0.040637   -0.961882    1.751994
      5          1           0       -1.260732   -1.897458    0.853227
      6          1           0        0.478947   -2.164093    0.526203
      7         17           0       -1.301133    1.144169    0.270777
      8          6           0        2.214697    0.446607    0.450074
      9          7           0        3.344144    0.765622    0.322538
 ---------------------------------------------------------------------
                    Distance matrix (angstroms):
                    1          2          3          4          5
     1  C    0.000000
     2  O    1.186056   0.000000
     3  C    1.494753   2.432847   0.000000
     4  H    2.149054   3.242294   1.088877   0.000000
     5  H    2.100035   2.933365   1.099140   1.780932   0.000000
     6  H    2.117744   2.654627   1.092444   1.793835   1.790118
     7  Cl   1.900000   2.665239   2.808996   2.866758   3.097156
     8  C    2.800000   3.153966   3.128045   2.960636   4.211387
     9  N    3.920434   4.088474   4.251580   4.060093   5.345887
                    6          7          8          9
     6  H    0.000000
     7  Cl   3.765438   0.000000
     8  C    3.135981   3.588844   0.000000
     9  N    4.102933   4.660963   1.180545   0.000000
 Stoichiometry    C3H3ClNO(1-)
 Framework group  C1[X(C3H3ClNO)]
 Deg. of freedom    21
 Full point group                 C1      NOp   1
 RotChk:  IX=0 Diff= 1.26D-15
 Largest Abelian subgroup         C1      NOp   1
 Largest concise Abelian subgroup C1      NOp   1
                         Standard orientation:                         
 ---------------------------------------------------------------------
 Center     Atomic      Atomic             Coordinates (Angstroms)
 Number     Number       Type             X           Y           Z
 ---------------------------------------------------------------------
      1          6           0       -0.556465    0.563192    0.274880
      2          8           0       -0.394126    0.814026    1.422685
      3          6           0       -0.444826    1.446111   -0.926069
      4          1           0       -0.141650    0.885559   -1.808973
      5          1           0       -1.439183    1.880002   -1.102425
      6          1           0        0.269537    2.244614   -0.712735
      7         17           0       -1.430651   -1.068339   -0.153961
      8          6           0        2.068975   -0.275707   -0.218388
      9          7           0        3.197038   -0.537455    0.011067
 ---------------------------------------------------------------------
 Rotational constants (GHZ):           3.5275578           1.5498620           1.3622294
 Leave Link  202 at Wed Jan  8 00:31:06 2020, MaxMem=  4294967296 cpu:               1.4 elap:               0.1
 (Enter /home/cwagen/sw/g16/g16/l601.exe)
 Copying SCF densities to generalized density rwf, IOpCl= 0 IROHF=0.

 **********************************************************************

            Population analysis using the SCF density.

 **********************************************************************

 Orbital symmetries:
       Occupied  (A) (A) (A) (A) (A) (A) (A) (A) (A) (A) (A) (A)
                 (A) (A) (A) (A) (A) (A) (A) (A) (A) (A) (A) (A)
                 (A) (A) (A)
       Virtual   (A) (A) (A) (A) (A) (A) (A) (A) (A) (A) (A) (A)
                 (A) (A) (A) (A) (A) (A) (A) (A) (A) (A) (A) (A)
                 (A) (A) (A) (A) (A) (A) (A) (A) (A) (A) (A) (A)
                 (A) (A) (A) (A) (A) (A) (A) (A) (A) (A) (A) (A)
                 (A) (A) (A) (A) (A) (A) (A) (A) (A) (A) (A) (A)
                 (A) (A) (A) (A) (A) (A) (A) (A) (A) (A) (A) (A)
                 (A) (A) (A) (A) (A) (A) (A) (A) (A) (A) (A) (A)
                 (A) (A) (A) (A) (A) (A) (A) (A) (A) (A) (A) (A)
                 (A)
 The electronic state is 1-A.
 Alpha  occ. eigenvalues -- -101.51915 -19.17542 -14.25887 -10.33137 -10.19024
 Alpha  occ. eigenvalues --  -10.12284  -9.43540  -7.19802  -7.19058  -7.18984
 Alpha  occ. eigenvalues --   -1.08318  -0.81484  -0.81111  -0.73812  -0.53859
 Alpha  occ. eigenvalues --   -0.46818  -0.45512  -0.45243  -0.38980  -0.37637
 Alpha  occ. eigenvalues --   -0.35002  -0.29984  -0.29772  -0.28053  -0.26477
 Alpha  occ. eigenvalues --   -0.26450  -0.23076
 Alpha virt. eigenvalues --   -0.02116   0.01014   0.03360   0.04831   0.05393
 Alpha virt. eigenvalues --    0.05922   0.08372   0.08537   0.09089   0.09562
 Alpha virt. eigenvalues --    0.10610   0.11386   0.11485   0.13090   0.13524
 Alpha virt. eigenvalues --    0.13969   0.14400   0.16317   0.19152   0.21098
 Alpha virt. eigenvalues --    0.22287   0.23179   0.24378   0.25583   0.26247
 Alpha virt. eigenvalues --    0.28126   0.28738   0.29870   0.32061   0.34947
 Alpha virt. eigenvalues --    0.35967   0.39914   0.45404   0.52463   0.57927
 Alpha virt. eigenvalues --    0.62663   0.64366   0.65569   0.68185   0.71747
 Alpha virt. eigenvalues --    0.73040   0.74947   0.75468   0.79440   0.82003
 Alpha virt. eigenvalues --    0.85374   0.86819   0.90305   0.91572   0.94288
 Alpha virt. eigenvalues --    0.97815   0.99754   1.02302   1.03106   1.03970
 Alpha virt. eigenvalues --    1.07124   1.10133   1.15100   1.21168   1.25174
 Alpha virt. eigenvalues --    1.27302   1.30607   1.33284   1.39059   1.44919
 Alpha virt. eigenvalues --    1.53404   1.56007   1.61440   1.61826   1.62644
 Alpha virt. eigenvalues --    1.64162   1.70907   1.76250   1.81661   1.83013
 Alpha virt. eigenvalues --    1.89711   2.03648   2.04129   2.06252   2.15537
 Alpha virt. eigenvalues --    2.23230   2.31456   2.42293   2.51913   2.55488
 Alpha virt. eigenvalues --    2.63967   2.66903   2.67890   2.88486   3.07189
 Alpha virt. eigenvalues --    3.13251   4.01421   4.18626   4.28750   4.31778
 Alpha virt. eigenvalues --    4.38550   4.46080
          Condensed to atoms (all electrons):
               1          2          3          4          5          6
     1  C    7.048458   0.315649  -1.096475  -0.092777   0.043657  -0.127101
     2  O    0.315649   8.069616   0.010439   0.007214  -0.008313   0.005680
     3  C   -1.096475   0.010439   6.590583   0.412755   0.302653   0.439466
     4  H   -0.092777   0.007214   0.412755   0.434860  -0.024748  -0.019051
     5  H    0.043657  -0.008313   0.302653  -0.024748   0.457999  -0.022173
     6  H   -0.127101   0.005680   0.439466  -0.019051  -0.022173   0.448002
     7  Cl  -0.602894  -0.058880   0.268215   0.015634  -0.015167   0.014449
     8  C    0.589664  -0.096427  -0.398320  -0.007605   0.005705  -0.001753
     9  N   -0.042425   0.001693   0.019020  -0.000036  -0.000061  -0.000182
               7          8          9
     1  C   -0.602894   0.589664  -0.042425
     2  O   -0.058880  -0.096427   0.001693
     3  C    0.268215  -0.398320   0.019020
     4  H    0.015634  -0.007605  -0.000036
     5  H   -0.015167   0.005705  -0.000061
     6  H    0.014449  -0.001753  -0.000182
     7  Cl  17.562854  -0.132958   0.003003
     8  C   -0.132958   5.674065   0.625307
     9  N    0.003003   0.625307   7.047851
 Mulliken charges:
               1
     1  C   -0.035755
     2  O   -0.246671
     3  C   -0.548338
     4  H    0.273756
     5  H    0.260449
     6  H    0.262661
     7  Cl  -0.054255
     8  C   -0.257679
     9  N   -0.654169
 Sum of Mulliken charges =  -1.00000
 Mulliken charges with hydrogens summed into heavy atoms:
               1
     1  C   -0.035755
     2  O   -0.246671
     3  C    0.248529
     7  Cl  -0.054255
     8  C   -0.257679
     9  N   -0.654169
 Electronic spatial extent (au):  <R**2>=            907.6754
 Charge=             -1.0000 electrons
 Dipole moment (field-independent basis, Debye):
    X=            -10.8526    Y=              4.4474    Z=             -2.2583  Tot=             11.9440
 Quadrupole moment (field-independent basis, Debye-Ang):
   XX=            -84.5588   YY=            -45.8215   ZZ=            -48.4453
   XY=              3.4460   XZ=              1.4237   YZ=             -3.3519
 Traceless Quadrupole moment (field-independent basis, Debye-Ang):
   XX=            -24.9503   YY=             13.7870   ZZ=             11.1632
   XY=              3.4460   XZ=              1.4237   YZ=             -3.3519
 Octapole moment (field-independent basis, Debye-Ang**2):
  XXX=           -147.3013  YYY=             10.7197  ZZZ=             -2.8331  XYY=            -13.9601
  XXY=             26.3338  XXZ=              1.1344  XZZ=             -9.2893  YZZ=              0.4562
  YYZ=             -2.5906  XYZ=              1.3956
 Hexadecapole moment (field-independent basis, Debye-Ang**3):
 XXXX=          -1283.0118 YYYY=           -288.3490 ZZZZ=           -184.3288 XXXY=             73.5082
 XXXZ=             -0.2849 YYYX=             16.6786 YYYZ=             -2.2178 ZZZX=              4.3385
 ZZZY=             -3.4260 XXYY=           -204.1233 XXZZ=           -178.8234 YYZZ=            -82.2443
 XXYZ=              0.2550 YYXZ=              3.3632 ZZXY=              4.0729
 N-N= 2.379075663262D+02 E-N=-2.153294404138D+03  KE= 7.026124401857D+02
 No NMR shielding tensors so no spin-rotation constants.
 Leave Link  601 at Wed Jan  8 00:31:07 2020, MaxMem=  4294967296 cpu:              14.5 elap:               1.1
 (Enter /home/cwagen/sw/g16/g16/l9999.exe)
 1\1\GINC-NODE042\FOpt\RB3LYP\6-31+G(d)\C3H3Cl1N1O1(1-)\CWAGEN\08-Jan-2
 020\0\\#p opt=modredundant b3lyp/6-31+g(d) scrf=(smd, solvent=tetrahyd
 rofuran)\\title\\-1,1\C,-0.3478522764,-0.3975468195,-0.2987565006\O,-0
 .1122049814,-0.500896831,-1.4565636952\C,-0.2736888057,-1.4178864381,0
 .7910572428\H,-0.0406367698,-0.9618818569,1.7519938265\H,-1.2607321032
 ,-1.8974579873,0.853226895\H,0.4789473507,-2.164092958,0.5262030186\Cl
 ,-1.3011329974,1.1441689244,0.2707770152\C,2.2146965936,0.4466068705,0
 .4500744783\N,3.3441437795,0.7656218358,0.3225383696\\Version=AS64L-G1
 6RevA.03\State=1-A\HF=-706.4159854\RMSD=7.708e-09\RMSF=1.931e-03\Dipol
 e=-4.2497155,-1.9629295,0.4106864\Quadrupole=-18.1415265,10.6730746,7.
 4684519,-3.0803684,-2.8701621,-2.4063084\PG=C01 [X(C3H3Cl1N1O1)]\\@


 DESK:  A WASTEBASKET WITH DRAWERS.
 Job cpu time:       0 days  5 hours 59 minutes 19.2 seconds.
 Elapsed time:       0 days  0 hours 26 minutes 45.5 seconds.
 File lengths (MBytes):  RWF=     38 Int=      0 D2E=      0 Chk=      3 Scr=      1
 Normal termination of Gaussian 16 at Wed Jan  8 00:31:08 2020.
