 Entering Gaussian System, Link 0=g16
 Input=scan_190_290.gjf
 Output=scan_190_290.out
 Initial command:
 /home/cwagen/sw/g16/g16/l1.exe "/scratch/users/cwagen/cwagen_scan_190_290/Gau-49157.inp" -scrdir="/scratch/users/cwagen/cwagen_scan_190_290/"
 Entering Link 1 = /home/cwagen/sw/g16/g16/l1.exe PID=     49158.
  
 Copyright (c) 1988,1990,1992,1993,1995,1998,2003,2009,2016,
            Gaussian, Inc.  All Rights Reserved.
  
 This is part of the Gaussian(R) 16 program.  It is based on
 the Gaussian(R) 09 system (copyright 2009, Gaussian, Inc.),
 the Gaussian(R) 03 system (copyright 2003, Gaussian, Inc.),
 the Gaussian(R) 98 system (copyright 1998, Gaussian, Inc.),
 the Gaussian(R) 94 system (copyright 1995, Gaussian, Inc.),
 the Gaussian 92(TM) system (copyright 1992, Gaussian, Inc.),
 the Gaussian 90(TM) system (copyright 1990, Gaussian, Inc.),
 the Gaussian 88(TM) system (copyright 1988, Gaussian, Inc.),
 the Gaussian 86(TM) system (copyright 1986, Carnegie Mellon
 University), and the Gaussian 82(TM) system (copyright 1983,
 Carnegie Mellon University). Gaussian is a federally registered
 trademark of Gaussian, Inc.
  
 This software contains proprietary and confidential information,
 including trade secrets, belonging to Gaussian, Inc.
  
 This software is provided under written license and may be
 used, copied, transmitted, or stored only in accord with that
 written license.
  
 The following legend is applicable only to US Government
 contracts under FAR:
  
                    RESTRICTED RIGHTS LEGEND
  
 Use, reproduction and disclosure by the US Government is
 subject to restrictions as set forth in subparagraphs (a)
 and (c) of the Commercial Computer Software - Restricted
 Rights clause in FAR 52.227-19.
  
 Gaussian, Inc.
 340 Quinnipiac St., Bldg. 40, Wallingford CT 06492
  
  
 ---------------------------------------------------------------
 Warning -- This program may not be used in any manner that
 competes with the business of Gaussian, Inc. or will provide
 assistance to any competitor of Gaussian, Inc.  The licensee
 of this program is prohibited from giving any competitor of
 Gaussian, Inc. access to this program.  By using this program,
 the user acknowledges that Gaussian, Inc. is engaged in the
 business of creating and licensing software in the field of
 computational chemistry and represents and warrants to the
 licensee that it is not a competitor of Gaussian, Inc. and that
 it will not use this program in any manner prohibited above.
 ---------------------------------------------------------------
  

 Cite this work as:
 Gaussian 16, Revision A.03,
 M. J. Frisch, G. W. Trucks, H. B. Schlegel, G. E. Scuseria, 
 M. A. Robb, J. R. Cheeseman, G. Scalmani, V. Barone, 
 G. A. Petersson, H. Nakatsuji, X. Li, M. Caricato, A. V. Marenich, 
 J. Bloino, B. G. Janesko, R. Gomperts, B. Mennucci, H. P. Hratchian, 
 J. V. Ortiz, A. F. Izmaylov, J. L. Sonnenberg, D. Williams-Young, 
 F. Ding, F. Lipparini, F. Egidi, J. Goings, B. Peng, A. Petrone, 
 T. Henderson, D. Ranasinghe, V. G. Zakrzewski, J. Gao, N. Rega, 
 G. Zheng, W. Liang, M. Hada, M. Ehara, K. Toyota, R. Fukuda, 
 J. Hasegawa, M. Ishida, T. Nakajima, Y. Honda, O. Kitao, H. Nakai, 
 T. Vreven, K. Throssell, J. A. Montgomery, Jr., J. E. Peralta, 
 F. Ogliaro, M. J. Bearpark, J. J. Heyd, E. N. Brothers, K. N. Kudin, 
 V. N. Staroverov, T. A. Keith, R. Kobayashi, J. Normand, 
 K. Raghavachari, A. P. Rendell, J. C. Burant, S. S. Iyengar, 
 J. Tomasi, M. Cossi, J. M. Millam, M. Klene, C. Adamo, R. Cammi, 
 J. W. Ochterski, R. L. Martin, K. Morokuma, O. Farkas, 
 J. B. Foresman, and D. J. Fox, Gaussian, Inc., Wallingford CT, 2016.
 
 ******************************************
 Gaussian 16:  AS64L-G16RevA.03 25-Dec-2016
                 8-Jan-2020 
 ******************************************
 %nprocshared=16
 Will use up to   16 processors via shared memory.
 %mem=32GB
 ----------------------------------------------------------------------
 #p opt=modredundant b3lyp/6-31+g(d) scrf=(smd, solvent=tetrahydrofuran
 )
 ----------------------------------------------------------------------
 1/18=120,19=15,26=3,38=1/1,3;
 2/9=110,12=2,17=6,18=5,40=1/2;
 3/5=1,6=6,7=11,11=2,25=1,30=1,70=32201,71=1,72=20,74=-5/1,2,3;
 4//1;
 5/5=2,38=5,53=20/2;
 6/7=2,8=2,9=2,10=2,28=1/1;
 7//1,2,3,16;
 1/18=20,19=15,26=3/3(2);
 2/9=110/2;
 99//99;
 2/9=110/2;
 3/5=1,6=6,7=11,11=2,25=1,30=1,70=32205,71=1,72=20,74=-5/1,2,3;
 4/5=5,16=3,69=1/1;
 5/5=2,38=5,53=20/2;
 7//1,2,3,16;
 1/18=20,19=15,26=3/3(-5);
 2/9=110/2;
 6/7=2,8=2,9=2,10=2,19=2,28=1/1;
 99/9=1/99;
 Leave Link    1 at Wed Jan  8 00:04:18 2020, MaxMem=  4294967296 cpu:               1.4 elap:               0.1
 (Enter /home/cwagen/sw/g16/g16/l101.exe)
 -----
 title
 -----
 Symbolic Z-matrix:
 Charge = -1 Multiplicity = 1
 6                    -0.19426  -0.292    -0.21291 
 8                    -0.25532  -0.66526  -1.45426 
 6                    -0.33095  -1.45422   0.81632 
 1                    -0.18039  -1.13044   1.85373 
 1                    -1.34067  -1.87301   0.71427 
 1                     0.39707  -2.23395   0.57058 
 17                   -1.33187   1.15115   0.26998 
 6                     2.49439   0.6495    0.32998 
 7                     3.62896   0.92979   0.36029 
 
 Add virtual bond connecting atoms C8         and C1         Dist= 5.48D+00.
 The following ModRedundant input section has been read:
 B       1       7 F                                                           
 B       1       8 F                                                           
 
 ITRead=  0  0  0  0  0  0  0  0  0
 MicOpt= -1 -1 -1 -1 -1 -1 -1 -1 -1
 NAtoms=      9 NQM=        9 NQMF=       0 NMMI=      0 NMMIF=      0
                NMic=       0 NMicF=      0.
                    Isotopes and Nuclear Properties:
 (Nuclear quadrupole moments (NQMom) in fm**2, nuclear magnetic moments (NMagM)
  in nuclear magnetons)

  Atom         1           2           3           4           5           6           7           8           9
 IAtWgt=          12          16          12           1           1           1          35          12          14
 AtmWgt=  12.0000000  15.9949146  12.0000000   1.0078250   1.0078250   1.0078250  34.9688527  12.0000000  14.0030740
 NucSpn=           0           0           0           1           1           1           3           0           2
 AtZEff=   0.0000000   0.0000000   0.0000000   0.0000000   0.0000000   0.0000000   0.0000000   0.0000000   0.0000000
 NQMom=    0.0000000   0.0000000   0.0000000   0.0000000   0.0000000   0.0000000  -8.1650000   0.0000000   2.0440000
 NMagM=    0.0000000   0.0000000   0.0000000   2.7928460   2.7928460   2.7928460   0.8218740   0.0000000   0.4037610
 AtZNuc=   6.0000000   8.0000000   6.0000000   1.0000000   1.0000000   1.0000000  17.0000000   6.0000000   7.0000000
 Leave Link  101 at Wed Jan  8 00:04:19 2020, MaxMem=  4294967296 cpu:               7.2 elap:               0.6
 (Enter /home/cwagen/sw/g16/g16/l103.exe)

 GradGradGradGradGradGradGradGradGradGradGradGradGradGradGradGradGradGrad
 Berny optimization.
 Initialization pass.
                           ----------------------------
                           !    Initial Parameters    !
                           ! (Angstroms and Degrees)  !
 --------------------------                            --------------------------
 ! Name  Definition              Value          Derivative Info.                !
 --------------------------------------------------------------------------------
 ! R1    R(1,2)                  1.2977         estimate D2E/DX2                !
 ! R2    R(1,3)                  1.5584         estimate D2E/DX2                !
 ! R3    R(1,7)                  1.9            Frozen                          !
 ! R4    R(1,8)                  2.9            Frozen                          !
 ! R5    R(3,4)                  1.0971         estimate D2E/DX2                !
 ! R6    R(3,5)                  1.0979         estimate D2E/DX2                !
 ! R7    R(3,6)                  1.0947         estimate D2E/DX2                !
 ! R8    R(8,9)                  1.1691         estimate D2E/DX2                !
 ! A1    A(2,1,3)              114.4006         estimate D2E/DX2                !
 ! A2    A(2,1,7)              115.6846         estimate D2E/DX2                !
 ! A3    A(2,1,8)              108.426          estimate D2E/DX2                !
 ! A4    A(3,1,7)              110.248          estimate D2E/DX2                !
 ! A5    A(3,1,8)              101.5248         estimate D2E/DX2                !
 ! A6    A(7,1,8)              105.1256         estimate D2E/DX2                !
 ! A7    A(1,3,4)              113.1005         estimate D2E/DX2                !
 ! A8    A(1,3,5)              107.683          estimate D2E/DX2                !
 ! A9    A(1,3,6)              108.9421         estimate D2E/DX2                !
 ! A10   A(4,3,5)              109.0662         estimate D2E/DX2                !
 ! A11   A(4,3,6)              109.3417         estimate D2E/DX2                !
 ! A12   A(5,3,6)              108.6067         estimate D2E/DX2                !
 ! A13   L(1,8,9,6,-1)         177.0663         estimate D2E/DX2                !
 ! A14   L(1,8,9,6,-2)         163.5063         estimate D2E/DX2                !
 ! D1    D(2,1,3,4)            174.4714         estimate D2E/DX2                !
 ! D2    D(2,1,3,5)            -64.9488         estimate D2E/DX2                !
 ! D3    D(2,1,3,6)             52.6633         estimate D2E/DX2                !
 ! D4    D(7,1,3,4)            -53.1046         estimate D2E/DX2                !
 ! D5    D(7,1,3,5)             67.4752         estimate D2E/DX2                !
 ! D6    D(7,1,3,6)           -174.9127         estimate D2E/DX2                !
 ! D7    D(8,1,3,4)             57.938          estimate D2E/DX2                !
 ! D8    D(8,1,3,5)            178.5177         estimate D2E/DX2                !
 ! D9    D(8,1,3,6)            -63.8702         estimate D2E/DX2                !
 --------------------------------------------------------------------------------
 Trust Radius=3.00D-01 FncErr=1.00D-07 GrdErr=1.00D-06 EigMax=2.50D+02 EigMin=1.00D-04
 Number of steps in this run=     41 maximum allowed number of steps=    100.
 GradGradGradGradGradGradGradGradGradGradGradGradGradGradGradGradGradGrad

 Leave Link  103 at Wed Jan  8 00:04:19 2020, MaxMem=  4294967296 cpu:               0.9 elap:               0.2
 (Enter /home/cwagen/sw/g16/g16/l202.exe)
                          Input orientation:                          
 ---------------------------------------------------------------------
 Center     Atomic      Atomic             Coordinates (Angstroms)
 Number     Number       Type             X           Y           Z
 ---------------------------------------------------------------------
      1          6           0       -0.194263   -0.291999   -0.212908
      2          8           0       -0.255321   -0.665256   -1.454255
      3          6           0       -0.330945   -1.454221    0.816316
      4          1           0       -0.180394   -1.130438    1.853734
      5          1           0       -1.340665   -1.873010    0.714272
      6          1           0        0.397068   -2.233949    0.570583
      7         17           0       -1.331867    1.151149    0.269979
      8          6           0        2.494390    0.649496    0.329984
      9          7           0        3.628961    0.929794    0.360287
 ---------------------------------------------------------------------
                    Distance matrix (angstroms):
                    1          2          3          4          5
     1  C    0.000000
     2  O    1.297687   0.000000
     3  C    1.558443   2.404928   0.000000
     4  H    2.230287   3.341377   1.097150   0.000000
     5  H    2.161827   2.709087   1.097876   1.787740   0.000000
     6  H    2.175937   2.643176   1.094698   1.788205   1.780629
     7  Cl   1.900000   2.726034   2.843991   3.006628   3.056634
     8  C    2.900000   3.531712   3.555933   3.555904   4.606339
     9  N    4.054426   4.574319   4.644604   4.581062   5.716485
                    6          7          8          9
     6  H    0.000000
     7  Cl   3.812934   0.000000
     8  C    3.573640   3.859469   0.000000
     9  N    4.527541   4.966586   1.169075   0.000000
 Stoichiometry    C3H3ClNO(1-)
 Framework group  C1[X(C3H3ClNO)]
 Deg. of freedom    21
 Full point group                 C1      NOp   1
 Largest Abelian subgroup         C1      NOp   1
 Largest concise Abelian subgroup C1      NOp   1
                         Standard orientation:                         
 ---------------------------------------------------------------------
 Center     Atomic      Atomic             Coordinates (Angstroms)
 Number     Number       Type             X           Y           Z
 ---------------------------------------------------------------------
      1          6           0       -0.475449    0.442213    0.209397
      2          8           0       -0.652201    0.961679    1.385367
      3          6           0       -0.680007    1.438124   -0.971730
      4          1           0       -0.432247    1.004202   -1.948491
      5          1           0       -1.734665    1.743129   -0.971911
      6          1           0       -0.060205    2.324136   -0.800870
      7         17           0       -1.412799   -1.176230   -0.125295
      8          6           0        2.329580   -0.233775   -0.081896
      9          7           0        3.488224   -0.378338   -0.023754
 ---------------------------------------------------------------------
 Rotational constants (GHZ):           3.3578572           1.3601112           1.1852296
 Leave Link  202 at Wed Jan  8 00:04:19 2020, MaxMem=  4294967296 cpu:               1.3 elap:               0.1
 (Enter /home/cwagen/sw/g16/g16/l301.exe)
 Standard basis: 6-31+G(d) (6D, 7F)
 Ernie: Thresh=  0.10000D-02 Tol=  0.10000D-05 Strict=F.
 There are   124 symmetry adapted cartesian basis functions of A   symmetry.
 There are   124 symmetry adapted basis functions of A   symmetry.
   124 basis functions,   228 primitive gaussians,   124 cartesian basis functions
    27 alpha electrons       27 beta electrons
       nuclear repulsion energy       229.0849060736 Hartrees.
 IExCor=  402 DFT=T Ex+Corr=B3LYP ExCW=0 ScaHFX=  0.200000
 ScaDFX=  0.800000  0.720000  1.000000  0.810000 ScalE2=  1.000000  1.000000
 IRadAn=      5 IRanWt=     -1 IRanGd=            0 ICorTp=0 IEmpDi=  4
 NAtoms=    9 NActive=    9 NUniq=    9 SFac= 1.00D+00 NAtFMM=   60 NAOKFM=F Big=F
 Integral buffers will be    131072 words long.
 Raffenetti 2 integral format.
 Two-electron integral symmetry is turned on.
 ------------------------------------------------------------------------------
 Polarizable Continuum Model (PCM)
 =================================
 Model                : PCM.
 Atomic radii         : SMD-Coulomb.
 Polarization charges : Total charges.
 Charge compensation  : None.
 Solution method      : On-the-fly selection.
 Cavity type          : VdW (van der Waals Surface) (Alpha=1.000).
 Cavity algorithm     : GePol (No added spheres)
                        Default sphere list used, NSphG=    9.
                        Lebedev-Laikov grids with approx.  5.0 points / Ang**2.
                        Smoothing algorithm: York/Karplus (Gamma=1.0000).
                        Polarization charges: spherical gaussians, with
                                              point-specific exponents (IZeta= 3).
                        Self-potential: point-specific (ISelfS= 7).
                        Self-field    : sphere-specific E.n sum rule (ISelfD= 2).
 1st derivatives      : Analytical E(r).r(x)/FMM algorithm (CHGder, D1EAlg=3).
                        Cavity 1st derivative terms included.
 Solvent              : TetraHydroFuran, Eps=   7.425700 Eps(inf)=   1.974025
 ------------------------------------------------------------------------------
 Spheres list:
 ISph  on   Nord     Re0    Alpha      Xe            Ye            Ze
    1   C      1    1.8500  1.000     -0.475449      0.442213      0.209397
    2   O      2    2.2940  1.000     -0.652201      0.961679      1.385367
    3   C      3    1.8500  1.000     -0.680007      1.438124     -0.971730
    4   H      4    1.2000  1.000     -0.432247      1.004202     -1.948491
    5   H      5    1.2000  1.000     -1.734665      1.743129     -0.971911
    6   H      6    1.2000  1.000     -0.060205      2.324136     -0.800870
    7  Cl      7    2.3800  1.000     -1.412799     -1.176230     -0.125295
    8   C      8    1.8500  1.000      2.329580     -0.233775     -0.081896
    9   N      9    1.8900  1.000      3.488224     -0.378338     -0.023754
 ------------------------------------------------------------------------------
 GePol: Number of generator spheres                  =       9
 GePol: Total number of spheres                      =       9
 GePol: Number of exposed spheres                    =       9 (100.00%)
 GePol: Number of points                             =    1272
 GePol: Average weight of points                     =       0.14
 GePol: Minimum weight of points                     =   0.10D-06
 GePol: Maximum weight of points                     =    0.18138
 GePol: Number of points with low weight             =      37
 GePol: Fraction of low-weight points (<1% of avg)   =       2.91%
 GePol: Cavity surface area                          =    172.053 Ang**2
 GePol: Cavity volume                                =    152.351 Ang**3
 ------------------------------------------------------------------------------
 Atomic radii for non-electrostatic terms: SMD-CDS.
 ------------------------------------------------------------------------------
 PCM non-electrostatic energy =         0.0012276584 Hartrees.
 Nuclear repulsion after PCM non-electrostatic terms =      229.0861337320 Hartrees.
 Leave Link  301 at Wed Jan  8 00:04:19 2020, MaxMem=  4294967296 cpu:               2.1 elap:               0.2
 (Enter /home/cwagen/sw/g16/g16/l302.exe)
 NPDir=0 NMtPBC=     1 NCelOv=     1 NCel=       1 NClECP=     1 NCelD=      1
         NCelK=      1 NCelE2=     1 NClLst=     1 CellRange=     0.0.
 One-electron integrals computed using PRISM.
 One-electron integral symmetry used in STVInt
 NBasis=   124 RedAO= T EigKep=  1.33D-04  NBF=   124
 NBsUse=   124 1.00D-06 EigRej= -1.00D+00 NBFU=   124
 Precomputing XC quadrature grid using
 IXCGrd= 4 IRadAn=           5 IRanWt=          -1 IRanGd=           0 AccXCQ= 0.00D+00.
 Generated NRdTot=       0 NPtTot=           0 NUsed=           0 NTot=          32
 NSgBfM=   123   123   123   123   123 MxSgAt=     9 MxSgA2=     9.
 Leave Link  302 at Wed Jan  8 00:04:21 2020, MaxMem=  4294967296 cpu:              27.2 elap:               2.0
 (Enter /home/cwagen/sw/g16/g16/l303.exe)
 DipDrv:  MaxL=1.
 Leave Link  303 at Wed Jan  8 00:04:22 2020, MaxMem=  4294967296 cpu:               2.4 elap:               0.3
 (Enter /home/cwagen/sw/g16/g16/l401.exe)
 ExpMin= 4.38D-02 ExpMax= 2.52D+04 ExpMxC= 3.78D+03 IAcc=3 IRadAn=         5 AccDes= 0.00D+00
 Harris functional with IExCor=  402 and IRadAn=       5 diagonalized for initial guess.
 HarFok:  IExCor=  402 AccDes= 0.00D+00 IRadAn=         5 IDoV= 1 UseB2=F ITyADJ=14
 ICtDFT=  3500011 ScaDFX=  1.000000  1.000000  1.000000  1.000000
 FoFCou: FMM=F IPFlag=           0 FMFlag=      100000 FMFlg1=           0
         NFxFlg=           0 DoJE=T BraDBF=F KetDBF=T FulRan=T
         wScrn=  0.000000 ICntrl=       500 IOpCl=  0 I1Cent=   200000004 NGrid=           0
         NMat0=    1 NMatS0=      1 NMatT0=    0 NMatD0=    1 NMtDS0=    0 NMtDT0=    0
 Petite list used in FoFCou.
 Harris En= -706.397255502427    
 JPrj=0 DoOrth=F DoCkMO=F.
 Leave Link  401 at Wed Jan  8 00:04:23 2020, MaxMem=  4294967296 cpu:              23.6 elap:               1.7
 (Enter /home/cwagen/sw/g16/g16/l502.exe)
 Keep R1 ints in memory in canonical form, NReq=45236517.
 FoFCou: FMM=F IPFlag=           0 FMFlag=           0 FMFlg1=           0
         NFxFlg=           0 DoJE=F BraDBF=F KetDBF=F FulRan=T
         wScrn=  0.000000 ICntrl=       600 IOpCl=  0 I1Cent=           0 NGrid=           0
         NMat0=    1 NMatS0=   7750 NMatT0=    0 NMatD0=    1 NMtDS0=    0 NMtDT0=    0
 Symmetry not used in FoFCou.
 Two-electron integral symmetry not used.
 Closed shell SCF:
 Using DIIS extrapolation, IDIIS=  1040.
 NGot=  4294967296 LenX=  4264898079 LenY=  4264882262
 Requested convergence on RMS density matrix=1.00D-08 within 128 cycles.
 Requested convergence on MAX density matrix=1.00D-06.
 Requested convergence on             energy=1.00D-06.
 No special actions if energy rises.

 Cycle   1  Pass 1  IDiag  1:
 Inv3:  Mode=1 IEnd=     4853952.
 Iteration    1 A*A^-1 deviation from unit magnitude is 2.78D-15 for   1270.
 Iteration    1 A*A^-1 deviation from orthogonality  is 1.26D-15 for    970    327.
 Iteration    1 A^-1*A deviation from unit magnitude is 2.78D-15 for   1270.
 Iteration    1 A^-1*A deviation from orthogonality  is 1.09D-15 for    329     75.
 E= -706.141608514335    
 DIIS: error= 3.27D-02 at cycle   1 NSaved=   1.
 NSaved= 1 IEnMin= 1 EnMin= -706.141608514335     IErMin= 1 ErrMin= 3.27D-02
 ErrMax= 3.27D-02  0.00D+00 EMaxC= 1.00D-01 BMatC= 2.44D-01 BMatP= 2.44D-01
 IDIUse=3 WtCom= 6.73D-01 WtEn= 3.27D-01
 Coeff-Com:  0.100D+01
 Coeff-En:   0.100D+01
 Coeff:      0.100D+01
 Gap=     0.266 Goal=   None    Shift=    0.000
 GapD=    0.266 DampG=1.000 DampE=0.500 DampFc=0.5000 IDamp=-1.
 Damping current iteration by 5.00D-01
 RMSDP=1.79D-02 MaxDP=8.90D-01              OVMax= 5.03D-01

 Cycle   2  Pass 1  IDiag  1:
 E= -706.050212018107     Delta-E=        0.091396496228 Rises=F Damp=T
 DIIS: error= 2.54D-02 at cycle   2 NSaved=   2.
 NSaved= 2 IEnMin= 1 EnMin= -706.141608514335     IErMin= 2 ErrMin= 2.54D-02
 ErrMax= 2.54D-02  0.00D+00 EMaxC= 1.00D-01 BMatC= 1.47D-01 BMatP= 2.44D-01
 IDIUse=3 WtCom= 7.46D-01 WtEn= 2.54D-01
 Coeff-Com:  0.423D+00 0.577D+00
 Coeff-En:   0.607D+00 0.393D+00
 Coeff:      0.470D+00 0.530D+00
 Gap=     0.084 Goal=   None    Shift=    0.000
 RMSDP=5.13D-03 MaxDP=9.67D-02 DE= 9.14D-02 OVMax= 4.01D-01

 Cycle   3  Pass 1  IDiag  1:
 E= -706.313347168412     Delta-E=       -0.263135150305 Rises=F Damp=F
 DIIS: error= 1.68D-02 at cycle   3 NSaved=   3.
 NSaved= 3 IEnMin= 3 EnMin= -706.313347168412     IErMin= 3 ErrMin= 1.68D-02
 ErrMax= 1.68D-02  0.00D+00 EMaxC= 1.00D-01 BMatC= 6.53D-02 BMatP= 1.47D-01
 IDIUse=3 WtCom= 8.32D-01 WtEn= 1.68D-01
 Coeff-Com:  0.204D+00 0.374D+00 0.422D+00
 Coeff-En:   0.211D-01 0.000D+00 0.979D+00
 Coeff:      0.174D+00 0.311D+00 0.516D+00
 Gap=     0.171 Goal=   None    Shift=    0.000
 RMSDP=4.35D-03 MaxDP=2.21D-01 DE=-2.63D-01 OVMax= 1.15D-01

 Cycle   4  Pass 1  IDiag  1:
 E= -706.369721244889     Delta-E=       -0.056374076477 Rises=F Damp=F
 DIIS: error= 6.33D-03 at cycle   4 NSaved=   4.
 NSaved= 4 IEnMin= 4 EnMin= -706.369721244889     IErMin= 4 ErrMin= 6.33D-03
 ErrMax= 6.33D-03  0.00D+00 EMaxC= 1.00D-01 BMatC= 1.00D-02 BMatP= 6.53D-02
 IDIUse=3 WtCom= 9.37D-01 WtEn= 6.33D-02
 Coeff-Com:  0.349D-01 0.489D-01 0.283D+00 0.633D+00
 Coeff-En:   0.000D+00 0.000D+00 0.127D+00 0.873D+00
 Coeff:      0.327D-01 0.458D-01 0.274D+00 0.648D+00
 Gap=     0.168 Goal=   None    Shift=    0.000
 RMSDP=9.44D-04 MaxDP=2.76D-02 DE=-5.64D-02 OVMax= 2.96D-02

 Cycle   5  Pass 1  IDiag  1:
 E= -706.377098721188     Delta-E=       -0.007377476299 Rises=F Damp=F
 DIIS: error= 3.95D-03 at cycle   5 NSaved=   5.
 NSaved= 5 IEnMin= 5 EnMin= -706.377098721188     IErMin= 5 ErrMin= 3.95D-03
 ErrMax= 3.95D-03  0.00D+00 EMaxC= 1.00D-01 BMatC= 1.38D-03 BMatP= 1.00D-02
 IDIUse=3 WtCom= 9.61D-01 WtEn= 3.95D-02
 Coeff-Com:  0.542D-02-0.722D-03 0.149D+00 0.435D+00 0.412D+00
 Coeff-En:   0.000D+00 0.000D+00 0.000D+00 0.533D-01 0.947D+00
 Coeff:      0.521D-02-0.694D-03 0.143D+00 0.420D+00 0.433D+00
 Gap=     0.158 Goal=   None    Shift=    0.000
 RMSDP=4.62D-04 MaxDP=2.23D-02 DE=-7.38D-03 OVMax= 1.50D-02

 Cycle   6  Pass 1  IDiag  1:
 E= -706.378180751239     Delta-E=       -0.001082030051 Rises=F Damp=F
 DIIS: error= 1.07D-03 at cycle   6 NSaved=   6.
 NSaved= 6 IEnMin= 6 EnMin= -706.378180751239     IErMin= 6 ErrMin= 1.07D-03
 ErrMax= 1.07D-03  0.00D+00 EMaxC= 1.00D-01 BMatC= 1.51D-04 BMatP= 1.38D-03
 IDIUse=3 WtCom= 9.89D-01 WtEn= 1.07D-02
 Coeff-Com:  0.811D-03-0.629D-02 0.500D-01 0.146D+00 0.268D+00 0.541D+00
 Coeff-En:   0.000D+00 0.000D+00 0.000D+00 0.000D+00 0.111D+00 0.889D+00
 Coeff:      0.802D-03-0.622D-02 0.494D-01 0.145D+00 0.266D+00 0.545D+00
 Gap=     0.160 Goal=   None    Shift=    0.000
 RMSDP=1.22D-04 MaxDP=3.84D-03 DE=-1.08D-03 OVMax= 3.57D-03

 Cycle   7  Pass 1  IDiag  1:
 E= -706.378317039660     Delta-E=       -0.000136288421 Rises=F Damp=F
 DIIS: error= 1.58D-04 at cycle   7 NSaved=   7.
 NSaved= 7 IEnMin= 7 EnMin= -706.378317039660     IErMin= 7 ErrMin= 1.58D-04
 ErrMax= 1.58D-04  0.00D+00 EMaxC= 1.00D-01 BMatC= 6.14D-06 BMatP= 1.51D-04
 IDIUse=3 WtCom= 9.98D-01 WtEn= 1.58D-03
 Coeff-Com:  0.846D-03-0.354D-02 0.782D-02 0.142D-01 0.622D-01 0.205D+00
 Coeff-Com:  0.713D+00
 Coeff-En:   0.000D+00 0.000D+00 0.000D+00 0.000D+00 0.000D+00 0.000D+00
 Coeff-En:   0.100D+01
 Coeff:      0.845D-03-0.354D-02 0.781D-02 0.142D-01 0.621D-01 0.205D+00
 Coeff:      0.714D+00
 Gap=     0.159 Goal=   None    Shift=    0.000
 RMSDP=3.10D-05 MaxDP=6.53D-04 DE=-1.36D-04 OVMax= 6.50D-04

 Cycle   8  Pass 1  IDiag  1:
 E= -706.378322357856     Delta-E=       -0.000005318196 Rises=F Damp=F
 DIIS: error= 4.61D-05 at cycle   8 NSaved=   8.
 NSaved= 8 IEnMin= 8 EnMin= -706.378322357856     IErMin= 8 ErrMin= 4.61D-05
 ErrMax= 4.61D-05  0.00D+00 EMaxC= 1.00D-01 BMatC= 3.21D-07 BMatP= 6.14D-06
 IDIUse=1 WtCom= 1.00D+00 WtEn= 0.00D+00
 Coeff-Com:  0.464D-03-0.994D-03 0.698D-03-0.211D-02 0.380D-02 0.232D-01
 Coeff-Com:  0.147D+00 0.828D+00
 Coeff:      0.464D-03-0.994D-03 0.698D-03-0.211D-02 0.380D-02 0.232D-01
 Coeff:      0.147D+00 0.828D+00
 Gap=     0.160 Goal=   None    Shift=    0.000
 RMSDP=5.53D-06 MaxDP=1.29D-04 DE=-5.32D-06 OVMax= 1.41D-04

 Cycle   9  Pass 1  IDiag  1:
 E= -706.378322609191     Delta-E=       -0.000000251335 Rises=F Damp=F
 DIIS: error= 1.38D-05 at cycle   9 NSaved=   9.
 NSaved= 9 IEnMin= 9 EnMin= -706.378322609191     IErMin= 9 ErrMin= 1.38D-05
 ErrMax= 1.38D-05  0.00D+00 EMaxC= 1.00D-01 BMatC= 3.91D-08 BMatP= 3.21D-07
 IDIUse=1 WtCom= 1.00D+00 WtEn= 0.00D+00
 Coeff-Com:  0.225D-03-0.316D-03-0.268D-03-0.263D-02-0.311D-02-0.378D-02
 Coeff-Com:  0.213D-01 0.424D+00 0.565D+00
 Coeff:      0.225D-03-0.316D-03-0.268D-03-0.263D-02-0.311D-02-0.378D-02
 Coeff:      0.213D-01 0.424D+00 0.565D+00
 Gap=     0.159 Goal=   None    Shift=    0.000
 RMSDP=3.01D-06 MaxDP=7.01D-05 DE=-2.51D-07 OVMax= 1.05D-04

 Cycle  10  Pass 1  IDiag  1:
 E= -706.378322648692     Delta-E=       -0.000000039501 Rises=F Damp=F
 DIIS: error= 3.70D-06 at cycle  10 NSaved=  10.
 NSaved=10 IEnMin=10 EnMin= -706.378322648692     IErMin=10 ErrMin= 3.70D-06
 ErrMax= 3.70D-06  0.00D+00 EMaxC= 1.00D-01 BMatC= 3.48D-09 BMatP= 3.91D-08
 IDIUse=1 WtCom= 1.00D+00 WtEn= 0.00D+00
 Coeff-Com:  0.429D-04-0.318D-04-0.612D-04-0.475D-03-0.140D-02-0.438D-02
 Coeff-Com: -0.140D-01 0.625D-01 0.286D+00 0.671D+00
 Coeff:      0.429D-04-0.318D-04-0.612D-04-0.475D-03-0.140D-02-0.438D-02
 Coeff:     -0.140D-01 0.625D-01 0.286D+00 0.671D+00
 Gap=     0.159 Goal=   None    Shift=    0.000
 RMSDP=6.98D-07 MaxDP=1.71D-05 DE=-3.95D-08 OVMax= 2.18D-05

 Cycle  11  Pass 1  IDiag  1:
 E= -706.378322652452     Delta-E=       -0.000000003760 Rises=F Damp=F
 DIIS: error= 5.00D-07 at cycle  11 NSaved=  11.
 NSaved=11 IEnMin=11 EnMin= -706.378322652452     IErMin=11 ErrMin= 5.00D-07
 ErrMax= 5.00D-07  0.00D+00 EMaxC= 1.00D-01 BMatC= 7.24D-11 BMatP= 3.48D-09
 IDIUse=1 WtCom= 1.00D+00 WtEn= 0.00D+00
 Coeff-Com:  0.263D-05 0.727D-05-0.174D-05-0.315D-04-0.299D-03-0.123D-02
 Coeff-Com: -0.583D-02-0.328D-02 0.630D-01 0.204D+00 0.744D+00
 Coeff:      0.263D-05 0.727D-05-0.174D-05-0.315D-04-0.299D-03-0.123D-02
 Coeff:     -0.583D-02-0.328D-02 0.630D-01 0.204D+00 0.744D+00
 Gap=     0.159 Goal=   None    Shift=    0.000
 RMSDP=2.19D-07 MaxDP=1.19D-05 DE=-3.76D-09 OVMax= 5.21D-06

 Cycle  12  Pass 1  IDiag  1:
 E= -706.378322652527     Delta-E=       -0.000000000075 Rises=F Damp=F
 DIIS: error= 2.21D-07 at cycle  12 NSaved=  12.
 NSaved=12 IEnMin=12 EnMin= -706.378322652527     IErMin=12 ErrMin= 2.21D-07
 ErrMax= 2.21D-07  0.00D+00 EMaxC= 1.00D-01 BMatC= 7.91D-12 BMatP= 7.24D-11
 IDIUse=1 WtCom= 1.00D+00 WtEn= 0.00D+00
 Coeff-Com: -0.166D-05 0.475D-05 0.481D-05 0.158D-04-0.376D-04-0.235D-03
 Coeff-Com: -0.167D-02-0.549D-02 0.944D-02 0.501D-01 0.327D+00 0.621D+00
 Coeff:     -0.166D-05 0.475D-05 0.481D-05 0.158D-04-0.376D-04-0.235D-03
 Coeff:     -0.167D-02-0.549D-02 0.944D-02 0.501D-01 0.327D+00 0.621D+00
 Gap=     0.159 Goal=   None    Shift=    0.000
 RMSDP=4.80D-08 MaxDP=1.82D-06 DE=-7.53D-11 OVMax= 1.08D-06

 Cycle  13  Pass 1  IDiag  1:
 E= -706.378322652536     Delta-E=       -0.000000000010 Rises=F Damp=F
 DIIS: error= 4.28D-08 at cycle  13 NSaved=  13.
 NSaved=13 IEnMin=13 EnMin= -706.378322652536     IErMin=13 ErrMin= 4.28D-08
 ErrMax= 4.28D-08  0.00D+00 EMaxC= 1.00D-01 BMatC= 4.70D-13 BMatP= 7.91D-12
 IDIUse=1 WtCom= 1.00D+00 WtEn= 0.00D+00
 Coeff-Com: -0.955D-06 0.108D-05 0.780D-06 0.361D-05 0.156D-04 0.635D-04
 Coeff-Com:  0.132D-03-0.141D-02-0.494D-02-0.660D-02 0.225D-01 0.200D+00
 Coeff-Com:  0.790D+00
 Coeff:     -0.955D-06 0.108D-05 0.780D-06 0.361D-05 0.156D-04 0.635D-04
 Coeff:      0.132D-03-0.141D-02-0.494D-02-0.660D-02 0.225D-01 0.200D+00
 Coeff:      0.790D+00
 Gap=     0.159 Goal=   None    Shift=    0.000
 RMSDP=1.79D-08 MaxDP=6.89D-07 DE=-9.66D-12 OVMax= 5.88D-07

 Cycle  14  Pass 1  IDiag  1:
 E= -706.378322652537     Delta-E=       -0.000000000001 Rises=F Damp=F
 DIIS: error= 7.08D-09 at cycle  14 NSaved=  14.
 NSaved=14 IEnMin=14 EnMin= -706.378322652537     IErMin=14 ErrMin= 7.08D-09
 ErrMax= 7.08D-09  0.00D+00 EMaxC= 1.00D-01 BMatC= 1.52D-14 BMatP= 4.70D-13
 IDIUse=1 WtCom= 1.00D+00 WtEn= 0.00D+00
 Coeff-Com: -0.150D-06 0.120D-06-0.123D-06 0.284D-07 0.339D-05 0.199D-04
 Coeff-Com:  0.735D-04-0.572D-04-0.124D-02-0.253D-02-0.699D-02 0.787D-02
 Coeff-Com:  0.153D+00 0.850D+00
 Coeff:     -0.150D-06 0.120D-06-0.123D-06 0.284D-07 0.339D-05 0.199D-04
 Coeff:      0.735D-04-0.572D-04-0.124D-02-0.253D-02-0.699D-02 0.787D-02
 Coeff:      0.153D+00 0.850D+00
 Gap=     0.159 Goal=   None    Shift=    0.000
 RMSDP=2.31D-09 MaxDP=4.55D-08 DE=-5.68D-13 OVMax= 7.12D-08

 Error on total polarization charges =  0.02556
 SCF Done:  E(RB3LYP) =  -706.378322653     A.U. after   14 cycles
            NFock= 14  Conv=0.23D-08     -V/T= 2.0060
 KE= 7.021825669141D+02 PE=-2.135077415231D+03 EE= 4.974303919322D+02
 SMD-CDS (non-electrostatic) energy       (kcal/mol) =       0.77
 (included in total energy above)
 Leave Link  502 at Wed Jan  8 00:04:56 2020, MaxMem=  4294967296 cpu:             458.0 elap:              32.2
 (Enter /home/cwagen/sw/g16/g16/l601.exe)
 Copying SCF densities to generalized density rwf, IOpCl= 0 IROHF=0.

 **********************************************************************

            Population analysis using the SCF density.

 **********************************************************************

 Orbital symmetries:
       Occupied  (A) (A) (A) (A) (A) (A) (A) (A) (A) (A) (A) (A)
                 (A) (A) (A) (A) (A) (A) (A) (A) (A) (A) (A) (A)
                 (A) (A) (A)
       Virtual   (A) (A) (A) (A) (A) (A) (A) (A) (A) (A) (A) (A)
                 (A) (A) (A) (A) (A) (A) (A) (A) (A) (A) (A) (A)
                 (A) (A) (A) (A) (A) (A) (A) (A) (A) (A) (A) (A)
                 (A) (A) (A) (A) (A) (A) (A) (A) (A) (A) (A) (A)
                 (A) (A) (A) (A) (A) (A) (A) (A) (A) (A) (A) (A)
                 (A) (A) (A) (A) (A) (A) (A) (A) (A) (A) (A) (A)
                 (A) (A) (A) (A) (A) (A) (A) (A) (A) (A) (A) (A)
                 (A) (A) (A) (A) (A) (A) (A) (A) (A) (A) (A) (A)
                 (A)
 The electronic state is 1-A.
 Alpha  occ. eigenvalues -- -101.53434 -19.16856 -14.26640 -10.34360 -10.19670
 Alpha  occ. eigenvalues --  -10.13500  -9.44972  -7.21304  -7.20466  -7.20387
 Alpha  occ. eigenvalues --   -1.02032  -0.82792  -0.81621  -0.72500  -0.54529
 Alpha  occ. eigenvalues --   -0.45077  -0.43414  -0.43048  -0.38420  -0.36310
 Alpha  occ. eigenvalues --   -0.35044  -0.30409  -0.30232  -0.27525  -0.27500
 Alpha  occ. eigenvalues --   -0.27287  -0.24181
 Alpha virt. eigenvalues --   -0.08234   0.01296   0.03281   0.04789   0.05303
 Alpha virt. eigenvalues --    0.05762   0.07596   0.08446   0.08646   0.09599
 Alpha virt. eigenvalues --    0.10708   0.11149   0.11556   0.12829   0.13267
 Alpha virt. eigenvalues --    0.14050   0.15390   0.16011   0.17855   0.20935
 Alpha virt. eigenvalues --    0.21685   0.23661   0.24377   0.25109   0.25691
 Alpha virt. eigenvalues --    0.26496   0.27343   0.28310   0.31022   0.33202
 Alpha virt. eigenvalues --    0.34015   0.38048   0.40194   0.54735   0.57682
 Alpha virt. eigenvalues --    0.62902   0.63651   0.65353   0.66409   0.68762
 Alpha virt. eigenvalues --    0.71063   0.71725   0.73895   0.77460   0.78240
 Alpha virt. eigenvalues --    0.80582   0.85801   0.89335   0.90266   0.94007
 Alpha virt. eigenvalues --    0.97142   1.00046   1.00767   1.01444   1.02634
 Alpha virt. eigenvalues --    1.04911   1.09937   1.15130   1.17317   1.21356
 Alpha virt. eigenvalues --    1.27526   1.29184   1.31008   1.33965   1.47877
 Alpha virt. eigenvalues --    1.51248   1.56231   1.60355   1.60477   1.61704
 Alpha virt. eigenvalues --    1.64015   1.66663   1.76362   1.79800   1.85371
 Alpha virt. eigenvalues --    1.89389   1.96639   2.03271   2.03326   2.14078
 Alpha virt. eigenvalues --    2.18973   2.24630   2.28600   2.48121   2.50943
 Alpha virt. eigenvalues --    2.53500   2.67135   2.67233   2.71209   2.95192
 Alpha virt. eigenvalues --    3.09274   4.00481   4.13779   4.22228   4.29411
 Alpha virt. eigenvalues --    4.34455   4.42947
          Condensed to atoms (all electrons):
               1          2          3          4          5          6
     1  C    5.962994   0.416885  -0.340182  -0.074894   0.009611  -0.072836
     2  O    0.416885   8.121829  -0.092630   0.008717  -0.013027  -0.000527
     3  C   -0.340182  -0.092630   5.998365   0.385465   0.350836   0.399679
     4  H   -0.074894   0.008717   0.385465   0.466427  -0.027365  -0.021762
     5  H    0.009611  -0.013027   0.350836  -0.027365   0.448736  -0.022612
     6  H   -0.072836  -0.000527   0.399679  -0.021762  -0.022612   0.449008
     7  Cl  -0.252803  -0.089434   0.095045   0.013029  -0.014325   0.010158
     8  C    0.344476  -0.045896  -0.216174   0.001747   0.001252  -0.000106
     9  N   -0.014235  -0.000061   0.003739  -0.000103  -0.000005  -0.000012
               7          8          9
     1  C   -0.252803   0.344476  -0.014235
     2  O   -0.089434  -0.045896  -0.000061
     3  C    0.095045  -0.216174   0.003739
     4  H    0.013029   0.001747  -0.000103
     5  H   -0.014325   0.001252  -0.000005
     6  H    0.010158  -0.000106  -0.000012
     7  Cl  17.351483  -0.065340  -0.001005
     8  C   -0.065340   5.559438   0.640889
     9  N   -0.001005   0.640889   7.009330
 Mulliken charges:
               1
     1  C    0.020982
     2  O   -0.305856
     3  C   -0.584143
     4  H    0.248739
     5  H    0.266900
     6  H    0.259009
     7  Cl  -0.046809
     8  C   -0.220286
     9  N   -0.638537
 Sum of Mulliken charges =  -1.00000
 Mulliken charges with hydrogens summed into heavy atoms:
               1
     1  C    0.020982
     2  O   -0.305856
     3  C    0.190505
     7  Cl  -0.046809
     8  C   -0.220286
     9  N   -0.638537
 Electronic spatial extent (au):  <R**2>=           1010.1588
 Charge=             -1.0000 electrons
 Dipole moment (field-independent basis, Debye):
    X=            -11.3369    Y=              2.9366    Z=             -2.9313  Tot=             12.0723
 Quadrupole moment (field-independent basis, Debye-Ang):
   XX=            -88.5150   YY=            -46.1771   ZZ=            -48.8711
   XY=              2.6742   XZ=              2.8309   YZ=             -4.1197
 Traceless Quadrupole moment (field-independent basis, Debye-Ang):
   XX=            -27.3273   YY=             15.0107   ZZ=             12.3166
   XY=              2.6742   XZ=              2.8309   YZ=             -4.1197
 Octapole moment (field-independent basis, Debye-Ang**2):
  XXX=           -178.7008  YYY=              7.1463  ZZZ=             -5.3143  XYY=            -13.2091
  XXY=             19.9526  XXZ=              0.2961  XZZ=             -8.5574  YZZ=             -1.0710
  YYZ=             -4.2712  XYZ=              2.3467
 Hexadecapole moment (field-independent basis, Debye-Ang**3):
 XXXX=          -1535.1985 YYYY=           -304.7982 ZZZZ=           -184.3401 XXXY=             63.1149
 XXXZ=              6.7958 YYYX=             13.3081 YYYZ=             -4.1170 ZZZX=              4.9827
 ZZZY=             -4.2656 XXYY=           -222.0214 XXZZ=           -200.8673 YYZZ=            -85.9604
 XXYZ=             -1.5899 YYXZ=              4.3091 ZZXY=              4.1603
 N-N= 2.290861337320D+02 E-N=-2.135077415259D+03  KE= 7.021825669141D+02
 No NMR shielding tensors so no spin-rotation constants.
 Leave Link  601 at Wed Jan  8 00:04:57 2020, MaxMem=  4294967296 cpu:              13.3 elap:               1.1
 (Enter /home/cwagen/sw/g16/g16/l701.exe)
 ... and contract with generalized density number  0.
 Compute integral first derivatives.
 D1PCM: PCM CHGder 1st derivatives, ID1Alg=3 FixD1E=F DoIter=F DoCFld=F I1PDM=0.
 GePol: Maximum number of non-zero 1st derivatives   =     362
 Leave Link  701 at Wed Jan  8 00:05:01 2020, MaxMem=  4294967296 cpu:              55.7 elap:               4.0
 (Enter /home/cwagen/sw/g16/g16/l702.exe)
 L702 exits ... SP integral derivatives will be done elsewhere.
 Leave Link  702 at Wed Jan  8 00:05:01 2020, MaxMem=  4294967296 cpu:               0.8 elap:               0.1
 (Enter /home/cwagen/sw/g16/g16/l703.exe)
 Integral derivatives from FoFJK, PRISM(SPDF).
 Compute integral first derivatives, UseDBF=F ICtDFT=           0.
 Calling FoFJK, ICntrl=      2127 FMM=F ISym2X=0 I1Cent= 0 IOpClX= 0 NMat=1 NMatS=1 NMatT=0.
 FoFJK:  IHMeth= 1 ICntrl=    2127 DoSepK=F KAlg= 0 I1Cent=           0 FoldK=F
 IRaf=         0 NMat=       1 IRICut=       1 DoRegI=T DoRafI=F ISym2E= 0 IDoP0=0 IntGTp=1.
 FoFCou: FMM=F IPFlag=           0 FMFlag=      100000 FMFlg1=         800
         NFxFlg=           0 DoJE=F BraDBF=F KetDBF=F FulRan=T
         wScrn=  0.000000 ICntrl=      2127 IOpCl=  0 I1Cent=           0 NGrid=           0
         NMat0=    1 NMatS0=      1 NMatT0=    0 NMatD0=    1 NMtDS0=    0 NMtDT0=    0
 Symmetry not used in FoFCou.
 Leave Link  703 at Wed Jan  8 00:05:03 2020, MaxMem=  4294967296 cpu:              30.6 elap:               2.2
 (Enter /home/cwagen/sw/g16/g16/l716.exe)
 Dipole        =-4.46027223D+00 1.15532791D+00-1.15327004D+00
 ***** Axes restored to original set *****
 -------------------------------------------------------------------
 Center     Atomic                   Forces (Hartrees/Bohr)
 Number     Number              X              Y              Z
 -------------------------------------------------------------------
      1        6          -0.063424861   -0.075224187   -0.101790927
      2        8           0.025413021    0.053264328    0.104412707
      3        6           0.021903939    0.019175638    0.007227012
      4        1           0.000048646    0.000349450   -0.003312147
      5        1           0.000763208    0.005314806   -0.003134594
      6        1           0.000313270    0.002106324   -0.000895509
      7       17           0.020467593   -0.002938739   -0.002750214
      8        6          -0.026115616   -0.007267750   -0.000285692
      9        7           0.020630801    0.005220129    0.000529363
 -------------------------------------------------------------------
 Cartesian Forces:  Max     0.104412707 RMS     0.037021376
 Leave Link  716 at Wed Jan  8 00:05:03 2020, MaxMem=  4294967296 cpu:               1.0 elap:               0.1
 (Enter /home/cwagen/sw/g16/g16/l103.exe)

 GradGradGradGradGradGradGradGradGradGradGradGradGradGradGradGradGradGrad
 Berny optimization.
 FormGI is forming the generalized inverse of G from B-inverse, IUseBI=4.
 Internal  Forces:  Max     0.116406542 RMS     0.024536746
 Search for a local minimum.
 Step number   1 out of a maximum of   41
 All quantities printed in internal units (Hartrees-Bohrs-Radians)
 RMS Force = .25189D-01 SwitMx=.10000D-02 MixMth= 1
 Mixed Optimization -- RFO/linear search
 Second derivative matrix not updated -- first step.
 ITU=  0
     Eigenvalues ---    0.00230   0.04746   0.04746   0.05330   0.05908
     Eigenvalues ---    0.07453   0.10176   0.16000   0.16000   0.16000
     Eigenvalues ---    0.25000   0.25000   0.25000   0.26946   0.33918
     Eigenvalues ---    0.33999   0.34275   0.67840   1.220341000.00000
     Eigenvalues --- 1000.000001000.000001000.000001000.000001000.00000
     Eigenvalues --- 1000.000001000.000001000.000001000.000001000.00000
     Eigenvalues --- 1000.00000
 RFO step:  Lambda=-4.19954403D-02 EMin= 2.30000000D-03
 Linear search not attempted -- first point.
 Maximum step size (   0.300) exceeded in Quadratic search.
    -- Step size scaled by   0.979
 Iteration  1 RMS(Cart)=  0.08538158 RMS(Int)=  0.00953586
 Iteration  2 RMS(Cart)=  0.00897342 RMS(Int)=  0.00557648
 Iteration  3 RMS(Cart)=  0.00007180 RMS(Int)=  0.00557607
 Iteration  4 RMS(Cart)=  0.00000145 RMS(Int)=  0.00557607
 Iteration  5 RMS(Cart)=  0.00000002 RMS(Int)=  0.00557607
 Iteration  1 RMS(Cart)=  0.00000000 RMS(Int)=  0.00000000
 ITry= 1 IFail=0 DXMaxC= 1.72D-01 DCOld= 1.00D+10 DXMaxT= 3.00D-01 DXLimC= 3.00D+00 Rises=F
 Variable       Old X    -DE/DX   Delta X   Delta X   Delta X     New X
                                 (Linear)    (Quad)   (Total)
    R1        2.45227  -0.11641   0.00000  -0.15815  -0.15815   2.29412
    R2        2.94503  -0.02217   0.00000  -0.06966  -0.06966   2.87537
    R3        3.59048  -0.01517   0.00000   0.00000   0.00000   3.59048
    R4        5.48021  -0.00572   0.00000   0.00000   0.00000   5.48021
    R5        2.07331  -0.00302   0.00000  -0.00774  -0.00774   2.06558
    R6        2.07468  -0.00245   0.00000  -0.00629  -0.00629   2.06840
    R7        2.06868  -0.00106   0.00000  -0.00271  -0.00271   2.06597
    R8        2.20923   0.02128   0.00000   0.01650   0.01650   2.22573
    A1        1.99667   0.04113   0.00000   0.16270   0.15003   2.14670
    A2        2.01908  -0.01544   0.00000   0.00943  -0.00898   2.01010
    A3        1.89239  -0.01509   0.00000  -0.08799  -0.07974   1.81265
    A4        1.92419   0.01152   0.00000   0.06180   0.04651   1.97070
    A5        1.77194  -0.01740   0.00000  -0.10058  -0.09485   1.67709
    A6        1.83479  -0.01117   0.00000  -0.09225  -0.09019   1.74460
    A7        1.97398  -0.00025   0.00000  -0.00124  -0.00132   1.97265
    A8        1.87942  -0.00766   0.00000  -0.03859  -0.03877   1.84065
    A9        1.90140  -0.00132   0.00000  -0.00488  -0.00495   1.89645
   A10        1.90356   0.00363   0.00000   0.01478   0.01459   1.91815
   A11        1.90837   0.00149   0.00000   0.00978   0.00979   1.91816
   A12        1.89554   0.00422   0.00000   0.02063   0.02044   1.91599
   A13        3.09039   0.00034   0.00000   0.00375   0.00375   3.09414
   A14        2.85372  -0.00007   0.00000  -0.00074  -0.00074   2.85299
    D1        3.04510  -0.01172   0.00000  -0.10210  -0.10732   2.93778
    D2       -1.13357  -0.01257   0.00000  -0.11075  -0.11591  -1.24948
    D3        0.91915  -0.01251   0.00000  -0.11027  -0.11538   0.80377
    D4       -0.92685   0.01478   0.00000   0.11894   0.12247  -0.80438
    D5        1.17766   0.01393   0.00000   0.11029   0.11387   1.29153
    D6       -3.05280   0.01399   0.00000   0.11077   0.11440  -2.93840
    D7        1.01121  -0.00188   0.00000  -0.01023  -0.00870   1.00251
    D8        3.11572  -0.00273   0.00000  -0.01888  -0.01730   3.09842
    D9       -1.11475  -0.00267   0.00000  -0.01840  -0.01676  -1.13151
         Item               Value     Threshold  Converged?
 Maximum Force            0.116407     0.000450     NO 
 RMS     Force            0.025189     0.000300     NO 
 Maximum Displacement     0.171783     0.001800     NO 
 RMS     Displacement     0.085089     0.001200     NO 
 Predicted change in Energy=-2.514872D-02
 Lowest energy point so far.  Saving SCF results.
 GradGradGradGradGradGradGradGradGradGradGradGradGradGradGradGradGradGrad

 Leave Link  103 at Wed Jan  8 00:05:12 2020, MaxMem=  4294967296 cpu:             120.7 elap:               9.0
 (Enter /home/cwagen/sw/g16/g16/l202.exe)
                          Input orientation:                          
 ---------------------------------------------------------------------
 Center     Atomic      Atomic             Coordinates (Angstroms)
 Number     Number       Type             X           Y           Z
 ---------------------------------------------------------------------
      1          6           0       -0.273832   -0.356964   -0.247248
      2          8           0       -0.241736   -0.592701   -1.437704
      3          6           0       -0.299533   -1.447911    0.813123
      4          1           0       -0.123466   -1.067244    1.822511
      5          1           0       -1.298207   -1.891587    0.751159
      6          1           0        0.454827   -2.198130    0.561448
      7         17           0       -1.279668    1.177700    0.245805
      8          6           0        2.403487    0.586153    0.346467
      9          7           0        3.545093    0.872248    0.392431
 ---------------------------------------------------------------------
                    Distance matrix (angstroms):
                    1          2          3          4          5
     1  C    0.000000
     2  O    1.213997   0.000000
     3  C    1.521582   2.408515   0.000000
     4  H    2.193401   3.296692   1.093056   0.000000
     5  H    2.097910   2.755786   1.094549   1.790908   0.000000
     6  H    2.138884   2.656917   1.093265   1.789862   1.789717
     7  Cl   1.900000   2.654397   2.859431   2.977008   3.110667
     8  C    2.900000   3.401494   3.414894   3.361238   4.472751
     9  N    4.062553   4.453711   4.510129   4.389201   5.587935
                    6          7          8          9
     6  H    0.000000
     7  Cl   3.808455   0.000000
     8  C    3.405249   3.731714   0.000000
     9  N    4.359533   4.836644   1.177806   0.000000
 Stoichiometry    C3H3ClNO(1-)
 Framework group  C1[X(C3H3ClNO)]
 Deg. of freedom    21
 Full point group                 C1      NOp   1
 RotChk:  IX=0 Diff= 6.24D-02
 Largest Abelian subgroup         C1      NOp   1
 Largest concise Abelian subgroup C1      NOp   1
                         Standard orientation:                         
 ---------------------------------------------------------------------
 Center     Atomic      Atomic             Coordinates (Angstroms)
 Number     Number       Type             X           Y           Z
 ---------------------------------------------------------------------
      1          6           0       -0.552292    0.504684    0.234392
      2          8           0       -0.632353    0.855885    1.393718
      3          6           0       -0.594328    1.480923   -0.931971
      4          1           0       -0.308421    1.023662   -1.882728
      5          1           0       -1.630449    1.830035   -0.983085
      6          1           0        0.068574    2.321169   -0.708865
      7         17           0       -1.376424   -1.160187   -0.164370
      8          6           0        2.236053   -0.228366   -0.078291
      9          7           0        3.398817   -0.406032   -0.017938
 ---------------------------------------------------------------------
 Rotational constants (GHZ):           3.4014898           1.4329509           1.2438573
 Leave Link  202 at Wed Jan  8 00:05:12 2020, MaxMem=  4294967296 cpu:               1.2 elap:               0.1
 (Enter /home/cwagen/sw/g16/g16/l301.exe)
 Standard basis: 6-31+G(d) (6D, 7F)
 Ernie: Thresh=  0.10000D-02 Tol=  0.10000D-05 Strict=F.
 There are   124 symmetry adapted cartesian basis functions of A   symmetry.
 There are   124 symmetry adapted basis functions of A   symmetry.
   124 basis functions,   228 primitive gaussians,   124 cartesian basis functions
    27 alpha electrons       27 beta electrons
       nuclear repulsion energy       233.0838495850 Hartrees.
 IExCor=  402 DFT=T Ex+Corr=B3LYP ExCW=0 ScaHFX=  0.200000
 ScaDFX=  0.800000  0.720000  1.000000  0.810000 ScalE2=  1.000000  1.000000
 IRadAn=      5 IRanWt=     -1 IRanGd=            0 ICorTp=0 IEmpDi=  4
 NAtoms=    9 NActive=    9 NUniq=    9 SFac= 1.00D+00 NAtFMM=   60 NAOKFM=F Big=F
 Integral buffers will be    131072 words long.
 Raffenetti 2 integral format.
 Two-electron integral symmetry is turned on.
 ------------------------------------------------------------------------------
 Polarizable Continuum Model (PCM)
 =================================
 Model                : PCM.
 Atomic radii         : SMD-Coulomb.
 Polarization charges : Total charges.
 Charge compensation  : None.
 Solution method      : On-the-fly selection.
 Cavity type          : VdW (van der Waals Surface) (Alpha=1.000).
 Cavity algorithm     : GePol (No added spheres)
                        Default sphere list used, NSphG=    9.
                        Lebedev-Laikov grids with approx.  5.0 points / Ang**2.
                        Smoothing algorithm: York/Karplus (Gamma=1.0000).
                        Polarization charges: spherical gaussians, with
                                              point-specific exponents (IZeta= 3).
                        Self-potential: point-specific (ISelfS= 7).
                        Self-field    : sphere-specific E.n sum rule (ISelfD= 2).
 1st derivatives      : Analytical E(r).r(x)/FMM algorithm (CHGder, D1EAlg=3).
                        Cavity 1st derivative terms included.
 Solvent              : TetraHydroFuran, Eps=   7.425700 Eps(inf)=   1.974025
 ------------------------------------------------------------------------------
 Spheres list:
 ISph  on   Nord     Re0    Alpha      Xe            Ye            Ze
    1   C      1    1.8500  1.000     -0.552292      0.504684      0.234392
    2   O      2    2.2940  1.000     -0.632353      0.855885      1.393718
    3   C      3    1.8500  1.000     -0.594328      1.480923     -0.931971
    4   H      4    1.2000  1.000     -0.308421      1.023662     -1.882728
    5   H      5    1.2000  1.000     -1.630449      1.830035     -0.983085
    6   H      6    1.2000  1.000      0.068574      2.321169     -0.708865
    7  Cl      7    2.3800  1.000     -1.376424     -1.160187     -0.164370
    8   C      8    1.8500  1.000      2.236053     -0.228366     -0.078291
    9   N      9    1.8900  1.000      3.398817     -0.406032     -0.017938
 ------------------------------------------------------------------------------
 GePol: Number of generator spheres                  =       9
 GePol: Total number of spheres                      =       9
 GePol: Number of exposed spheres                    =       9 (100.00%)
 GePol: Number of points                             =    1243
 GePol: Average weight of points                     =       0.14
 GePol: Minimum weight of points                     =   0.30D-07
 GePol: Maximum weight of points                     =    0.18138
 GePol: Number of points with low weight             =      32
 GePol: Fraction of low-weight points (<1% of avg)   =       2.57%
 GePol: Cavity surface area                          =    170.007 Ang**2
 GePol: Cavity volume                                =    151.146 Ang**3
 ------------------------------------------------------------------------------
 Atomic radii for non-electrostatic terms: SMD-CDS.
 ------------------------------------------------------------------------------
 PCM non-electrostatic energy =         0.0010428650 Hartrees.
 Nuclear repulsion after PCM non-electrostatic terms =      233.0848924501 Hartrees.
 Leave Link  301 at Wed Jan  8 00:05:12 2020, MaxMem=  4294967296 cpu:               2.2 elap:               0.2
 (Enter /home/cwagen/sw/g16/g16/l302.exe)
 NPDir=0 NMtPBC=     1 NCelOv=     1 NCel=       1 NClECP=     1 NCelD=      1
         NCelK=      1 NCelE2=     1 NClLst=     1 CellRange=     0.0.
 One-electron integrals computed using PRISM.
 One-electron integral symmetry used in STVInt
 NBasis=   124 RedAO= T EigKep=  1.04D-04  NBF=   124
 NBsUse=   124 1.00D-06 EigRej= -1.00D+00 NBFU=   124
 Precomputing XC quadrature grid using
 IXCGrd= 4 IRadAn=           5 IRanWt=          -1 IRanGd=           0 AccXCQ= 0.00D+00.
 Generated NRdTot=       0 NPtTot=           0 NUsed=           0 NTot=          32
 NSgBfM=   124   124   124   124   124 MxSgAt=     9 MxSgA2=     9.
 Leave Link  302 at Wed Jan  8 00:05:14 2020, MaxMem=  4294967296 cpu:              22.2 elap:               1.6
 (Enter /home/cwagen/sw/g16/g16/l303.exe)
 DipDrv:  MaxL=1.
 Leave Link  303 at Wed Jan  8 00:05:14 2020, MaxMem=  4294967296 cpu:               2.3 elap:               0.3
 (Enter /home/cwagen/sw/g16/g16/l401.exe)
 Initial guess from the checkpoint file:  "/scratch/users/cwagen/cwagen_scan_190_290/Gau-49158.chk"
 B after Tr=     0.000000    0.000000    0.000000
         Rot=    0.999812   -0.018299    0.004550    0.004422 Ang=  -2.22 deg.
 Guess basis will be translated and rotated to current coordinates.
 JPrj=2 DoOrth=T DoCkMO=T.
 Generating alternative initial guess.
 ExpMin= 4.38D-02 ExpMax= 2.52D+04 ExpMxC= 3.78D+03 IAcc=2 IRadAn=         4 AccDes= 0.00D+00
 Harris functional with IExCor=  402 and IRadAn=       4 diagonalized for initial guess.
 HarFok:  IExCor=  402 AccDes= 0.00D+00 IRadAn=         4 IDoV= 1 UseB2=F ITyADJ=14
 ICtDFT=  3500011 ScaDFX=  1.000000  1.000000  1.000000  1.000000
 FoFCou: FMM=F IPFlag=           0 FMFlag=      100000 FMFlg1=           0
         NFxFlg=           0 DoJE=T BraDBF=F KetDBF=T FulRan=T
         wScrn=  0.000000 ICntrl=       500 IOpCl=  0 I1Cent=   200000004 NGrid=           0
         NMat0=    1 NMatS0=      1 NMatT0=    0 NMatD0=    1 NMtDS0=    0 NMtDT0=    0
 Petite list used in FoFCou.
 Harris En= -706.419761583158    
 Leave Link  401 at Wed Jan  8 00:05:17 2020, MaxMem=  4294967296 cpu:              34.7 elap:               2.4
 (Enter /home/cwagen/sw/g16/g16/l502.exe)
 Keep R1 ints in memory in canonical form, NReq=45236517.
 FoFCou: FMM=F IPFlag=           0 FMFlag=           0 FMFlg1=           0
         NFxFlg=           0 DoJE=F BraDBF=F KetDBF=F FulRan=T
         wScrn=  0.000000 ICntrl=       600 IOpCl=  0 I1Cent=           0 NGrid=           0
         NMat0=    1 NMatS0=   7750 NMatT0=    0 NMatD0=    1 NMtDS0=    0 NMtDT0=    0
 Symmetry not used in FoFCou.
 Two-electron integral symmetry not used.
 Closed shell SCF:
 Using DIIS extrapolation, IDIIS=  1040.
 NGot=  4294967296 LenX=  4264898079 LenY=  4264882262
 Requested convergence on RMS density matrix=1.00D-08 within 128 cycles.
 Requested convergence on MAX density matrix=1.00D-06.
 Requested convergence on             energy=1.00D-06.
 No special actions if energy rises.

 Cycle   1  Pass 1  IDiag  1:
 Inv3:  Mode=1 IEnd=     4635147.
 Iteration    1 A*A^-1 deviation from unit magnitude is 3.89D-15 for   1234.
 Iteration    1 A*A^-1 deviation from orthogonality  is 1.82D-15 for   1224   1073.
 Iteration    1 A^-1*A deviation from unit magnitude is 3.22D-15 for   1234.
 Iteration    1 A^-1*A deviation from orthogonality  is 1.43D-15 for   1235   1098.
 E= -706.388579144865    
 DIIS: error= 6.48D-03 at cycle   1 NSaved=   1.
 NSaved= 1 IEnMin= 1 EnMin= -706.388579144865     IErMin= 1 ErrMin= 6.48D-03
 ErrMax= 6.48D-03  0.00D+00 EMaxC= 1.00D-01 BMatC= 1.13D-02 BMatP= 1.13D-02
 IDIUse=3 WtCom= 9.35D-01 WtEn= 6.48D-02
 Coeff-Com:  0.100D+01
 Coeff-En:   0.100D+01
 Coeff:      0.100D+01
 Gap=     0.577 Goal=   None    Shift=    0.000
 GapD=    0.577 DampG=2.000 DampE=1.000 DampFc=2.0000 IDamp=-1.
 RMSDP=4.96D-03 MaxDP=3.23D-01              OVMax= 4.76D-02

 Cycle   2  Pass 1  IDiag  1:
 E= -706.406870840090     Delta-E=       -0.018291695226 Rises=F Damp=F
 DIIS: error= 1.55D-03 at cycle   2 NSaved=   2.
 NSaved= 2 IEnMin= 2 EnMin= -706.406870840090     IErMin= 2 ErrMin= 1.55D-03
 ErrMax= 1.55D-03  0.00D+00 EMaxC= 1.00D-01 BMatC= 1.01D-03 BMatP= 1.13D-02
 IDIUse=3 WtCom= 9.84D-01 WtEn= 1.55D-02
 Coeff-Com:  0.103D+00 0.897D+00
 Coeff-En:   0.000D+00 0.100D+01
 Coeff:      0.102D+00 0.898D+00
 Gap=     0.199 Goal=   None    Shift=    0.000
 RMSDP=9.58D-04 MaxDP=4.76D-02 DE=-1.83D-02 OVMax= 2.41D-02

 Cycle   3  Pass 1  IDiag  1:
 E= -706.406421039984     Delta-E=        0.000449800106 Rises=F Damp=F
 DIIS: error= 2.79D-03 at cycle   3 NSaved=   3.
 NSaved= 3 IEnMin= 2 EnMin= -706.406870840090     IErMin= 2 ErrMin= 1.55D-03
 ErrMax= 2.79D-03  0.00D+00 EMaxC= 1.00D-01 BMatC= 1.60D-03 BMatP= 1.01D-03
 IDIUse=3 WtCom= 1.59D-01 WtEn= 8.41D-01
 Coeff-Com: -0.213D-01 0.568D+00 0.454D+00
 Coeff-En:   0.000D+00 0.582D+00 0.418D+00
 Coeff:     -0.338D-02 0.580D+00 0.424D+00
 Gap=     0.190 Goal=   None    Shift=    0.000
 RMSDP=5.68D-04 MaxDP=2.68D-02 DE= 4.50D-04 OVMax= 1.24D-02

 Cycle   4  Pass 1  IDiag  1:
 E= -706.407823861344     Delta-E=       -0.001402821360 Rises=F Damp=F
 DIIS: error= 8.94D-04 at cycle   4 NSaved=   4.
 NSaved= 4 IEnMin= 4 EnMin= -706.407823861344     IErMin= 4 ErrMin= 8.94D-04
 ErrMax= 8.94D-04  0.00D+00 EMaxC= 1.00D-01 BMatC= 1.31D-04 BMatP= 1.01D-03
 IDIUse=3 WtCom= 9.91D-01 WtEn= 8.94D-03
 Coeff-Com: -0.234D-01 0.275D+00 0.279D+00 0.470D+00
 Coeff-En:   0.000D+00 0.000D+00 0.000D+00 0.100D+01
 Coeff:     -0.232D-01 0.272D+00 0.276D+00 0.475D+00
 Gap=     0.188 Goal=   None    Shift=    0.000
 RMSDP=1.20D-04 MaxDP=2.12D-03 DE=-1.40D-03 OVMax= 2.87D-03

 Cycle   5  Pass 1  IDiag  1:
 E= -706.407925889157     Delta-E=       -0.000102027813 Rises=F Damp=F
 DIIS: error= 1.84D-04 at cycle   5 NSaved=   5.
 NSaved= 5 IEnMin= 5 EnMin= -706.407925889157     IErMin= 5 ErrMin= 1.84D-04
 ErrMax= 1.84D-04  0.00D+00 EMaxC= 1.00D-01 BMatC= 1.23D-05 BMatP= 1.31D-04
 IDIUse=3 WtCom= 9.98D-01 WtEn= 1.84D-03
 Coeff-Com: -0.827D-02 0.793D-01 0.102D+00 0.274D+00 0.554D+00
 Coeff-En:   0.000D+00 0.000D+00 0.000D+00 0.541D-01 0.946D+00
 Coeff:     -0.825D-02 0.792D-01 0.101D+00 0.273D+00 0.554D+00
 Gap=     0.188 Goal=   None    Shift=    0.000
 RMSDP=4.55D-05 MaxDP=9.54D-04 DE=-1.02D-04 OVMax= 9.69D-04

 Cycle   6  Pass 1  IDiag  1:
 E= -706.407937901331     Delta-E=       -0.000012012173 Rises=F Damp=F
 DIIS: error= 5.11D-05 at cycle   6 NSaved=   6.
 NSaved= 6 IEnMin= 6 EnMin= -706.407937901331     IErMin= 6 ErrMin= 5.11D-05
 ErrMax= 5.11D-05  0.00D+00 EMaxC= 1.00D-01 BMatC= 5.48D-07 BMatP= 1.23D-05
 IDIUse=1 WtCom= 1.00D+00 WtEn= 0.00D+00
 Coeff-Com: -0.161D-02 0.876D-02 0.188D-01 0.792D-01 0.242D+00 0.653D+00
 Coeff:     -0.161D-02 0.876D-02 0.188D-01 0.792D-01 0.242D+00 0.653D+00
 Gap=     0.189 Goal=   None    Shift=    0.000
 RMSDP=1.70D-05 MaxDP=8.81D-04 DE=-1.20D-05 OVMax= 3.59D-04

 Cycle   7  Pass 1  IDiag  1:
 E= -706.407938500802     Delta-E=       -0.000000599471 Rises=F Damp=F
 DIIS: error= 1.31D-05 at cycle   7 NSaved=   7.
 NSaved= 7 IEnMin= 7 EnMin= -706.407938500802     IErMin= 7 ErrMin= 1.31D-05
 ErrMax= 1.31D-05  0.00D+00 EMaxC= 1.00D-01 BMatC= 4.35D-08 BMatP= 5.48D-07
 IDIUse=1 WtCom= 1.00D+00 WtEn= 0.00D+00
 Coeff-Com:  0.132D-03-0.443D-02-0.260D-02 0.760D-02 0.528D-01 0.273D+00
 Coeff-Com:  0.674D+00
 Coeff:      0.132D-03-0.443D-02-0.260D-02 0.760D-02 0.528D-01 0.273D+00
 Coeff:      0.674D+00
 Gap=     0.189 Goal=   None    Shift=    0.000
 RMSDP=4.74D-06 MaxDP=2.35D-04 DE=-5.99D-07 OVMax= 6.83D-05

 Cycle   8  Pass 1  IDiag  1:
 E= -706.407938546849     Delta-E=       -0.000000046047 Rises=F Damp=F
 DIIS: error= 5.56D-06 at cycle   8 NSaved=   8.
 NSaved= 8 IEnMin= 8 EnMin= -706.407938546849     IErMin= 8 ErrMin= 5.56D-06
 ErrMax= 5.56D-06  0.00D+00 EMaxC= 1.00D-01 BMatC= 4.74D-09 BMatP= 4.35D-08
 IDIUse=1 WtCom= 1.00D+00 WtEn= 0.00D+00
 Coeff-Com:  0.161D-03-0.284D-02-0.263D-02-0.667D-03 0.144D-01 0.983D-01
 Coeff-Com:  0.328D+00 0.566D+00
 Coeff:      0.161D-03-0.284D-02-0.263D-02-0.667D-03 0.144D-01 0.983D-01
 Coeff:      0.328D+00 0.566D+00
 Gap=     0.189 Goal=   None    Shift=    0.000
 RMSDP=8.21D-07 MaxDP=1.88D-05 DE=-4.60D-08 OVMax= 2.87D-05

 Cycle   9  Pass 1  IDiag  1:
 E= -706.407938549346     Delta-E=       -0.000000002497 Rises=F Damp=F
 DIIS: error= 3.99D-06 at cycle   9 NSaved=   9.
 NSaved= 9 IEnMin= 9 EnMin= -706.407938549346     IErMin= 9 ErrMin= 3.99D-06
 ErrMax= 3.99D-06  0.00D+00 EMaxC= 1.00D-01 BMatC= 2.25D-09 BMatP= 4.74D-09
 IDIUse=1 WtCom= 1.00D+00 WtEn= 0.00D+00
 Coeff-Com:  0.727D-04-0.955D-03-0.128D-02-0.177D-02 0.277D-03 0.158D-01
 Coeff-Com:  0.971D-01 0.420D+00 0.470D+00
 Coeff:      0.727D-04-0.955D-03-0.128D-02-0.177D-02 0.277D-03 0.158D-01
 Coeff:      0.971D-01 0.420D+00 0.470D+00
 Gap=     0.189 Goal=   None    Shift=    0.000
 RMSDP=8.51D-07 MaxDP=5.12D-05 DE=-2.50D-09 OVMax= 1.36D-05

 Cycle  10  Pass 1  IDiag  1:
 E= -706.407938551323     Delta-E=       -0.000000001978 Rises=F Damp=F
 DIIS: error= 5.78D-07 at cycle  10 NSaved=  10.
 NSaved=10 IEnMin=10 EnMin= -706.407938551323     IErMin=10 ErrMin= 5.78D-07
 ErrMax= 5.78D-07  0.00D+00 EMaxC= 1.00D-01 BMatC= 5.04D-11 BMatP= 2.25D-09
 IDIUse=1 WtCom= 1.00D+00 WtEn= 0.00D+00
 Coeff-Com:  0.151D-04-0.855D-04-0.276D-03-0.684D-03-0.162D-02-0.527D-02
 Coeff-Com: -0.689D-03 0.101D+00 0.187D+00 0.721D+00
 Coeff:      0.151D-04-0.855D-04-0.276D-03-0.684D-03-0.162D-02-0.527D-02
 Coeff:     -0.689D-03 0.101D+00 0.187D+00 0.721D+00
 Gap=     0.189 Goal=   None    Shift=    0.000
 RMSDP=1.58D-07 MaxDP=7.71D-06 DE=-1.98D-09 OVMax= 2.84D-06

 Cycle  11  Pass 1  IDiag  1:
 E= -706.407938551382     Delta-E=       -0.000000000059 Rises=F Damp=F
 DIIS: error= 8.02D-08 at cycle  11 NSaved=  11.
 NSaved=11 IEnMin=11 EnMin= -706.407938551382     IErMin=11 ErrMin= 8.02D-08
 ErrMax= 8.02D-08  0.00D+00 EMaxC= 1.00D-01 BMatC= 2.64D-12 BMatP= 5.04D-11
 IDIUse=1 WtCom= 1.00D+00 WtEn= 0.00D+00
 Coeff-Com:  0.136D-05 0.272D-04-0.228D-04-0.153D-03-0.615D-03-0.276D-02
 Coeff-Com: -0.586D-02 0.127D-01 0.490D-01 0.263D+00 0.685D+00
 Coeff:      0.136D-05 0.272D-04-0.228D-04-0.153D-03-0.615D-03-0.276D-02
 Coeff:     -0.586D-02 0.127D-01 0.490D-01 0.263D+00 0.685D+00
 Gap=     0.189 Goal=   None    Shift=    0.000
 RMSDP=3.81D-08 MaxDP=2.16D-06 DE=-5.87D-11 OVMax= 5.70D-07

 Cycle  12  Pass 1  IDiag  1:
 E= -706.407938551384     Delta-E=       -0.000000000002 Rises=F Damp=F
 DIIS: error= 2.46D-08 at cycle  12 NSaved=  12.
 NSaved=12 IEnMin=12 EnMin= -706.407938551384     IErMin=12 ErrMin= 2.46D-08
 ErrMax= 2.46D-08  0.00D+00 EMaxC= 1.00D-01 BMatC= 1.43D-13 BMatP= 2.64D-12
 IDIUse=1 WtCom= 1.00D+00 WtEn= 0.00D+00
 Coeff-Com: -0.526D-06 0.115D-04 0.114D-04-0.505D-05-0.873D-04-0.385D-03
 Coeff-Com: -0.154D-02-0.313D-02 0.394D-02 0.232D-01 0.188D+00 0.790D+00
 Coeff:     -0.526D-06 0.115D-04 0.114D-04-0.505D-05-0.873D-04-0.385D-03
 Coeff:     -0.154D-02-0.313D-02 0.394D-02 0.232D-01 0.188D+00 0.790D+00
 Gap=     0.189 Goal=   None    Shift=    0.000
 RMSDP=7.04D-09 MaxDP=1.91D-07 DE=-1.82D-12 OVMax= 1.72D-07

 Error on total polarization charges =  0.02585
 SCF Done:  E(RB3LYP) =  -706.407938551     A.U. after   12 cycles
            NFock= 12  Conv=0.70D-08     -V/T= 2.0056
 KE= 7.024593854477D+02 PE=-2.143368065802D+03 EE= 5.014158493529D+02
 SMD-CDS (non-electrostatic) energy       (kcal/mol) =       0.65
 (included in total energy above)
 Leave Link  502 at Wed Jan  8 00:05:45 2020, MaxMem=  4294967296 cpu:             400.5 elap:              28.1
 (Enter /home/cwagen/sw/g16/g16/l701.exe)
 ... and contract with generalized density number  0.
 Compute integral first derivatives.
 D1PCM: PCM CHGder 1st derivatives, ID1Alg=3 FixD1E=F DoIter=F DoCFld=F I1PDM=0.
 GePol: Maximum number of non-zero 1st derivatives   =     351
 Leave Link  701 at Wed Jan  8 00:05:49 2020, MaxMem=  4294967296 cpu:              53.5 elap:               3.9
 (Enter /home/cwagen/sw/g16/g16/l702.exe)
 L702 exits ... SP integral derivatives will be done elsewhere.
 Leave Link  702 at Wed Jan  8 00:05:50 2020, MaxMem=  4294967296 cpu:               0.8 elap:               0.1
 (Enter /home/cwagen/sw/g16/g16/l703.exe)
 Integral derivatives from FoFJK, PRISM(SPDF).
 Compute integral first derivatives, UseDBF=F ICtDFT=           0.
 Calling FoFJK, ICntrl=      2127 FMM=F ISym2X=0 I1Cent= 0 IOpClX= 0 NMat=1 NMatS=1 NMatT=0.
 FoFJK:  IHMeth= 1 ICntrl=    2127 DoSepK=F KAlg= 0 I1Cent=           0 FoldK=F
 IRaf=         0 NMat=       1 IRICut=       1 DoRegI=T DoRafI=F ISym2E= 0 IDoP0=0 IntGTp=1.
 FoFCou: FMM=F IPFlag=           0 FMFlag=      100000 FMFlg1=         800
         NFxFlg=           0 DoJE=F BraDBF=F KetDBF=F FulRan=T
         wScrn=  0.000000 ICntrl=      2127 IOpCl=  0 I1Cent=           0 NGrid=           0
         NMat0=    1 NMatS0=      1 NMatT0=    0 NMatD0=    1 NMtDS0=    0 NMtDT0=    0
 Symmetry not used in FoFCou.
 Leave Link  703 at Wed Jan  8 00:05:52 2020, MaxMem=  4294967296 cpu:              31.9 elap:               2.2
 (Enter /home/cwagen/sw/g16/g16/l716.exe)
 Dipole        =-4.47798276D+00 1.50092030D+00-1.01483787D+00
 ***** Axes restored to original set *****
 -------------------------------------------------------------------
 Center     Atomic                   Forces (Hartrees/Bohr)
 Number     Number              X              Y              Z
 -------------------------------------------------------------------
      1        6          -0.036054594   -0.026735196   -0.038851519
      2        8           0.014694157    0.015291347    0.033737170
      3        6           0.013930836    0.015044017    0.003164798
      4        1          -0.000708760    0.000018634   -0.001551427
      5        1          -0.001337263    0.000056233    0.000213008
      6        1          -0.000434712    0.000141115   -0.000596769
      7       17           0.011005096   -0.002860919    0.003099754
      8        6          -0.004880264   -0.002104227    0.000767912
      9        7           0.003785504    0.001148996    0.000017074
 -------------------------------------------------------------------
 Cartesian Forces:  Max     0.038851519 RMS     0.014569366
 Leave Link  716 at Wed Jan  8 00:05:52 2020, MaxMem=  4294967296 cpu:               0.9 elap:               0.1
 (Enter /home/cwagen/sw/g16/g16/l103.exe)

 GradGradGradGradGradGradGradGradGradGradGradGradGradGradGradGradGradGrad
 Berny optimization.
 Using GEDIIS/GDIIS optimizer.
 FormGI is forming the generalized inverse of G from B-inverse, IUseBI=4.
 Internal  Forces:  Max     0.035667574 RMS     0.008838170
 Search for a local minimum.
 Step number   2 out of a maximum of   41
 All quantities printed in internal units (Hartrees-Bohrs-Radians)
 RMS Force = .90334D-02 SwitMx=.10000D-02 MixMth= 1
 Mixed Optimization -- RFO/linear search
 Update second derivatives using D2CorX and points    1    2
 DE= -2.96D-02 DEPred=-2.51D-02 R= 1.18D+00
 TightC=F SS=  1.41D+00  RLast= 4.01D-01 DXNew= 5.0454D-01 1.2027D+00
 Trust test= 1.18D+00 RLast= 4.01D-01 DXMaxT set to 5.05D-01
 ITU=  1  0
 Use linear search instead of GDIIS.
     Eigenvalues ---    0.00230   0.04744   0.04746   0.04945   0.05403
     Eigenvalues ---    0.06132   0.10294   0.15993   0.16000   0.16140
     Eigenvalues ---    0.22579   0.25000   0.26488   0.26986   0.33957
     Eigenvalues ---    0.33988   0.34276   0.59065   1.220151000.00000
     Eigenvalues --- 1000.000001000.000001000.000001000.000001000.00000
     Eigenvalues --- 1000.000001000.000001000.000001000.000001000.00000
     Eigenvalues --- 1000.00000
 RFO step:  Lambda=-2.74001941D-03 EMin= 2.29995916D-03
 Quartic linear search produced a step of  0.51519.
 Iteration  1 RMS(Cart)=  0.07699241 RMS(Int)=  0.00772700
 Iteration  2 RMS(Cart)=  0.00595137 RMS(Int)=  0.00582461
 Iteration  3 RMS(Cart)=  0.00002939 RMS(Int)=  0.00582456
 Iteration  4 RMS(Cart)=  0.00000042 RMS(Int)=  0.00582456
 Iteration  1 RMS(Cart)=  0.00000000 RMS(Int)=  0.00000000
 ITry= 1 IFail=0 DXMaxC= 1.67D-01 DCOld= 1.00D+10 DXMaxT= 5.05D-01 DXLimC= 3.00D+00 Rises=F
 Variable       Old X    -DE/DX   Delta X   Delta X   Delta X     New X
                                 (Linear)    (Quad)   (Total)
    R1        2.29412  -0.03567  -0.08148   0.00800  -0.07348   2.22065
    R2        2.87537  -0.01029  -0.03589  -0.01160  -0.04749   2.82789
    R3        3.59048  -0.00733   0.00000   0.00000   0.00000   3.59048
    R4        5.48021  -0.00116   0.00000   0.00000   0.00000   5.48021
    R5        2.06558  -0.00154  -0.00399  -0.00203  -0.00602   2.05956
    R6        2.06840   0.00119  -0.00324   0.00926   0.00602   2.07442
    R7        2.06597  -0.00024  -0.00139   0.00062  -0.00077   2.06520
    R8        2.22573   0.00395   0.00850  -0.00373   0.00477   2.23050
    A1        2.14670   0.01743   0.07730   0.02912   0.09177   2.23847
    A2        2.01010  -0.00068  -0.00462   0.06150   0.03921   2.04932
    A3        1.81265  -0.00523  -0.04108  -0.02741  -0.05815   1.75450
    A4        1.97070  -0.00584   0.02396  -0.03838  -0.03128   1.93942
    A5        1.67709  -0.01040  -0.04887  -0.04960  -0.09277   1.58432
    A6        1.74460  -0.00358  -0.04646  -0.01633  -0.06509   1.67951
    A7        1.97265  -0.00062  -0.00068  -0.00502  -0.00574   1.96691
    A8        1.84065  -0.00024  -0.01998   0.02748   0.00741   1.84806
    A9        1.89645  -0.00036  -0.00255   0.00157  -0.00102   1.89543
   A10        1.91815   0.00004   0.00752  -0.01295  -0.00553   1.91263
   A11        1.91816   0.00082   0.00504   0.00144   0.00649   1.92465
   A12        1.91599   0.00034   0.01053  -0.01206  -0.00163   1.91435
   A13        3.09414   0.00044   0.00193   0.00783   0.00976   3.10390
   A14        2.85299  -0.00017  -0.00038  -0.00406  -0.00444   2.84855
    D1        2.93778  -0.00845  -0.05529  -0.06866  -0.12839   2.80939
    D2       -1.24948  -0.00890  -0.05972  -0.06947  -0.13361  -1.38309
    D3        0.80377  -0.00882  -0.05944  -0.06828  -0.13210   0.67167
    D4       -0.80438   0.00940   0.06309   0.04046   0.10456  -0.69983
    D5        1.29153   0.00894   0.05866   0.03965   0.09934   1.39087
    D6       -2.93840   0.00903   0.05894   0.04084   0.10085  -2.83755
    D7        1.00251  -0.00059  -0.00448  -0.00856  -0.00968   0.99282
    D8        3.09842  -0.00104  -0.00891  -0.00936  -0.01490   3.08353
    D9       -1.13151  -0.00096  -0.00864  -0.00817  -0.01339  -1.14490
         Item               Value     Threshold  Converged?
 Maximum Force            0.035668     0.000450     NO 
 RMS     Force            0.009033     0.000300     NO 
 Maximum Displacement     0.166714     0.001800     NO 
 RMS     Displacement     0.078830     0.001200     NO 
 Predicted change in Energy=-8.398313D-03
 Lowest energy point so far.  Saving SCF results.
 GradGradGradGradGradGradGradGradGradGradGradGradGradGradGradGradGradGrad

 Leave Link  103 at Wed Jan  8 00:05:56 2020, MaxMem=  4294967296 cpu:              60.9 elap:               4.5
 (Enter /home/cwagen/sw/g16/g16/l202.exe)
                          Input orientation:                          
 ---------------------------------------------------------------------
 Center     Atomic      Atomic             Coordinates (Angstroms)
 Number     Number       Type             X           Y           Z
 ---------------------------------------------------------------------
      1          6           0       -0.335846   -0.399035   -0.296394
      2          8           0       -0.223989   -0.564980   -1.454343
      3          6           0       -0.275475   -1.419985    0.796030
      4          1           0       -0.080186   -0.979023    1.773391
      5          1           0       -1.257397   -1.910694    0.803292
      6          1           0        0.499091   -2.150089    0.548385
      7         17           0       -1.245530    1.166579    0.279218
      8          6           0        2.331760    0.525401    0.366403
      9          7           0        3.474536    0.813392    0.432010
 ---------------------------------------------------------------------
                    Distance matrix (angstroms):
                    1          2          3          4          5
     1  C    0.000000
     2  O    1.175116   0.000000
     3  C    1.496453   2.407875   0.000000
     4  H    2.164661   3.257358   1.089871   0.000000
     5  H    2.084150   2.824145   1.097734   1.787436   0.000000
     6  H    2.115883   2.654494   1.092855   1.790977   1.790959
     7  Cl   1.900000   2.654633   2.810411   2.862549   3.121603
     8  C    2.900000   3.322033   3.281276   3.171812   4.359756
     9  N    4.064427   4.374624   4.379847   4.200965   5.472631
                    6          7          8          9
     6  H    0.000000
     7  Cl   3.757185   0.000000
     8  C    3.248083   3.635342   0.000000
     9  N    4.201076   4.735727   1.180331   0.000000
 Stoichiometry    C3H3ClNO(1-)
 Framework group  C1[X(C3H3ClNO)]
 Deg. of freedom    21
 Full point group                 C1      NOp   1
 RotChk:  IX=0 Diff= 7.56D-02
 Largest Abelian subgroup         C1      NOp   1
 Largest concise Abelian subgroup C1      NOp   1
                         Standard orientation:                         
 ---------------------------------------------------------------------
 Center     Atomic      Atomic             Coordinates (Angstroms)
 Number     Number       Type             X           Y           Z
 ---------------------------------------------------------------------
      1          6           0       -0.609368    0.556354    0.250299
      2          8           0       -0.609425    0.899080    1.374326
      3          6           0       -0.528981    1.407518   -0.977882
      4          1           0       -0.219451    0.845960   -1.859167
      5          1           0       -1.539345    1.807778   -1.132727
      6          1           0        0.167081    2.228392   -0.788151
      7         17           0       -1.351602   -1.147442   -0.144884
      8          6           0        2.164699   -0.228303   -0.064126
      9          7           0        3.326606   -0.425953   -0.000184
 ---------------------------------------------------------------------
 Rotational constants (GHZ):           3.4449397           1.4897961           1.2949810
 Leave Link  202 at Wed Jan  8 00:05:57 2020, MaxMem=  4294967296 cpu:               2.0 elap:               0.2
 (Enter /home/cwagen/sw/g16/g16/l301.exe)
 Standard basis: 6-31+G(d) (6D, 7F)
 Ernie: Thresh=  0.10000D-02 Tol=  0.10000D-05 Strict=F.
 There are   124 symmetry adapted cartesian basis functions of A   symmetry.
 There are   124 symmetry adapted basis functions of A   symmetry.
   124 basis functions,   228 primitive gaussians,   124 cartesian basis functions
    27 alpha electrons       27 beta electrons
       nuclear repulsion energy       235.9798440049 Hartrees.
 IExCor=  402 DFT=T Ex+Corr=B3LYP ExCW=0 ScaHFX=  0.200000
 ScaDFX=  0.800000  0.720000  1.000000  0.810000 ScalE2=  1.000000  1.000000
 IRadAn=      5 IRanWt=     -1 IRanGd=            0 ICorTp=0 IEmpDi=  4
 NAtoms=    9 NActive=    9 NUniq=    9 SFac= 1.00D+00 NAtFMM=   60 NAOKFM=F Big=F
 Integral buffers will be    131072 words long.
 Raffenetti 2 integral format.
 Two-electron integral symmetry is turned on.
 ------------------------------------------------------------------------------
 Polarizable Continuum Model (PCM)
 =================================
 Model                : PCM.
 Atomic radii         : SMD-Coulomb.
 Polarization charges : Total charges.
 Charge compensation  : None.
 Solution method      : On-the-fly selection.
 Cavity type          : VdW (van der Waals Surface) (Alpha=1.000).
 Cavity algorithm     : GePol (No added spheres)
                        Default sphere list used, NSphG=    9.
                        Lebedev-Laikov grids with approx.  5.0 points / Ang**2.
                        Smoothing algorithm: York/Karplus (Gamma=1.0000).
                        Polarization charges: spherical gaussians, with
                                              point-specific exponents (IZeta= 3).
                        Self-potential: point-specific (ISelfS= 7).
                        Self-field    : sphere-specific E.n sum rule (ISelfD= 2).
 1st derivatives      : Analytical E(r).r(x)/FMM algorithm (CHGder, D1EAlg=3).
                        Cavity 1st derivative terms included.
 Solvent              : TetraHydroFuran, Eps=   7.425700 Eps(inf)=   1.974025
 ------------------------------------------------------------------------------
 Spheres list:
 ISph  on   Nord     Re0    Alpha      Xe            Ye            Ze
    1   C      1    1.8500  1.000     -0.609368      0.556354      0.250299
    2   O      2    2.2940  1.000     -0.609425      0.899080      1.374326
    3   C      3    1.8500  1.000     -0.528981      1.407518     -0.977882
    4   H      4    1.2000  1.000     -0.219451      0.845960     -1.859167
    5   H      5    1.2000  1.000     -1.539345      1.807778     -1.132727
    6   H      6    1.2000  1.000      0.167081      2.228392     -0.788151
    7  Cl      7    2.3800  1.000     -1.351602     -1.147442     -0.144884
    8   C      8    1.8500  1.000      2.164699     -0.228303     -0.064126
    9   N      9    1.8900  1.000      3.326606     -0.425953     -0.000184
 ------------------------------------------------------------------------------
 GePol: Number of generator spheres                  =       9
 GePol: Total number of spheres                      =       9
 GePol: Number of exposed spheres                    =       9 (100.00%)
 GePol: Number of points                             =    1243
 GePol: Average weight of points                     =       0.13
 GePol: Minimum weight of points                     =   0.51D-09
 GePol: Maximum weight of points                     =    0.18138
 GePol: Number of points with low weight             =      34
 GePol: Fraction of low-weight points (<1% of avg)   =       2.74%
 GePol: Cavity surface area                          =    167.250 Ang**2
 GePol: Cavity volume                                =    149.994 Ang**3
 ------------------------------------------------------------------------------
 Atomic radii for non-electrostatic terms: SMD-CDS.
 ------------------------------------------------------------------------------
 PCM non-electrostatic energy =         0.0009993169 Hartrees.
 Nuclear repulsion after PCM non-electrostatic terms =      235.9808433218 Hartrees.
 Leave Link  301 at Wed Jan  8 00:05:57 2020, MaxMem=  4294967296 cpu:               2.4 elap:               0.2
 (Enter /home/cwagen/sw/g16/g16/l302.exe)
 NPDir=0 NMtPBC=     1 NCelOv=     1 NCel=       1 NClECP=     1 NCelD=      1
         NCelK=      1 NCelE2=     1 NClLst=     1 CellRange=     0.0.
 One-electron integrals computed using PRISM.
 One-electron integral symmetry used in STVInt
 NBasis=   124 RedAO= T EigKep=  8.41D-05  NBF=   124
 NBsUse=   124 1.00D-06 EigRej= -1.00D+00 NBFU=   124
 Precomputing XC quadrature grid using
 IXCGrd= 4 IRadAn=           5 IRanWt=          -1 IRanGd=           0 AccXCQ= 0.00D+00.
 Generated NRdTot=       0 NPtTot=           0 NUsed=           0 NTot=          32
[...]
 DIIS inversion failure, remove point   8.
 InvSVX:  RCond= 7.24D-10 Info=           0 Equed=N FErr=  2.20D-10 BErr=  9.35D-17
 DIIS inversion failure, remove point   7.
 InvSVX:  RCond= 5.46D-09 Info=           0 Equed=N FErr=  2.46D-11 BErr=  7.31D-17
 DIIS inversion failure, remove point   6.
 InvSVX:  RCond= 9.15D-08 Info=           0 Equed=N FErr=  8.74D-14 BErr=  1.40D-16
 DIIS inversion failure, remove point   5.
 InvSVX:  RCond= 1.37D-07 Info=           0 Equed=N FErr=  2.56D-14 BErr=  5.68D-17
 RFO-DIIS uses    4 points instead of    9
 EnCoef did   100 forward-backward iterations
 IWarn =    2
 Energies =   -706.417066868      -706.417079272      -706.417094101      -706.417095770      -706.417095921    
 Energies =   -706.417094595      -706.417094897      -706.417096698      -706.417095488    
 Point number   1 has energy  -0.7064170669D+03 and has been removed
 EnCoef did   100 forward-backward iterations
 IWarn =    2
 Energies =   -706.417079272      -706.417094101      -706.417095770      -706.417095921      -706.417094595    
 Energies =   -706.417094897      -706.417096698      -706.417095488    
 Point number   1 has energy  -0.7064170793D+03 and has been removed
 EnCoef did   100 forward-backward iterations
 IWarn =    2
 Energies =   -706.417094101      -706.417095770      -706.417095921      -706.417094595      -706.417094897    
 Energies =   -706.417096698      -706.417095488    
 Point number   1 has energy  -0.7064170941D+03 and has been removed
 EnCoef did   100 forward-backward iterations
 IWarn =    2
 Energies =   -706.417095770      -706.417095921      -706.417094595      -706.417094897      -706.417096698    
 Energies =   -706.417095488    
 Point number   3 has energy  -0.7064170946D+03 and has been removed
 EnCoef did   100 forward-backward iterations
 IWarn =    2
 Energies =   -706.417095770      -706.417095921      -706.417094897      -706.417096698      -706.417095488    
 Point number   3 has energy  -0.7064170949D+03 and has been removed
 EnCoef did   100 forward-backward iterations
 IWarn =    2
 Energies =   -706.417095770      -706.417095921      -706.417096698      -706.417095488    
 Point number   1 has energy  -0.7064170958D+03 and has been removed
 EnCoef did    13 forward-backward iterations
 IWarn =    0
 DidBck=T Rises=T En-DIIS coefs:    0.11271    0.78100    0.00000    0.00000    0.10629
                  En-DIIS coefs:    0.00000    0.00000    0.00000    0.00000
 Iteration  1 RMS(Cart)=  0.00049290 RMS(Int)=  0.00000081
 Iteration  2 RMS(Cart)=  0.00000081 RMS(Int)=  0.00000041
 Iteration  1 RMS(Cart)=  0.00000000 RMS(Int)=  0.00000000
 ITry= 1 IFail=0 DXMaxC= 1.56D-03 DCOld= 1.00D+10 DXMaxT= 5.00D-02 DXLimC= 3.00D+00 Rises=F
 Variable       Old X    -DE/DX   Delta X   Delta X   Delta X     New X
                                 (Linear)    (Quad)   (Total)
    R1        2.24036   0.00004   0.00004  -0.00002   0.00002   2.24038
    R2        2.82253   0.00000  -0.00026   0.00020  -0.00006   2.82247
    R3        3.59048  -0.00405   0.00000   0.00000   0.00000   3.59048
    R4        5.48021   0.00525   0.00000   0.00000   0.00000   5.48021
    R5        2.05819   0.00000  -0.00006   0.00007   0.00000   2.05819
    R6        2.07635   0.00000  -0.00008   0.00009   0.00001   2.07636
    R7        2.06467   0.00000   0.00015  -0.00017  -0.00002   2.06465
    R8        2.23090  -0.00001  -0.00002   0.00002  -0.00001   2.23090
    A1        2.27292   0.00001   0.00095  -0.00081   0.00014   2.27306
    A2        2.05556   0.00000  -0.00015   0.00003  -0.00012   2.05545
    A3        1.65753   0.00003   0.00037  -0.00002   0.00035   1.65788
    A4        1.93851  -0.00001  -0.00047   0.00044  -0.00002   1.93849
    A5        1.52495  -0.00004  -0.00172   0.00136  -0.00037   1.52458
    A6        1.70446   0.00001  -0.00034   0.00035   0.00001   1.70447
    A7        1.94439   0.00000  -0.00058   0.00053  -0.00004   1.94435
    A8        1.87273  -0.00001   0.00018  -0.00026  -0.00007   1.87265
    A9        1.90119   0.00000   0.00031  -0.00028   0.00003   1.90122
   A10        1.90029   0.00001   0.00077  -0.00079  -0.00002   1.90026
   A11        1.93059   0.00000  -0.00064   0.00066   0.00002   1.93061
   A12        1.91366   0.00000  -0.00002   0.00011   0.00009   1.91375
   A13        3.07850   0.00001  -0.01057   0.01188   0.00131   3.07982
   A14        2.47925  -0.00001   0.00827  -0.01038  -0.00211   2.47714
    D1        2.55186   0.00000  -0.00429   0.00458   0.00029   2.55216
    D2       -1.65292   0.00000  -0.00357   0.00377   0.00019  -1.65272
    D3        0.41747   0.00000  -0.00332   0.00360   0.00028   0.41775
    D4       -0.79019   0.00000  -0.00231   0.00258   0.00027  -0.78991
    D5        1.28822   0.00000  -0.00159   0.00176   0.00017   1.28839
    D6       -2.92457   0.00000  -0.00134   0.00160   0.00026  -2.92432
    D7        0.90622   0.00000  -0.00333   0.00347   0.00015   0.90637
    D8        2.98463   0.00000  -0.00261   0.00266   0.00005   2.98468
    D9       -1.22816   0.00000  -0.00236   0.00249   0.00013  -1.22804
         Item               Value     Threshold  Converged?
 Maximum Force            0.000044     0.000450     YES
 RMS     Force            0.000013     0.000300     YES
 Maximum Displacement     0.001563     0.001800     YES
 RMS     Displacement     0.000493     0.001200     YES
 Predicted change in Energy=-2.646696D-08
 Optimization completed.
    -- Stationary point found.
                           ----------------------------
                           !   Optimized Parameters   !
                           ! (Angstroms and Degrees)  !
 --------------------------                            --------------------------
 ! Name  Definition              Value          Derivative Info.                !
 --------------------------------------------------------------------------------
 ! R1    R(1,2)                  1.1855         -DE/DX =    0.0                 !
 ! R2    R(1,3)                  1.4936         -DE/DX =    0.0                 !
 ! R3    R(1,7)                  1.9            -DE/DX =   -0.0041              !
 ! R4    R(1,8)                  2.9            -DE/DX =    0.0053              !
 ! R5    R(3,4)                  1.0891         -DE/DX =    0.0                 !
 ! R6    R(3,5)                  1.0988         -DE/DX =    0.0                 !
 ! R7    R(3,6)                  1.0926         -DE/DX =    0.0                 !
 ! R8    R(8,9)                  1.1805         -DE/DX =    0.0                 !
 ! A1    A(2,1,3)              130.2288         -DE/DX =    0.0                 !
 ! A2    A(2,1,7)              117.775          -DE/DX =    0.0                 !
 ! A3    A(2,1,8)               94.9696         -DE/DX =    0.0                 !
 ! A4    A(3,1,7)              111.0685         -DE/DX =    0.0                 !
 ! A5    A(3,1,8)               87.3731         -DE/DX =    0.0                 !
 ! A6    A(7,1,8)               97.6581         -DE/DX =    0.0                 !
 ! A7    A(1,3,4)              111.4054         -DE/DX =    0.0                 !
 ! A8    A(1,3,5)              107.2994         -DE/DX =    0.0                 !
 ! A9    A(1,3,6)              108.9301         -DE/DX =    0.0                 !
 ! A10   A(4,3,5)              108.8784         -DE/DX =    0.0                 !
 ! A11   A(4,3,6)              110.6144         -DE/DX =    0.0                 !
 ! A12   A(5,3,6)              109.6449         -DE/DX =    0.0                 !
 ! A13   L(1,8,9,6,-1)         176.3853         -DE/DX =    0.0                 !
 ! A14   L(1,8,9,6,-2)         142.0504         -DE/DX =    0.0                 !
 ! D1    D(2,1,3,4)            146.211          -DE/DX =    0.0                 !
 ! D2    D(2,1,3,5)            -94.7051         -DE/DX =    0.0                 !
 ! D3    D(2,1,3,6)             23.9195         -DE/DX =    0.0                 !
 ! D4    D(7,1,3,4)            -45.2743         -DE/DX =    0.0                 !
 ! D5    D(7,1,3,5)             73.8096         -DE/DX =    0.0                 !
 ! D6    D(7,1,3,6)           -167.5658         -DE/DX =    0.0                 !
 ! D7    D(8,1,3,4)             51.9229         -DE/DX =    0.0                 !
 ! D8    D(8,1,3,5)            171.0068         -DE/DX =    0.0                 !
 ! D9    D(8,1,3,6)            -70.3686         -DE/DX =    0.0                 !
 --------------------------------------------------------------------------------
 Largest change from initial coordinates is atom    4       0.266 Angstoms.
 GradGradGradGradGradGradGradGradGradGradGradGradGradGradGradGradGradGrad

 Leave Link  103 at Wed Jan  8 00:26:10 2020, MaxMem=  4294967296 cpu:              35.0 elap:               3.0
 (Enter /home/cwagen/sw/g16/g16/l202.exe)
                          Input orientation:                          
 ---------------------------------------------------------------------
 Center     Atomic      Atomic             Coordinates (Angstroms)
 Number     Number       Type             X           Y           Z
 ---------------------------------------------------------------------
      1          6           0       -0.353172   -0.401862   -0.305274
      2          8           0       -0.083490   -0.494619   -1.456008
      3          6           0       -0.266054   -1.413116    0.790479
      4          1           0       -0.007735   -0.948130    1.740899
      5          1           0       -1.255428   -1.882288    0.881518
      6          1           0        0.474901   -2.168318    0.517751
      7         17           0       -1.326837    1.130400    0.255217
      8          6           0        2.283144    0.500078    0.498679
      9          7           0        3.421636    0.759421    0.324732
 ---------------------------------------------------------------------
                    Distance matrix (angstroms):
                    1          2          3          4          5
     1  C    0.000000
     2  O    1.185547   0.000000
     3  C    1.493620   2.433860   0.000000
     4  H    2.145824   3.229803   1.089145   0.000000
     5  H    2.101000   2.960252   1.098760   1.779866   0.000000
     6  H    2.117414   2.647414   1.092577   1.793847   1.791138
     7  Cl   1.900000   2.667375   2.807354   2.875338   3.077928
     8  C    2.900000   3.226636   3.200604   2.981366   4.282957
     9  N    3.999334   4.126689   4.305333   4.084342   5.400331
                    6          7          8          9
     6  H    0.000000
     7  Cl   3.767854   0.000000
     8  C    3.223421   3.672675   0.000000
     9  N    4.158385   4.763450   1.180543   0.000000
 Stoichiometry    C3H3ClNO(1-)
 Framework group  C1[X(C3H3ClNO)]
 Deg. of freedom    21
 Full point group                 C1      NOp   1
 RotChk:  IX=0 Diff= 1.50D-15
 Largest Abelian subgroup         C1      NOp   1
 Largest concise Abelian subgroup C1      NOp   1
                         Standard orientation:                         
 ---------------------------------------------------------------------
 Center     Atomic      Atomic             Coordinates (Angstroms)
 Number     Number       Type             X           Y           Z
 ---------------------------------------------------------------------
      1          6           0       -0.581663    0.565770    0.278888
      2          8           0       -0.391330    0.803420    1.424670
      3          6           0       -0.455485    1.444321   -0.922414
      4          1           0       -0.120357    0.881851   -1.792790
      5          1           0       -1.451397    1.859729   -1.129457
      6          1           0        0.241123    2.255246   -0.696886
      7         17           0       -1.466306   -1.059246   -0.153238
      8          6           0        2.129585   -0.318220   -0.248079
      9          7           0        3.261978   -0.509747    0.025207
 ---------------------------------------------------------------------
 Rotational constants (GHZ):           3.5505865           1.4898163           1.3199623
 Leave Link  202 at Wed Jan  8 00:26:11 2020, MaxMem=  4294967296 cpu:               2.3 elap:               0.2
 (Enter /home/cwagen/sw/g16/g16/l601.exe)
 Copying SCF densities to generalized density rwf, IOpCl= 0 IROHF=0.

 **********************************************************************

            Population analysis using the SCF density.

 **********************************************************************

 Orbital symmetries:
       Occupied  (A) (A) (A) (A) (A) (A) (A) (A) (A) (A) (A) (A)
                 (A) (A) (A) (A) (A) (A) (A) (A) (A) (A) (A) (A)
                 (A) (A) (A)
       Virtual   (A) (A) (A) (A) (A) (A) (A) (A) (A) (A) (A) (A)
                 (A) (A) (A) (A) (A) (A) (A) (A) (A) (A) (A) (A)
                 (A) (A) (A) (A) (A) (A) (A) (A) (A) (A) (A) (A)
                 (A) (A) (A) (A) (A) (A) (A) (A) (A) (A) (A) (A)
                 (A) (A) (A) (A) (A) (A) (A) (A) (A) (A) (A) (A)
                 (A) (A) (A) (A) (A) (A) (A) (A) (A) (A) (A) (A)
                 (A) (A) (A) (A) (A) (A) (A) (A) (A) (A) (A) (A)
                 (A) (A) (A) (A) (A) (A) (A) (A) (A) (A) (A) (A)
                 (A)
 The electronic state is 1-A.
 Alpha  occ. eigenvalues -- -101.52115 -19.17906 -14.25861 -10.33318 -10.19170
 Alpha  occ. eigenvalues --  -10.12270  -9.43736  -7.20000  -7.19255  -7.19178
 Alpha  occ. eigenvalues --   -1.08631  -0.81462  -0.81311  -0.74007  -0.54059
 Alpha  occ. eigenvalues --   -0.47046  -0.45741  -0.45390  -0.39133  -0.37836
 Alpha  occ. eigenvalues --   -0.35030  -0.30143  -0.29949  -0.28292  -0.26463
 Alpha  occ. eigenvalues --   -0.26435  -0.23100
 Alpha virt. eigenvalues --   -0.02301   0.00801   0.03305   0.04780   0.05351
 Alpha virt. eigenvalues --    0.05875   0.08242   0.08403   0.09109   0.09548
 Alpha virt. eigenvalues --    0.10537   0.11435   0.11512   0.12976   0.13476
 Alpha virt. eigenvalues --    0.13872   0.14371   0.16249   0.19110   0.20555
 Alpha virt. eigenvalues --    0.22165   0.23011   0.24044   0.25387   0.26002
 Alpha virt. eigenvalues --    0.27932   0.28705   0.29901   0.31738   0.34824
 Alpha virt. eigenvalues --    0.35668   0.40038   0.45403   0.52235   0.57871
 Alpha virt. eigenvalues --    0.62771   0.64067   0.65459   0.67973   0.70625
 Alpha virt. eigenvalues --    0.72752   0.74468   0.75594   0.79365   0.81528
 Alpha virt. eigenvalues --    0.85370   0.86464   0.90036   0.91302   0.93955
 Alpha virt. eigenvalues --    0.97322   0.99561   1.01833   1.02704   1.03681
 Alpha virt. eigenvalues --    1.07786   1.10047   1.14957   1.20692   1.22960
 Alpha virt. eigenvalues --    1.27230   1.29809   1.32958   1.39285   1.44203
 Alpha virt. eigenvalues --    1.50550   1.55682   1.61591   1.61886   1.62641
 Alpha virt. eigenvalues --    1.64191   1.69718   1.76016   1.81657   1.82574
 Alpha virt. eigenvalues --    1.89240   2.03615   2.04191   2.06340   2.14293
 Alpha virt. eigenvalues --    2.22804   2.31903   2.42220   2.51796   2.55621
 Alpha virt. eigenvalues --    2.63510   2.66949   2.67519   2.88324   3.06113
 Alpha virt. eigenvalues --    3.12967   4.01124   4.17654   4.27812   4.31428
 Alpha virt. eigenvalues --    4.38251   4.45661
          Condensed to atoms (all electrons):
               1          2          3          4          5          6
     1  C    6.898634   0.330186  -1.003903  -0.088619   0.038267  -0.127753
     2  O    0.330186   8.056744   0.002629   0.006721  -0.007279   0.005946
     3  C   -1.003903   0.002629   6.528571   0.408607   0.307494   0.438902
     4  H   -0.088619   0.006721   0.408607   0.430997  -0.024162  -0.018771
     5  H    0.038267  -0.007279   0.307494  -0.024162   0.453742  -0.021747
     6  H   -0.127753   0.005946   0.438902  -0.018771  -0.021747   0.447340
     7  Cl  -0.572438  -0.061489   0.250250   0.014684  -0.013961   0.014489
     8  C    0.547588  -0.083737  -0.366326  -0.006440   0.004502  -0.000877
     9  N   -0.037143   0.001148   0.016694  -0.000046  -0.000048  -0.000184
               7          8          9
     1  C   -0.572438   0.547588  -0.037143
     2  O   -0.061489  -0.083737   0.001148
     3  C    0.250250  -0.366326   0.016694
     4  H    0.014684  -0.006440  -0.000046
     5  H   -0.013961   0.004502  -0.000048
     6  H    0.014489  -0.000877  -0.000184
     7  Cl  17.546552  -0.123399   0.002806
     8  C   -0.123399   5.682315   0.626692
     9  N    0.002806   0.626692   7.036537
 Mulliken charges:
               1
     1  C    0.015181
     2  O   -0.250870
     3  C   -0.582918
     4  H    0.277029
     5  H    0.263192
     6  H    0.262654
     7  Cl  -0.057494
     8  C   -0.280317
     9  N   -0.646457
 Sum of Mulliken charges =  -1.00000
 Mulliken charges with hydrogens summed into heavy atoms:
               1
     1  C    0.015181
     2  O   -0.250870
     3  C    0.219958
     7  Cl  -0.057494
     8  C   -0.280317
     9  N   -0.646457
 Electronic spatial extent (au):  <R**2>=            930.0205
 Charge=             -1.0000 electrons
 Dipole moment (field-independent basis, Debye):
    X=            -11.3035    Y=              4.5270    Z=             -2.2081  Tot=             12.3749
 Quadrupole moment (field-independent basis, Debye-Ang):
   XX=            -86.2240   YY=            -45.5854   ZZ=            -48.4391
   XY=              3.3293   XZ=              1.3898   YZ=             -3.3592
 Traceless Quadrupole moment (field-independent basis, Debye-Ang):
   XX=            -26.1412   YY=             14.4974   ZZ=             11.6437
   XY=              3.3293   XZ=              1.3898   YZ=             -3.3592
 Octapole moment (field-independent basis, Debye-Ang**2):
  XXX=           -155.9579  YYY=             11.0446  ZZZ=             -2.5278  XYY=            -14.2745
  XXY=             26.3153  XXZ=              0.7287  XZZ=             -9.9866  YZZ=              0.7759
  YYZ=             -2.4833  XYZ=              1.3735
 Hexadecapole moment (field-independent basis, Debye-Ang**3):
 XXXX=          -1354.4016 YYYY=           -284.7485 ZZZZ=           -184.7961 XXXY=             73.6463
 XXXZ=             -1.9999 YYYX=             16.9380 YYYZ=             -2.3596 ZZZX=              4.7679
 ZZZY=             -3.6300 XXYY=           -209.0275 XXZZ=           -185.6067 YYZZ=            -81.5586
 XXYZ=              0.3225 YYXZ=              3.6330 ZZXY=              4.1460
 N-N= 2.364128128605D+02 E-N=-2.150194997428D+03  KE= 7.026037001098D+02
 No NMR shielding tensors so no spin-rotation constants.
 Leave Link  601 at Wed Jan  8 00:26:12 2020, MaxMem=  4294967296 cpu:              12.2 elap:               1.0
 (Enter /home/cwagen/sw/g16/g16/l9999.exe)
 1\1\GINC-NODE087\FOpt\RB3LYP\6-31+G(d)\C3H3Cl1N1O1(1-)\CWAGEN\08-Jan-2
 020\0\\#p opt=modredundant b3lyp/6-31+g(d) scrf=(smd, solvent=tetrahyd
 rofuran)\\title\\-1,1\C,-0.3531724469,-0.401862252,-0.3052744749\O,-0.
 0834899674,-0.494618692,-1.4560084556\C,-0.2660536308,-1.413115501,0.7
 904793455\H,-0.0077354485,-0.9481301421,1.7408988224\H,-1.2554278415,-
 1.882288396,0.8815176255\H,0.4749007373,-2.1683183703,0.5177513652\Cl,
 -1.3268373517,1.1303996211,0.2552165594\C,2.2831438568,0.5000776513,0.
 4986787184\N,3.4216362427,0.7594214809,0.324731944\\Version=AS64L-G16R
 evA.03\State=1-A\HF=-706.4170955\RMSD=6.349e-09\RMSF=1.864e-03\Dipole=
 -4.4174756,-2.0150219,0.3598991\Quadrupole=-18.9698067,11.1578692,7.81
 19375,-3.1713746,-3.0341315,-2.4296674\PG=C01 [X(C3H3Cl1N1O1)]\\@


 Everywhere is walking distance if you have the time.
                                    -- Steven Wright
 Job cpu time:       0 days  4 hours 53 minutes 54.2 seconds.
 Elapsed time:       0 days  0 hours 21 minutes 50.3 seconds.
 File lengths (MBytes):  RWF=     66 Int=      0 D2E=      0 Chk=      3 Scr=      1
 Normal termination of Gaussian 16 at Wed Jan  8 00:26:12 2020.
