 Entering Gaussian System, Link 0=g16
 Input=scan_250_150.gjf
 Output=scan_250_150.out
 Initial command:
 /home/cwagen/sw/g16/g16/l1.exe "/scratch/users/cwagen/cwagen_scan_250_150/Gau-14498.inp" -scrdir="/scratch/users/cwagen/cwagen_scan_250_150/"
 Entering Link 1 = /home/cwagen/sw/g16/g16/l1.exe PID=     14499.
  
 Copyright (c) 1988,1990,1992,1993,1995,1998,2003,2009,2016,
            Gaussian, Inc.  All Rights Reserved.
  
 This is part of the Gaussian(R) 16 program.  It is based on
 the Gaussian(R) 09 system (copyright 2009, Gaussian, Inc.),
 the Gaussian(R) 03 system (copyright 2003, Gaussian, Inc.),
 the Gaussian(R) 98 system (copyright 1998, Gaussian, Inc.),
 the Gaussian(R) 94 system (copyright 1995, Gaussian, Inc.),
 the Gaussian 92(TM) system (copyright 1992, Gaussian, Inc.),
 the Gaussian 90(TM) system (copyright 1990, Gaussian, Inc.),
 the Gaussian 88(TM) system (copyright 1988, Gaussian, Inc.),
 the Gaussian 86(TM) system (copyright 1986, Carnegie Mellon
 University), and the Gaussian 82(TM) system (copyright 1983,
 Carnegie Mellon University). Gaussian is a federally registered
 trademark of Gaussian, Inc.
  
 This software contains proprietary and confidential information,
 including trade secrets, belonging to Gaussian, Inc.
  
 This software is provided under written license and may be
 used, copied, transmitted, or stored only in accord with that
 written license.
  
 The following legend is applicable only to US Government
 contracts under FAR:
  
                    RESTRICTED RIGHTS LEGEND
  
 Use, reproduction and disclosure by the US Government is
 subject to restrictions as set forth in subparagraphs (a)
 and (c) of the Commercial Computer Software - Restricted
 Rights clause in FAR 52.227-19.
  
 Gaussian, Inc.
 340 Quinnipiac St., Bldg. 40, Wallingford CT 06492
  
  
 ---------------------------------------------------------------
 Warning -- This program may not be used in any manner that
 competes with the business of Gaussian, Inc. or will provide
 assistance to any competitor of Gaussian, Inc.  The licensee
 of this program is prohibited from giving any competitor of
 Gaussian, Inc. access to this program.  By using this program,
 the user acknowledges that Gaussian, Inc. is engaged in the
 business of creating and licensing software in the field of
 computational chemistry and represents and warrants to the
 licensee that it is not a competitor of Gaussian, Inc. and that
 it will not use this program in any manner prohibited above.
 ---------------------------------------------------------------
  

 Cite this work as:
 Gaussian 16, Revision A.03,
 M. J. Frisch, G. W. Trucks, H. B. Schlegel, G. E. Scuseria, 
 M. A. Robb, J. R. Cheeseman, G. Scalmani, V. Barone, 
 G. A. Petersson, H. Nakatsuji, X. Li, M. Caricato, A. V. Marenich, 
 J. Bloino, B. G. Janesko, R. Gomperts, B. Mennucci, H. P. Hratchian, 
 J. V. Ortiz, A. F. Izmaylov, J. L. Sonnenberg, D. Williams-Young, 
 F. Ding, F. Lipparini, F. Egidi, J. Goings, B. Peng, A. Petrone, 
 T. Henderson, D. Ranasinghe, V. G. Zakrzewski, J. Gao, N. Rega, 
 G. Zheng, W. Liang, M. Hada, M. Ehara, K. Toyota, R. Fukuda, 
 J. Hasegawa, M. Ishida, T. Nakajima, Y. Honda, O. Kitao, H. Nakai, 
 T. Vreven, K. Throssell, J. A. Montgomery, Jr., J. E. Peralta, 
 F. Ogliaro, M. J. Bearpark, J. J. Heyd, E. N. Brothers, K. N. Kudin, 
 V. N. Staroverov, T. A. Keith, R. Kobayashi, J. Normand, 
 K. Raghavachari, A. P. Rendell, J. C. Burant, S. S. Iyengar, 
 J. Tomasi, M. Cossi, J. M. Millam, M. Klene, C. Adamo, R. Cammi, 
 J. W. Ochterski, R. L. Martin, K. Morokuma, O. Farkas, 
 J. B. Foresman, and D. J. Fox, Gaussian, Inc., Wallingford CT, 2016.
 
 ******************************************
 Gaussian 16:  AS64L-G16RevA.03 25-Dec-2016
                 8-Jan-2020 
 ******************************************
 %nprocshared=16
 Will use up to   16 processors via shared memory.
 %mem=32GB
 ----------------------------------------------------------------------
 #p opt=modredundant b3lyp/6-31+g(d) scrf=(smd, solvent=tetrahydrofuran
 )
 ----------------------------------------------------------------------
 1/18=120,19=15,26=3,38=1/1,3;
 2/9=110,12=2,17=6,18=5,40=1/2;
 3/5=1,6=6,7=11,11=2,25=1,30=1,70=32201,71=1,72=20,74=-5/1,2,3;
 4//1;
 5/5=2,38=5,53=20/2;
 6/7=2,8=2,9=2,10=2,28=1/1;
 7//1,2,3,16;
 1/18=20,19=15,26=3/3(2);
 2/9=110/2;
 99//99;
 2/9=110/2;
 3/5=1,6=6,7=11,11=2,25=1,30=1,70=32205,71=1,72=20,74=-5/1,2,3;
 4/5=5,16=3,69=1/1;
 5/5=2,38=5,53=20/2;
 7//1,2,3,16;
 1/18=20,19=15,26=3/3(-5);
 2/9=110/2;
 6/7=2,8=2,9=2,10=2,19=2,28=1/1;
 99/9=1/99;
 Leave Link    1 at Wed Jan  8 01:12:04 2020, MaxMem=  4294967296 cpu:               8.3 elap:               0.9
 (Enter /home/cwagen/sw/g16/g16/l101.exe)
 -----
 title
 -----
 Symbolic Z-matrix:
 Charge = -1 Multiplicity = 1
 6                    -0.19426  -0.292    -0.21291 
 8                    -0.25532  -0.66526  -1.45426 
 6                    -0.33095  -1.45422   0.81632 
 1                    -0.18039  -1.13044   1.85373 
 1                    -1.34067  -1.87301   0.71427 
 1                     0.39707  -2.23395   0.57058 
 17                   -1.69111   1.60688   0.42247 
 6                     1.19642   0.19498   0.0679 
 7                     2.33099   0.47528   0.0982 
 
 Add virtual bond connecting atoms Cl7        and C1         Dist= 4.72D+00.
 The following ModRedundant input section has been read:
 B       1       7 F                                                           
 B       1       8 F                                                           
 
 ITRead=  0  0  0  0  0  0  0  0  0
 MicOpt= -1 -1 -1 -1 -1 -1 -1 -1 -1
 NAtoms=      9 NQM=        9 NQMF=       0 NMMI=      0 NMMIF=      0
                NMic=       0 NMicF=      0.
                    Isotopes and Nuclear Properties:
 (Nuclear quadrupole moments (NQMom) in fm**2, nuclear magnetic moments (NMagM)
  in nuclear magnetons)

  Atom         1           2           3           4           5           6           7           8           9
 IAtWgt=          12          16          12           1           1           1          35          12          14
 AtmWgt=  12.0000000  15.9949146  12.0000000   1.0078250   1.0078250   1.0078250  34.9688527  12.0000000  14.0030740
 NucSpn=           0           0           0           1           1           1           3           0           2
 AtZEff=   0.0000000   0.0000000   0.0000000   0.0000000   0.0000000   0.0000000   0.0000000   0.0000000   0.0000000
 NQMom=    0.0000000   0.0000000   0.0000000   0.0000000   0.0000000   0.0000000  -8.1650000   0.0000000   2.0440000
 NMagM=    0.0000000   0.0000000   0.0000000   2.7928460   2.7928460   2.7928460   0.8218740   0.0000000   0.4037610
 AtZNuc=   6.0000000   8.0000000   6.0000000   1.0000000   1.0000000   1.0000000  17.0000000   6.0000000   7.0000000
 Leave Link  101 at Wed Jan  8 01:12:04 2020, MaxMem=  4294967296 cpu:               5.6 elap:               0.7
 (Enter /home/cwagen/sw/g16/g16/l103.exe)

 GradGradGradGradGradGradGradGradGradGradGradGradGradGradGradGradGradGrad
 Berny optimization.
 Initialization pass.
                           ----------------------------
                           !    Initial Parameters    !
                           ! (Angstroms and Degrees)  !
 --------------------------                            --------------------------
 ! Name  Definition              Value          Derivative Info.                !
 --------------------------------------------------------------------------------
 ! R1    R(1,2)                  1.2977         estimate D2E/DX2                !
 ! R2    R(1,3)                  1.5584         estimate D2E/DX2                !
 ! R3    R(1,7)                  2.5            Frozen                          !
 ! R4    R(1,8)                  1.5            Frozen                          !
 ! R5    R(3,4)                  1.0971         estimate D2E/DX2                !
 ! R6    R(3,5)                  1.0979         estimate D2E/DX2                !
 ! R7    R(3,6)                  1.0947         estimate D2E/DX2                !
 ! R8    R(8,9)                  1.1691         estimate D2E/DX2                !
 ! A1    A(2,1,3)              114.4006         estimate D2E/DX2                !
 ! A2    A(2,1,7)              115.6846         estimate D2E/DX2                !
 ! A3    A(2,1,8)              108.426          estimate D2E/DX2                !
 ! A4    A(3,1,7)              110.248          estimate D2E/DX2                !
 ! A5    A(3,1,8)              101.5248         estimate D2E/DX2                !
 ! A6    A(7,1,8)              105.1256         estimate D2E/DX2                !
 ! A7    A(1,3,4)              113.1005         estimate D2E/DX2                !
 ! A8    A(1,3,5)              107.683          estimate D2E/DX2                !
 ! A9    A(1,3,6)              108.9421         estimate D2E/DX2                !
 ! A10   A(4,3,5)              109.0662         estimate D2E/DX2                !
 ! A11   A(4,3,6)              109.3417         estimate D2E/DX2                !
 ! A12   A(5,3,6)              108.6067         estimate D2E/DX2                !
 ! A13   L(1,8,9,6,-1)         177.6482         estimate D2E/DX2                !
 ! A14   L(1,8,9,6,-2)         167.588          estimate D2E/DX2                !
 ! D1    D(2,1,3,4)            174.4714         estimate D2E/DX2                !
 ! D2    D(2,1,3,5)            -64.9488         estimate D2E/DX2                !
 ! D3    D(2,1,3,6)             52.6633         estimate D2E/DX2                !
 ! D4    D(7,1,3,4)            -53.1046         estimate D2E/DX2                !
 ! D5    D(7,1,3,5)             67.4752         estimate D2E/DX2                !
 ! D6    D(7,1,3,6)           -174.9127         estimate D2E/DX2                !
 ! D7    D(8,1,3,4)             57.938          estimate D2E/DX2                !
 ! D8    D(8,1,3,5)            178.5177         estimate D2E/DX2                !
 ! D9    D(8,1,3,6)            -63.8702         estimate D2E/DX2                !
 --------------------------------------------------------------------------------
 Trust Radius=3.00D-01 FncErr=1.00D-07 GrdErr=1.00D-06 EigMax=2.50D+02 EigMin=1.00D-04
 Number of steps in this run=     41 maximum allowed number of steps=    100.
 GradGradGradGradGradGradGradGradGradGradGradGradGradGradGradGradGradGrad

 Leave Link  103 at Wed Jan  8 01:12:04 2020, MaxMem=  4294967296 cpu:               1.3 elap:               0.2
 (Enter /home/cwagen/sw/g16/g16/l202.exe)
                          Input orientation:                          
 ---------------------------------------------------------------------
 Center     Atomic      Atomic             Coordinates (Angstroms)
 Number     Number       Type             X           Y           Z
 ---------------------------------------------------------------------
      1          6           0       -0.194263   -0.291999   -0.212908
      2          8           0       -0.255321   -0.665256   -1.454255
      3          6           0       -0.330945   -1.454221    0.816316
      4          1           0       -0.180394   -1.130438    1.853734
      5          1           0       -1.340665   -1.873010    0.714272
      6          1           0        0.397068   -2.233949    0.570583
      7         17           0       -1.691111    1.606880    0.422470
      8          6           0        1.196420    0.194981    0.067898
      9          7           0        2.330991    0.475279    0.098201
 ---------------------------------------------------------------------
                    Distance matrix (angstroms):
                    1          2          3          4          5
     1  C    0.000000
     2  O    1.297687   0.000000
     3  C    1.558443   2.404928   0.000000
     4  H    2.230287   3.341377   1.097150   0.000000
     5  H    2.161827   2.709087   1.097876   1.787740   0.000000
     6  H    2.175937   2.643176   1.094698   1.788205   1.780629
     7  Cl   2.500000   3.278138   3.372759   3.438560   3.509643
     8  C    1.500000   2.272556   2.369143   2.615638   3.336343
     9  N    2.657520   3.224895   3.365199   3.459375   4.401711
                    6          7          8          9
     6  H    0.000000
     7  Cl   4.374288   0.000000
     8  C    2.606023   3.233730   0.000000
     9  N    3.362011   4.190820   1.169075   0.000000
 Stoichiometry    C3H3ClNO(1-)
 Framework group  C1[X(C3H3ClNO)]
 Deg. of freedom    21
 Full point group                 C1      NOp   1
 Largest Abelian subgroup         C1      NOp   1
 Largest concise Abelian subgroup C1      NOp   1
                         Standard orientation:                         
 ---------------------------------------------------------------------
 Center     Atomic      Atomic             Coordinates (Angstroms)
 Number     Number       Type             X           Y           Z
 ---------------------------------------------------------------------
      1          6           0        0.322247    0.417421    0.211274
      2          8           0        0.633468    0.839877    1.398146
      3          6           0        0.698830    1.397631   -0.940297
      4          1           0        0.515306    0.980184   -1.938192
      5          1           0        0.095711    2.306445   -0.815256
      6          1           0        1.756397    1.664812   -0.847938
      7         17           0       -2.027996   -0.386772   -0.070912
      8          6           0        1.182922   -0.768116   -0.110817
      9          7           0        1.973825   -1.625278   -0.191320
 ---------------------------------------------------------------------
 Rotational constants (GHZ):           3.5299391           1.8071229           1.5430193
 Leave Link  202 at Wed Jan  8 01:12:05 2020, MaxMem=  4294967296 cpu:               2.1 elap:               0.2
 (Enter /home/cwagen/sw/g16/g16/l301.exe)
 Standard basis: 6-31+G(d) (6D, 7F)
 Ernie: Thresh=  0.10000D-02 Tol=  0.10000D-05 Strict=F.
 There are   124 symmetry adapted cartesian basis functions of A   symmetry.
 There are   124 symmetry adapted basis functions of A   symmetry.
   124 basis functions,   228 primitive gaussians,   124 cartesian basis functions
    27 alpha electrons       27 beta electrons
       nuclear repulsion energy       240.7037782989 Hartrees.
 IExCor=  402 DFT=T Ex+Corr=B3LYP ExCW=0 ScaHFX=  0.200000
 ScaDFX=  0.800000  0.720000  1.000000  0.810000 ScalE2=  1.000000  1.000000
 IRadAn=      5 IRanWt=     -1 IRanGd=            0 ICorTp=0 IEmpDi=  4
 NAtoms=    9 NActive=    9 NUniq=    9 SFac= 1.00D+00 NAtFMM=   60 NAOKFM=F Big=F
 Integral buffers will be    131072 words long.
 Raffenetti 2 integral format.
 Two-electron integral symmetry is turned on.
 ------------------------------------------------------------------------------
 Polarizable Continuum Model (PCM)
 =================================
 Model                : PCM.
 Atomic radii         : SMD-Coulomb.
 Polarization charges : Total charges.
 Charge compensation  : None.
 Solution method      : On-the-fly selection.
 Cavity type          : VdW (van der Waals Surface) (Alpha=1.000).
 Cavity algorithm     : GePol (No added spheres)
                        Default sphere list used, NSphG=    9.
                        Lebedev-Laikov grids with approx.  5.0 points / Ang**2.
                        Smoothing algorithm: York/Karplus (Gamma=1.0000).
                        Polarization charges: spherical gaussians, with
                                              point-specific exponents (IZeta= 3).
                        Self-potential: point-specific (ISelfS= 7).
                        Self-field    : sphere-specific E.n sum rule (ISelfD= 2).
 1st derivatives      : Analytical E(r).r(x)/FMM algorithm (CHGder, D1EAlg=3).
                        Cavity 1st derivative terms included.
 Solvent              : TetraHydroFuran, Eps=   7.425700 Eps(inf)=   1.974025
 ------------------------------------------------------------------------------
 Spheres list:
 ISph  on   Nord     Re0    Alpha      Xe            Ye            Ze
    1   C      1    1.8500  1.000      0.322247      0.417421      0.211274
    2   O      2    2.2940  1.000      0.633468      0.839877      1.398146
    3   C      3    1.8500  1.000      0.698830      1.397631     -0.940297
    4   H      4    1.2000  1.000      0.515306      0.980184     -1.938192
    5   H      5    1.2000  1.000      0.095711      2.306445     -0.815256
    6   H      6    1.2000  1.000      1.756397      1.664812     -0.847938
    7  Cl      7    2.3800  1.000     -2.027996     -0.386772     -0.070912
    8   C      8    1.8500  1.000      1.182922     -0.768116     -0.110817
    9   N      9    1.8900  1.000      1.973825     -1.625278     -0.191320
 ------------------------------------------------------------------------------
 GePol: Number of generator spheres                  =       9
 GePol: Total number of spheres                      =       9
 GePol: Number of exposed spheres                    =       9 (100.00%)
 GePol: Number of points                             =    1189
 GePol: Average weight of points                     =       0.14
 GePol: Minimum weight of points                     =   0.18D-09
 GePol: Maximum weight of points                     =    0.18138
 GePol: Number of points with low weight             =      41
 GePol: Fraction of low-weight points (<1% of avg)   =       3.45%
 GePol: Cavity surface area                          =    163.009 Ang**2
 GePol: Cavity volume                                =    148.582 Ang**3
 ------------------------------------------------------------------------------
 Atomic radii for non-electrostatic terms: SMD-CDS.
 ------------------------------------------------------------------------------
 PCM non-electrostatic energy =        -0.0012318762 Hartrees.
 Nuclear repulsion after PCM non-electrostatic terms =      240.7025464228 Hartrees.
 Leave Link  301 at Wed Jan  8 01:12:05 2020, MaxMem=  4294967296 cpu:               2.3 elap:               0.3
 (Enter /home/cwagen/sw/g16/g16/l302.exe)
 NPDir=0 NMtPBC=     1 NCelOv=     1 NCel=       1 NClECP=     1 NCelD=      1
         NCelK=      1 NCelE2=     1 NClLst=     1 CellRange=     0.0.
 One-electron integrals computed using PRISM.
 One-electron integral symmetry used in STVInt
 NBasis=   124 RedAO= T EigKep=  4.52D-05  NBF=   124
 NBsUse=   124 1.00D-06 EigRej= -1.00D+00 NBFU=   124
 Precomputing XC quadrature grid using
 IXCGrd= 4 IRadAn=           5 IRanWt=          -1 IRanGd=           0 AccXCQ= 0.00D+00.
 Generated NRdTot=       0 NPtTot=           0 NUsed=           0 NTot=          32
 NSgBfM=   124   124   124   124   124 MxSgAt=     9 MxSgA2=     9.
 Leave Link  302 at Wed Jan  8 01:12:07 2020, MaxMem=  4294967296 cpu:              22.2 elap:               1.9
 (Enter /home/cwagen/sw/g16/g16/l303.exe)
 DipDrv:  MaxL=1.
 Leave Link  303 at Wed Jan  8 01:12:07 2020, MaxMem=  4294967296 cpu:               5.1 elap:               0.5
 (Enter /home/cwagen/sw/g16/g16/l401.exe)
 ExpMin= 4.38D-02 ExpMax= 2.52D+04 ExpMxC= 3.78D+03 IAcc=3 IRadAn=         5 AccDes= 0.00D+00
 Harris functional with IExCor=  402 and IRadAn=       5 diagonalized for initial guess.
 HarFok:  IExCor=  402 AccDes= 0.00D+00 IRadAn=         5 IDoV= 1 UseB2=F ITyADJ=14
 ICtDFT=  3500011 ScaDFX=  1.000000  1.000000  1.000000  1.000000
 FoFCou: FMM=F IPFlag=           0 FMFlag=      100000 FMFlg1=           0
         NFxFlg=           0 DoJE=T BraDBF=F KetDBF=T FulRan=T
         wScrn=  0.000000 ICntrl=       500 IOpCl=  0 I1Cent=   200000004 NGrid=           0
         NMat0=    1 NMatS0=      1 NMatT0=    0 NMatD0=    1 NMtDS0=    0 NMtDT0=    0
 Petite list used in FoFCou.
 Harris En= -706.394141017178    
 JPrj=0 DoOrth=F DoCkMO=F.
 Leave Link  401 at Wed Jan  8 01:12:09 2020, MaxMem=  4294967296 cpu:              23.4 elap:               2.0
 (Enter /home/cwagen/sw/g16/g16/l502.exe)
 Keep R1 ints in memory in canonical form, NReq=45236517.
 FoFCou: FMM=F IPFlag=           0 FMFlag=           0 FMFlg1=           0
         NFxFlg=           0 DoJE=F BraDBF=F KetDBF=F FulRan=T
         wScrn=  0.000000 ICntrl=       600 IOpCl=  0 I1Cent=           0 NGrid=           0
         NMat0=    1 NMatS0=   7750 NMatT0=    0 NMatD0=    1 NMtDS0=    0 NMtDT0=    0
 Symmetry not used in FoFCou.
 Two-electron integral symmetry not used.
 Closed shell SCF:
 Using DIIS extrapolation, IDIIS=  1040.
 NGot=  4294967296 LenX=  4264898079 LenY=  4264882262
 Requested convergence on RMS density matrix=1.00D-08 within 128 cycles.
 Requested convergence on MAX density matrix=1.00D-06.
 Requested convergence on             energy=1.00D-06.
 No special actions if energy rises.

 Cycle   1  Pass 1  IDiag  1:
 Inv3:  Mode=1 IEnd=     4241163.
 Iteration    1 A*A^-1 deviation from unit magnitude is 4.00D-15 for   1189.
 Iteration    1 A*A^-1 deviation from orthogonality  is 2.01D-15 for   1186    881.
 Iteration    1 A^-1*A deviation from unit magnitude is 3.55D-15 for   1180.
 Iteration    1 A^-1*A deviation from orthogonality  is 1.91D-15 for   1186    881.
 E= -706.231471428995    
 DIIS: error= 2.47D-02 at cycle   1 NSaved=   1.
 NSaved= 1 IEnMin= 1 EnMin= -706.231471428995     IErMin= 1 ErrMin= 2.47D-02
 ErrMax= 2.47D-02  0.00D+00 EMaxC= 1.00D-01 BMatC= 2.02D-01 BMatP= 2.02D-01
 IDIUse=3 WtCom= 7.53D-01 WtEn= 2.47D-01
 Coeff-Com:  0.100D+01
 Coeff-En:   0.100D+01
 Coeff:      0.100D+01
 Gap=     0.223 Goal=   None    Shift=    0.000
 GapD=    0.223 DampG=1.000 DampE=0.500 DampFc=0.5000 IDamp=-1.
 Damping current iteration by 5.00D-01
 RMSDP=3.33D-02 MaxDP=1.62D+00              OVMax= 5.13D-01

 Cycle   2  Pass 1  IDiag  1:
 E= -706.201054647010     Delta-E=        0.030416781985 Rises=F Damp=T
 DIIS: error= 2.29D-02 at cycle   2 NSaved=   2.
 NSaved= 2 IEnMin= 1 EnMin= -706.231471428995     IErMin= 2 ErrMin= 2.29D-02
 ErrMax= 2.29D-02  0.00D+00 EMaxC= 1.00D-01 BMatC= 9.09D-02 BMatP= 2.02D-01
 IDIUse=3 WtCom= 7.71D-01 WtEn= 2.29D-01
 Coeff-Com:  0.378D+00 0.622D+00
 Coeff-En:   0.554D+00 0.446D+00
 Coeff:      0.418D+00 0.582D+00
 Gap=     0.151 Goal=   None    Shift=    0.000
 RMSDP=1.47D-02 MaxDP=7.81D-01 DE= 3.04D-02 OVMax= 2.37D-01

 Cycle   3  Pass 1  IDiag  1:
 E= -706.375406868418     Delta-E=       -0.174352221408 Rises=F Damp=F
 DIIS: error= 1.30D-02 at cycle   3 NSaved=   3.
 NSaved= 3 IEnMin= 3 EnMin= -706.375406868418     IErMin= 3 ErrMin= 1.30D-02
 ErrMax= 1.30D-02  0.00D+00 EMaxC= 1.00D-01 BMatC= 3.72D-02 BMatP= 9.09D-02
 IDIUse=3 WtCom= 8.70D-01 WtEn= 1.30D-01
 Coeff-Com:  0.159D+00 0.376D+00 0.465D+00
 Coeff-En:   0.000D+00 0.000D+00 0.100D+01
 Coeff:      0.138D+00 0.327D+00 0.534D+00
 Gap=     0.174 Goal=   None    Shift=    0.000
 RMSDP=2.89D-03 MaxDP=4.83D-02 DE=-1.74D-01 OVMax= 7.02D-02

 Cycle   4  Pass 1  IDiag  1:
 E= -706.406374601392     Delta-E=       -0.030967732974 Rises=F Damp=F
 DIIS: error= 5.14D-03 at cycle   4 NSaved=   4.
 NSaved= 4 IEnMin= 4 EnMin= -706.406374601392     IErMin= 4 ErrMin= 5.14D-03
 ErrMax= 5.14D-03  0.00D+00 EMaxC= 1.00D-01 BMatC= 6.27D-03 BMatP= 3.72D-02
 IDIUse=3 WtCom= 9.49D-01 WtEn= 5.14D-02
 Coeff-Com:  0.370D-01 0.856D-01 0.300D+00 0.577D+00
 Coeff-En:   0.000D+00 0.000D+00 0.130D+00 0.870D+00
 Coeff:      0.351D-01 0.812D-01 0.292D+00 0.592D+00
 Gap=     0.174 Goal=   None    Shift=    0.000
 RMSDP=9.99D-04 MaxDP=2.22D-02 DE=-3.10D-02 OVMax= 2.84D-02

 Cycle   5  Pass 1  IDiag  1:
 E= -706.409999906441     Delta-E=       -0.003625305049 Rises=F Damp=F
 DIIS: error= 2.51D-03 at cycle   5 NSaved=   5.
 NSaved= 5 IEnMin= 5 EnMin= -706.409999906441     IErMin= 5 ErrMin= 2.51D-03
 ErrMax= 2.51D-03  0.00D+00 EMaxC= 1.00D-01 BMatC= 1.88D-03 BMatP= 6.27D-03
 IDIUse=3 WtCom= 9.75D-01 WtEn= 2.51D-02
 Coeff-Com:  0.580D-02 0.856D-02 0.149D+00 0.441D+00 0.395D+00
 Coeff-En:   0.000D+00 0.000D+00 0.000D+00 0.253D+00 0.747D+00
 Coeff:      0.565D-02 0.835D-02 0.145D+00 0.436D+00 0.404D+00
 Gap=     0.173 Goal=   None    Shift=    0.000
 RMSDP=4.60D-04 MaxDP=8.60D-03 DE=-3.63D-03 OVMax= 1.48D-02

 Cycle   6  Pass 1  IDiag  1:
 E= -706.411623657026     Delta-E=       -0.001623750586 Rises=F Damp=F
 DIIS: error= 4.47D-04 at cycle   6 NSaved=   6.
 NSaved= 6 IEnMin= 6 EnMin= -706.411623657026     IErMin= 6 ErrMin= 4.47D-04
 ErrMax= 4.47D-04  0.00D+00 EMaxC= 1.00D-01 BMatC= 7.96D-05 BMatP= 1.88D-03
 IDIUse=3 WtCom= 9.96D-01 WtEn= 4.47D-03
 Coeff-Com:  0.991D-03-0.333D-02 0.534D-01 0.176D+00 0.234D+00 0.539D+00
 Coeff-En:   0.000D+00 0.000D+00 0.000D+00 0.000D+00 0.000D+00 0.100D+01
 Coeff:      0.986D-03-0.332D-02 0.532D-01 0.175D+00 0.233D+00 0.541D+00
 Gap=     0.172 Goal=   None    Shift=    0.000
 RMSDP=1.36D-04 MaxDP=2.86D-03 DE=-1.62D-03 OVMax= 2.40D-03

 Cycle   7  Pass 1  IDiag  1:
 E= -706.411698523811     Delta-E=       -0.000074866785 Rises=F Damp=F
 DIIS: error= 9.02D-05 at cycle   7 NSaved=   7.
 NSaved= 7 IEnMin= 7 EnMin= -706.411698523811     IErMin= 7 ErrMin= 9.02D-05
 ErrMax= 9.02D-05  0.00D+00 EMaxC= 1.00D-01 BMatC= 2.69D-06 BMatP= 7.96D-05
 IDIUse=1 WtCom= 1.00D+00 WtEn= 0.00D+00
 Coeff-Com:  0.445D-03-0.270D-02 0.100D-01 0.302D-01 0.619D-01 0.196D+00
 Coeff-Com:  0.704D+00
 Coeff:      0.445D-03-0.270D-02 0.100D-01 0.302D-01 0.619D-01 0.196D+00
 Coeff:      0.704D+00
 Gap=     0.172 Goal=   None    Shift=    0.000
 RMSDP=2.89D-05 MaxDP=7.00D-04 DE=-7.49D-05 OVMax= 5.50D-04

 Cycle   8  Pass 1  IDiag  1:
 E= -706.411700777484     Delta-E=       -0.000002253673 Rises=F Damp=F
 DIIS: error= 3.83D-05 at cycle   8 NSaved=   8.
 NSaved= 8 IEnMin= 8 EnMin= -706.411700777484     IErMin= 8 ErrMin= 3.83D-05
 ErrMax= 3.83D-05  0.00D+00 EMaxC= 1.00D-01 BMatC= 3.48D-07 BMatP= 2.69D-06
 IDIUse=1 WtCom= 1.00D+00 WtEn= 0.00D+00
 Coeff-Com:  0.327D-03-0.135D-02 0.125D-02 0.131D-02 0.136D-01 0.501D-01
 Coeff-Com:  0.315D+00 0.620D+00
 Coeff:      0.327D-03-0.135D-02 0.125D-02 0.131D-02 0.136D-01 0.501D-01
 Coeff:      0.315D+00 0.620D+00
 Gap=     0.172 Goal=   None    Shift=    0.000
 RMSDP=1.46D-05 MaxDP=3.18D-04 DE=-2.25D-06 OVMax= 3.22D-04

 Cycle   9  Pass 1  IDiag  1:
 E= -706.411701131654     Delta-E=       -0.000000354170 Rises=F Damp=F
 DIIS: error= 1.04D-05 at cycle   9 NSaved=   9.
 NSaved= 9 IEnMin= 9 EnMin= -706.411701131654     IErMin= 9 ErrMin= 1.04D-05
 ErrMax= 1.04D-05  0.00D+00 EMaxC= 1.00D-01 BMatC= 4.78D-08 BMatP= 3.48D-07
 IDIUse=1 WtCom= 1.00D+00 WtEn= 0.00D+00
 Coeff-Com:  0.168D-03-0.378D-03-0.431D-03-0.291D-02-0.110D-02-0.349D-02
 Coeff-Com:  0.525D-01 0.349D+00 0.607D+00
 Coeff:      0.168D-03-0.378D-03-0.431D-03-0.291D-02-0.110D-02-0.349D-02
 Coeff:      0.525D-01 0.349D+00 0.607D+00
 Gap=     0.172 Goal=   None    Shift=    0.000
 RMSDP=3.67D-06 MaxDP=1.09D-04 DE=-3.54D-07 OVMax= 8.49D-05

 Cycle  10  Pass 1  IDiag  1:
 E= -706.411701183903     Delta-E=       -0.000000052249 Rises=F Damp=F
 DIIS: error= 2.17D-06 at cycle  10 NSaved=  10.
 NSaved=10 IEnMin=10 EnMin= -706.411701183903     IErMin=10 ErrMin= 2.17D-06
 ErrMax= 2.17D-06  0.00D+00 EMaxC= 1.00D-01 BMatC= 1.20D-09 BMatP= 4.78D-08
 IDIUse=1 WtCom= 1.00D+00 WtEn= 0.00D+00
 Coeff-Com:  0.427D-04-0.678D-04-0.183D-03-0.944D-03-0.118D-02-0.427D-02
 Coeff-Com: -0.437D-02 0.735D-01 0.181D+00 0.757D+00
 Coeff:      0.427D-04-0.678D-04-0.183D-03-0.944D-03-0.118D-02-0.427D-02
 Coeff:     -0.437D-02 0.735D-01 0.181D+00 0.757D+00
 Gap=     0.172 Goal=   None    Shift=    0.000
 RMSDP=1.08D-06 MaxDP=2.24D-05 DE=-5.22D-08 OVMax= 1.04D-05

 Cycle  11  Pass 1  IDiag  1:
 E= -706.411701184969     Delta-E=       -0.000000001066 Rises=F Damp=F
 DIIS: error= 7.97D-07 at cycle  11 NSaved=  11.
 NSaved=11 IEnMin=11 EnMin= -706.411701184969     IErMin=11 ErrMin= 7.97D-07
 ErrMax= 7.97D-07  0.00D+00 EMaxC= 1.00D-01 BMatC= 1.61D-10 BMatP= 1.20D-09
 IDIUse=1 WtCom= 1.00D+00 WtEn= 0.00D+00
 Coeff-Com:  0.921D-05-0.240D-05-0.308D-04-0.158D-03-0.429D-03-0.157D-02
 Coeff-Com: -0.644D-02 0.486D-02 0.317D-01 0.353D+00 0.619D+00
 Coeff:      0.921D-05-0.240D-05-0.308D-04-0.158D-03-0.429D-03-0.157D-02
 Coeff:     -0.644D-02 0.486D-02 0.317D-01 0.353D+00 0.619D+00
 Gap=     0.172 Goal=   None    Shift=    0.000
 RMSDP=1.98D-07 MaxDP=4.90D-06 DE=-1.07D-09 OVMax= 3.00D-06

 Cycle  12  Pass 1  IDiag  1:
 E= -706.411701185139     Delta-E=       -0.000000000170 Rises=F Damp=F
 DIIS: error= 1.00D-07 at cycle  12 NSaved=  12.
 NSaved=12 IEnMin=12 EnMin= -706.411701185139     IErMin=12 ErrMin= 1.00D-07
 ErrMax= 1.00D-07  0.00D+00 EMaxC= 1.00D-01 BMatC= 3.54D-12 BMatP= 1.61D-10
 IDIUse=1 WtCom= 1.00D+00 WtEn= 0.00D+00
 Coeff-Com:  0.120D-06 0.238D-05 0.536D-05 0.177D-04-0.423D-04-0.152D-03
 Coeff-Com: -0.155D-02-0.319D-02-0.242D-02 0.553D-01 0.179D+00 0.773D+00
 Coeff:      0.120D-06 0.238D-05 0.536D-05 0.177D-04-0.423D-04-0.152D-03
 Coeff:     -0.155D-02-0.319D-02-0.242D-02 0.553D-01 0.179D+00 0.773D+00
 Gap=     0.172 Goal=   None    Shift=    0.000
 RMSDP=5.37D-08 MaxDP=1.86D-06 DE=-1.70D-10 OVMax= 8.51D-07

 Cycle  13  Pass 1  IDiag  1:
 E= -706.411701185143     Delta-E=       -0.000000000004 Rises=F Damp=F
 DIIS: error= 3.31D-08 at cycle  13 NSaved=  13.
 NSaved=13 IEnMin=13 EnMin= -706.411701185143     IErMin=13 ErrMin= 3.31D-08
 ErrMax= 3.31D-08  0.00D+00 EMaxC= 1.00D-01 BMatC= 1.92D-13 BMatP= 3.54D-12
 IDIUse=1 WtCom= 1.00D+00 WtEn= 0.00D+00
 Coeff-Com: -0.171D-06 0.137D-06 0.192D-05 0.572D-05 0.894D-05 0.266D-04
 Coeff-Com:  0.187D-04-0.780D-03-0.127D-02-0.461D-02 0.794D-03 0.858D-01
 Coeff-Com:  0.920D+00
 Coeff:     -0.171D-06 0.137D-06 0.192D-05 0.572D-05 0.894D-05 0.266D-04
 Coeff:      0.187D-04-0.780D-03-0.127D-02-0.461D-02 0.794D-03 0.858D-01
 Coeff:      0.920D+00
 Gap=     0.172 Goal=   None    Shift=    0.000
 RMSDP=8.55D-09 MaxDP=1.81D-07 DE=-4.43D-12 OVMax= 1.48D-07

 Error on total polarization charges =  0.02236
 SCF Done:  E(RB3LYP) =  -706.411701185     A.U. after   13 cycles
            NFock= 13  Conv=0.85D-08     -V/T= 2.0058
 KE= 7.023278283041D+02 PE=-2.159438274503D+03 EE= 5.099961985907D+02
 SMD-CDS (non-electrostatic) energy       (kcal/mol) =      -0.77
 (included in total energy above)
 Leave Link  502 at Wed Jan  8 01:12:56 2020, MaxMem=  4294967296 cpu:             538.6 elap:              46.2
 (Enter /home/cwagen/sw/g16/g16/l601.exe)
 Copying SCF densities to generalized density rwf, IOpCl= 0 IROHF=0.

 **********************************************************************

            Population analysis using the SCF density.

 **********************************************************************

 Orbital symmetries:
       Occupied  (A) (A) (A) (A) (A) (A) (A) (A) (A) (A) (A) (A)
                 (A) (A) (A) (A) (A) (A) (A) (A) (A) (A) (A) (A)
                 (A) (A) (A)
       Virtual   (A) (A) (A) (A) (A) (A) (A) (A) (A) (A) (A) (A)
                 (A) (A) (A) (A) (A) (A) (A) (A) (A) (A) (A) (A)
                 (A) (A) (A) (A) (A) (A) (A) (A) (A) (A) (A) (A)
                 (A) (A) (A) (A) (A) (A) (A) (A) (A) (A) (A) (A)
                 (A) (A) (A) (A) (A) (A) (A) (A) (A) (A) (A) (A)
                 (A) (A) (A) (A) (A) (A) (A) (A) (A) (A) (A) (A)
                 (A) (A) (A) (A) (A) (A) (A) (A) (A) (A) (A) (A)
                 (A) (A) (A) (A) (A) (A) (A) (A) (A) (A) (A) (A)
                 (A)
 The electronic state is 1-A.
 Alpha  occ. eigenvalues -- -101.45629 -19.12639 -14.33443 -10.30357 -10.22719
 Alpha  occ. eigenvalues --  -10.17680  -9.36951  -7.12993  -7.12596  -7.12590
 Alpha  occ. eigenvalues --   -0.99600  -0.89536  -0.73664  -0.70469  -0.61769
 Alpha  occ. eigenvalues --   -0.46189  -0.42583  -0.41499  -0.38359  -0.36639
 Alpha  occ. eigenvalues --   -0.35563  -0.32166  -0.31364  -0.24651  -0.24415
 Alpha  occ. eigenvalues --   -0.24028  -0.23686
 Alpha virt. eigenvalues --   -0.06469   0.02434   0.03506   0.04325   0.05382
 Alpha virt. eigenvalues --    0.06739   0.07089   0.09047   0.09726   0.09829
 Alpha virt. eigenvalues --    0.10075   0.11141   0.11885   0.13462   0.14164
 Alpha virt. eigenvalues --    0.14707   0.16067   0.16893   0.19484   0.21325
 Alpha virt. eigenvalues --    0.24099   0.24629   0.25170   0.26272   0.26865
 Alpha virt. eigenvalues --    0.27684   0.29732   0.31316   0.34178   0.35337
 Alpha virt. eigenvalues --    0.37091   0.38008   0.42887   0.59631   0.63697
 Alpha virt. eigenvalues --    0.66216   0.67638   0.67908   0.69723   0.73219
 Alpha virt. eigenvalues --    0.75071   0.76427   0.78501   0.80351   0.81193
 Alpha virt. eigenvalues --    0.84216   0.89495   0.94352   0.95269   0.96306
 Alpha virt. eigenvalues --    0.97046   0.99875   1.00656   1.01687   1.03243
 Alpha virt. eigenvalues --    1.07439   1.11683   1.13365   1.15328   1.23444
 Alpha virt. eigenvalues --    1.30486   1.32252   1.33324   1.42223   1.43932
 Alpha virt. eigenvalues --    1.46802   1.54598   1.58472   1.60053   1.69487
 Alpha virt. eigenvalues --    1.71572   1.79334   1.81625   1.88232   1.91302
 Alpha virt. eigenvalues --    1.95197   1.99611   2.05143   2.09503   2.15007
 Alpha virt. eigenvalues --    2.22606   2.27079   2.31805   2.42912   2.50009
 Alpha virt. eigenvalues --    2.71915   2.78596   2.82875   2.90340   3.03189
 Alpha virt. eigenvalues --    3.24876   4.11643   4.19114   4.34067   4.34544
 Alpha virt. eigenvalues --    4.39181   4.70139
          Condensed to atoms (all electrons):
               1          2          3          4          5          6
     1  C    6.036155   0.587468   0.099430  -0.104148  -0.098320   0.026479
     2  O    0.587468   8.265733  -0.166253   0.009559   0.003259  -0.013405
     3  C    0.099430  -0.166253   5.838197   0.373536   0.393703   0.368320
     4  H   -0.104148   0.009559   0.373536   0.483372  -0.020852  -0.030638
     5  H   -0.098320   0.003259   0.393703  -0.020852   0.471419  -0.023079
     6  H    0.026479  -0.013405   0.368320  -0.030638  -0.023079   0.465133
     7  Cl   0.102103  -0.042183  -0.107430   0.006676  -0.000079   0.000811
     8  C   -0.942705  -0.187448  -0.092770   0.050067   0.040021  -0.043261
     9  N   -0.108538  -0.020573   0.018979  -0.001619   0.000012  -0.000990
               7          8          9
     1  C    0.102103  -0.942705  -0.108538
     2  O   -0.042183  -0.187448  -0.020573
     3  C   -0.107430  -0.092770   0.018979
     4  H    0.006676   0.050067  -0.001619
     5  H   -0.000079   0.040021   0.000012
     6  H    0.000811  -0.043261  -0.000990
     7  Cl  17.676077   0.012649  -0.019691
     8  C    0.012649   6.358228   0.556445
     9  N   -0.019691   0.556445   7.154614
 Mulliken charges:
               1
     1  C    0.402076
     2  O   -0.436157
     3  C   -0.725713
     4  H    0.234047
     5  H    0.233916
     6  H    0.250628
     7  Cl  -0.628932
     8  C    0.248774
     9  N   -0.578639
 Sum of Mulliken charges =  -1.00000
 Mulliken charges with hydrogens summed into heavy atoms:
               1
     1  C    0.402076
     2  O   -0.436157
     3  C   -0.007121
     7  Cl  -0.628932
     8  C    0.248774
     9  N   -0.578639
 Electronic spatial extent (au):  <R**2>=            820.7606
 Charge=             -1.0000 electrons
 Dipole moment (field-independent basis, Debye):
    X=              2.7469    Y=              3.5766    Z=             -3.0108  Tot=              5.4224
 Quadrupole moment (field-independent basis, Debye-Ang):
   XX=            -66.6016   YY=            -52.6556   ZZ=            -50.4252
   XY=              4.4165   XZ=             -2.2035   YZ=             -4.5717
 Traceless Quadrupole moment (field-independent basis, Debye-Ang):
   XX=            -10.0408   YY=              3.9052   ZZ=              6.1356
   XY=              4.4165   XZ=             -2.2035   YZ=             -4.5717
 Octapole moment (field-independent basis, Debye-Ang**2):
  XXX=             13.6547  YYY=             18.6058  ZZZ=             -6.2391  XYY=            -11.1227
  XXY=             23.7774  XXZ=              2.4258  XZZ=             -1.0885  YZZ=             -1.7806
  YYZ=             -1.0865  XYZ=             -4.0814
 Hexadecapole moment (field-independent basis, Debye-Ang**3):
 XXXX=           -761.1280 YYYY=           -345.7002 ZZZZ=           -192.2889 XXXY=             38.5086
 XXXZ=              2.8051 YYYX=             28.7373 YYYZ=             -6.9343 ZZZX=             -3.4325
 ZZZY=             -5.3548 XXYY=           -197.4684 XXZZ=           -147.7849 YYZZ=            -90.5894
 XXYZ=             -6.0057 YYXZ=              1.5947 ZZXY=             -0.0993
 N-N= 2.407025464228D+02 E-N=-2.159438272978D+03  KE= 7.023278283041D+02
 No NMR shielding tensors so no spin-rotation constants.
 Leave Link  601 at Wed Jan  8 01:12:57 2020, MaxMem=  4294967296 cpu:              10.5 elap:               1.0
 (Enter /home/cwagen/sw/g16/g16/l701.exe)
 ... and contract with generalized density number  0.
 Compute integral first derivatives.
 D1PCM: PCM CHGder 1st derivatives, ID1Alg=3 FixD1E=F DoIter=F DoCFld=F I1PDM=0.
 GePol: Maximum number of non-zero 1st derivatives   =     382
 Leave Link  701 at Wed Jan  8 01:13:01 2020, MaxMem=  4294967296 cpu:              48.8 elap:               4.5
 (Enter /home/cwagen/sw/g16/g16/l702.exe)
 L702 exits ... SP integral derivatives will be done elsewhere.
 Leave Link  702 at Wed Jan  8 01:13:02 2020, MaxMem=  4294967296 cpu:               1.3 elap:               0.3
 (Enter /home/cwagen/sw/g16/g16/l703.exe)
 Integral derivatives from FoFJK, PRISM(SPDF).
 Compute integral first derivatives, UseDBF=F ICtDFT=           0.
 Calling FoFJK, ICntrl=      2127 FMM=F ISym2X=0 I1Cent= 0 IOpClX= 0 NMat=1 NMatS=1 NMatT=0.
 FoFJK:  IHMeth= 1 ICntrl=    2127 DoSepK=F KAlg= 0 I1Cent=           0 FoldK=F
 IRaf=         0 NMat=       1 IRICut=       1 DoRegI=T DoRafI=F ISym2E= 0 IDoP0=0 IntGTp=1.
 FoFCou: FMM=F IPFlag=           0 FMFlag=      100000 FMFlg1=         800
         NFxFlg=           0 DoJE=F BraDBF=F KetDBF=F FulRan=T
         wScrn=  0.000000 ICntrl=      2127 IOpCl=  0 I1Cent=           0 NGrid=           0
         NMat0=    1 NMatS0=      1 NMatT0=    0 NMatD0=    1 NMtDS0=    0 NMtDT0=    0
 Symmetry not used in FoFCou.
 Leave Link  703 at Wed Jan  8 01:13:05 2020, MaxMem=  4294967296 cpu:              42.2 elap:               3.7
 (Enter /home/cwagen/sw/g16/g16/l716.exe)
 Dipole        = 1.08069657D+00 1.40713949D+00-1.18455509D+00
 ***** Axes restored to original set *****
 -------------------------------------------------------------------
 Center     Atomic                   Forces (Hartrees/Bohr)
 Number     Number              X              Y              Z
 -------------------------------------------------------------------
      1        6           0.054789944   -0.072272046   -0.043876698
      2        8          -0.021565776    0.034250368    0.045619067
      3        6          -0.037349467    0.015016370    0.005727835
      4        1          -0.000889205    0.000872017   -0.001859281
      5        1           0.001109843   -0.003112145    0.003079074
      6        1           0.001400024    0.003857136   -0.003499728
      7       17           0.009259938   -0.011540648   -0.001154005
      8        6           0.002986202    0.037432850   -0.008622467
      9        7          -0.009741502   -0.004503902    0.004586205
 -------------------------------------------------------------------
 Cartesian Forces:  Max     0.072272046 RMS     0.025399298
 Leave Link  716 at Wed Jan  8 01:13:06 2020, MaxMem=  4294967296 cpu:               1.1 elap:               1.2
 (Enter /home/cwagen/sw/g16/g16/l103.exe)

 GradGradGradGradGradGradGradGradGradGradGradGradGradGradGradGradGradGrad
 Berny optimization.
 FormGI is forming the generalized inverse of G from B-inverse, IUseBI=4.
 Internal  Forces:  Max     0.052468404 RMS     0.018069300
 Search for a local minimum.
 Step number   1 out of a maximum of   41
 All quantities printed in internal units (Hartrees-Bohrs-Radians)
 RMS Force = .18470D-01 SwitMx=.10000D-02 MixMth= 1
 Mixed Optimization -- RFO/linear search
 Second derivative matrix not updated -- first step.
 ITU=  0
     Eigenvalues ---    0.00230   0.04746   0.04746   0.05330   0.05908
     Eigenvalues ---    0.07453   0.10176   0.16000   0.16000   0.16000
     Eigenvalues ---    0.25000   0.25000   0.25000   0.26946   0.33918
     Eigenvalues ---    0.33999   0.34275   0.67840   1.220341000.00000
     Eigenvalues --- 1000.000001000.000001000.000001000.000001000.00000
     Eigenvalues --- 1000.000001000.000001000.000001000.000001000.00000
     Eigenvalues --- 1000.00000
 RFO step:  Lambda=-4.09338410D-02 EMin= 2.30000000D-03
 Linear search not attempted -- first point.
 Maximum step size (   0.300) exceeded in Quadratic search.
    -- Step size scaled by   0.836
 Iteration  1 RMS(Cart)=  0.10268697 RMS(Int)=  0.00827621
 Iteration  2 RMS(Cart)=  0.00812231 RMS(Int)=  0.00592414
 Iteration  3 RMS(Cart)=  0.00001517 RMS(Int)=  0.00592413
 Iteration  4 RMS(Cart)=  0.00000005 RMS(Int)=  0.00592413
 Iteration  1 RMS(Cart)=  0.00000000 RMS(Int)=  0.00000000
 ITry= 1 IFail=0 DXMaxC= 2.59D-01 DCOld= 1.00D+10 DXMaxT= 3.00D-01 DXLimC= 3.00D+00 Rises=F
 Variable       Old X    -DE/DX   Delta X   Delta X   Delta X     New X
                                 (Linear)    (Quad)   (Total)
    R1        2.45227  -0.05247   0.00000  -0.06096  -0.06096   2.39132
    R2        2.94503  -0.00688   0.00000  -0.01852  -0.01852   2.92651
    R3        4.72432  -0.01461   0.00000   0.00000   0.00000   4.72432
    R4        2.83459   0.00383   0.00000   0.00000   0.00000   2.83459
    R5        2.07331  -0.00161   0.00000  -0.00354  -0.00354   2.06977
    R6        2.07468  -0.00011   0.00000  -0.00024  -0.00024   2.07444
    R7        2.06868  -0.00143   0.00000  -0.00311  -0.00311   2.06557
    R8        2.20923  -0.01041   0.00000  -0.00690  -0.00690   2.20234
    A1        1.99667   0.02868   0.00000   0.08720   0.07418   2.07085
    A2        2.01908  -0.01430   0.00000  -0.08373  -0.08265   1.93643
    A3        1.89239  -0.00800   0.00000   0.06099   0.03983   1.93222
    A4        1.92419  -0.02714   0.00000  -0.11513  -0.11108   1.81311
    A5        1.77194   0.05006   0.00000   0.17530   0.16330   1.93524
    A6        1.83479  -0.02479   0.00000  -0.09857  -0.09046   1.74433
    A7        1.97398  -0.00181   0.00000  -0.00829  -0.00854   1.96543
    A8        1.87942   0.00825   0.00000   0.03787   0.03801   1.91743
    A9        1.90140  -0.00811   0.00000  -0.03659  -0.03662   1.86477
   A10        1.90356  -0.00218   0.00000  -0.00386  -0.00394   1.89962
   A11        1.90837   0.00369   0.00000   0.00895   0.00852   1.91689
   A12        1.89554   0.00026   0.00000   0.00263   0.00305   1.89860
   A13        3.10055  -0.00704   0.00000  -0.06654  -0.06654   3.03400
   A14        2.92496   0.00799   0.00000   0.07549   0.07549   3.00046
    D1        3.04510   0.01705   0.00000   0.11827   0.12339  -3.11469
    D2       -1.13357   0.01883   0.00000   0.13416   0.13932  -0.99425
    D3        0.91915   0.01934   0.00000   0.13853   0.14333   1.06247
    D4       -0.92685  -0.00299   0.00000  -0.03122  -0.02901  -0.95586
    D5        1.17766  -0.00121   0.00000  -0.01532  -0.01307   1.16459
    D6       -3.05280  -0.00070   0.00000  -0.01095  -0.00907  -3.06187
    D7        1.01121  -0.01696   0.00000  -0.10058  -0.10762   0.90359
    D8        3.11572  -0.01517   0.00000  -0.08468  -0.09169   3.02403
    D9       -1.11475  -0.01467   0.00000  -0.08031  -0.08769  -1.20243
         Item               Value     Threshold  Converged?
 Maximum Force            0.052468     0.000450     NO 
 RMS     Force            0.018470     0.000300     NO 
 Maximum Displacement     0.258898     0.001800     NO 
 RMS     Displacement     0.100049     0.001200     NO 
 Predicted change in Energy=-2.412727D-02
 Lowest energy point so far.  Saving SCF results.
 GradGradGradGradGradGradGradGradGradGradGradGradGradGradGradGradGradGrad

 Leave Link  103 at Wed Jan  8 01:13:11 2020, MaxMem=  4294967296 cpu:              45.0 elap:               4.2
 (Enter /home/cwagen/sw/g16/g16/l202.exe)
                          Input orientation:                          
 ---------------------------------------------------------------------
 Center     Atomic      Atomic             Coordinates (Angstroms)
 Number     Number       Type             X           Y           Z
 ---------------------------------------------------------------------
      1          6           0       -0.103192   -0.372098   -0.230489
      2          8           0       -0.267200   -0.649589   -1.454177
      3          6           0       -0.372461   -1.474396    0.823424
      4          1           0       -0.226341   -1.120556    1.849621
      5          1           0       -1.399982   -1.846538    0.719687
      6          1           0        0.321104   -2.292042    0.610845
      7         17           0       -1.599364    1.504732    0.468780
      8          6           0        1.235436    0.266473   -0.006206
      9          7           0        2.343780    0.612282    0.094826
 ---------------------------------------------------------------------
                    Distance matrix (angstroms):
                    1          2          3          4          5
     1  C    0.000000
     2  O    1.265429   0.000000
     3  C    1.548644   2.424635   0.000000
     4  H    2.214093   3.337447   1.095277   0.000000
     5  H    2.181392   2.727923   1.097748   1.783602   0.000000
     6  H    2.138704   2.703345   1.093054   1.790709   1.781140
     7  Cl   2.500000   3.180176   3.241337   3.268647   3.366559
     8  C    1.500000   2.278970   2.510826   2.739477   3.455021
     9  N    2.657537   3.287696   3.501863   3.561959   4.522389
                    6          7          8          9
     6  H    0.000000
     7  Cl   4.257214   0.000000
     8  C    2.786172   3.129695   0.000000
     9  N    3.576673   4.060135   1.165426   0.000000
 Stoichiometry    C3H3ClNO(1-)
 Framework group  C1[X(C3H3ClNO)]
 Deg. of freedom    21
 Full point group                 C1      NOp   1
 RotChk:  IX=0 Diff= 1.10D-01
 Largest Abelian subgroup         C1      NOp   1
 Largest concise Abelian subgroup C1      NOp   1
                         Standard orientation:                         
 ---------------------------------------------------------------------
 Center     Atomic      Atomic             Coordinates (Angstroms)
 Number     Number       Type             X           Y           Z
 ---------------------------------------------------------------------
      1          6           0        0.384004    0.465472    0.212915
      2          8           0        0.575505    0.859550    1.400072
      3          6           0        0.502555    1.493715   -0.939023
      4          1           0        0.291739    1.053689   -1.919618
      5          1           0       -0.191148    2.327107   -0.767896
      6          1           0        1.525820    1.877398   -0.917029
      7         17           0       -1.916735   -0.474711   -0.056639
      8          6           0        1.199930   -0.759231   -0.077542
      9          7           0        1.976443   -1.609177   -0.258754
 ---------------------------------------------------------------------
 Rotational constants (GHZ):           3.3547624           1.9365710           1.6013297
 Leave Link  202 at Wed Jan  8 01:13:11 2020, MaxMem=  4294967296 cpu:               1.9 elap:               0.2
 (Enter /home/cwagen/sw/g16/g16/l301.exe)
 Standard basis: 6-31+G(d) (6D, 7F)
 Ernie: Thresh=  0.10000D-02 Tol=  0.10000D-05 Strict=F.
 There are   124 symmetry adapted cartesian basis functions of A   symmetry.
 There are   124 symmetry adapted basis functions of A   symmetry.
   124 basis functions,   228 primitive gaussians,   124 cartesian basis functions
    27 alpha electrons       27 beta electrons
       nuclear repulsion energy       242.7021416242 Hartrees.
 IExCor=  402 DFT=T Ex+Corr=B3LYP ExCW=0 ScaHFX=  0.200000
 ScaDFX=  0.800000  0.720000  1.000000  0.810000 ScalE2=  1.000000  1.000000
 IRadAn=      5 IRanWt=     -1 IRanGd=            0 ICorTp=0 IEmpDi=  4
 NAtoms=    9 NActive=    9 NUniq=    9 SFac= 1.00D+00 NAtFMM=   60 NAOKFM=F Big=F
 Integral buffers will be    131072 words long.
 Raffenetti 2 integral format.
 Two-electron integral symmetry is turned on.
 ------------------------------------------------------------------------------
 Polarizable Continuum Model (PCM)
 =================================
 Model                : PCM.
 Atomic radii         : SMD-Coulomb.
 Polarization charges : Total charges.
 Charge compensation  : None.
 Solution method      : On-the-fly selection.
 Cavity type          : VdW (van der Waals Surface) (Alpha=1.000).
 Cavity algorithm     : GePol (No added spheres)
                        Default sphere list used, NSphG=    9.
                        Lebedev-Laikov grids with approx.  5.0 points / Ang**2.
                        Smoothing algorithm: York/Karplus (Gamma=1.0000).
                        Polarization charges: spherical gaussians, with
                                              point-specific exponents (IZeta= 3).
                        Self-potential: point-specific (ISelfS= 7).
                        Self-field    : sphere-specific E.n sum rule (ISelfD= 2).
 1st derivatives      : Analytical E(r).r(x)/FMM algorithm (CHGder, D1EAlg=3).
                        Cavity 1st derivative terms included.
 Solvent              : TetraHydroFuran, Eps=   7.425700 Eps(inf)=   1.974025
 ------------------------------------------------------------------------------
 Spheres list:
 ISph  on   Nord     Re0    Alpha      Xe            Ye            Ze
    1   C      1    1.8500  1.000      0.384004      0.465472      0.212915
    2   O      2    2.2940  1.000      0.575505      0.859550      1.400072
    3   C      3    1.8500  1.000      0.502555      1.493715     -0.939023
    4   H      4    1.2000  1.000      0.291739      1.053689     -1.919618
    5   H      5    1.2000  1.000     -0.191148      2.327107     -0.767896
    6   H      6    1.2000  1.000      1.525820      1.877398     -0.917029
    7  Cl      7    2.3800  1.000     -1.916735     -0.474711     -0.056639
    8   C      8    1.8500  1.000      1.199930     -0.759231     -0.077542
    9   N      9    1.8900  1.000      1.976443     -1.609177     -0.258754
 ------------------------------------------------------------------------------
 GePol: Number of generator spheres                  =       9
 GePol: Total number of spheres                      =       9
 GePol: Number of exposed spheres                    =       9 (100.00%)
 GePol: Number of points                             =    1185
 GePol: Average weight of points                     =       0.14
 GePol: Minimum weight of points                     =   0.11D-06
 GePol: Maximum weight of points                     =    0.18138
 GePol: Number of points with low weight             =      30
 GePol: Fraction of low-weight points (<1% of avg)   =       2.53%
 GePol: Cavity surface area                          =    161.236 Ang**2
 GePol: Cavity volume                                =    147.367 Ang**3
 ------------------------------------------------------------------------------
 Atomic radii for non-electrostatic terms: SMD-CDS.
 ------------------------------------------------------------------------------
 PCM non-electrostatic energy =        -0.0012935670 Hartrees.
 Nuclear repulsion after PCM non-electrostatic terms =      242.7008480572 Hartrees.
 Leave Link  301 at Wed Jan  8 01:13:11 2020, MaxMem=  4294967296 cpu:               2.3 elap:               0.3
 (Enter /home/cwagen/sw/g16/g16/l302.exe)
 NPDir=0 NMtPBC=     1 NCelOv=     1 NCel=       1 NClECP=     1 NCelD=      1
         NCelK=      1 NCelE2=     1 NClLst=     1 CellRange=     0.0.
 One-electron integrals computed using PRISM.
 One-electron integral symmetry used in STVInt
 NBasis=   124 RedAO= T EigKep=  4.27D-05  NBF=   124
 NBsUse=   124 1.00D-06 EigRej= -1.00D+00 NBFU=   124
 Precomputing XC quadrature grid using
 IXCGrd= 4 IRadAn=           5 IRanWt=          -1 IRanGd=           0 AccXCQ= 0.00D+00.
 Generated NRdTot=       0 NPtTot=           0 NUsed=           0 NTot=          32
 NSgBfM=   124   124   124   124   124 MxSgAt=     9 MxSgA2=     9.
 Leave Link  302 at Wed Jan  8 01:13:14 2020, MaxMem=  4294967296 cpu:              31.3 elap:               2.7
 (Enter /home/cwagen/sw/g16/g16/l303.exe)
 DipDrv:  MaxL=1.
 Leave Link  303 at Wed Jan  8 01:13:14 2020, MaxMem=  4294967296 cpu:               3.1 elap:               0.3
 (Enter /home/cwagen/sw/g16/g16/l401.exe)
 Initial guess from the checkpoint file:  "/scratch/users/cwagen/cwagen_scan_250_150/Gau-14499.chk"
 B after Tr=     0.000000    0.000000    0.000000
         Rot=    0.999616   -0.006705   -0.009205   -0.025249 Ang=  -3.17 deg.
 Guess basis will be translated and rotated to current coordinates.
 JPrj=2 DoOrth=T DoCkMO=T.
 Generating alternative initial guess.
 ExpMin= 4.38D-02 ExpMax= 2.52D+04 ExpMxC= 3.78D+03 IAcc=2 IRadAn=         4 AccDes= 0.00D+00
 Harris functional with IExCor=  402 and IRadAn=       4 diagonalized for initial guess.
 HarFok:  IExCor=  402 AccDes= 0.00D+00 IRadAn=         4 IDoV= 1 UseB2=F ITyADJ=14
 ICtDFT=  3500011 ScaDFX=  1.000000  1.000000  1.000000  1.000000
 FoFCou: FMM=F IPFlag=           0 FMFlag=      100000 FMFlg1=           0
         NFxFlg=           0 DoJE=T BraDBF=F KetDBF=T FulRan=T
         wScrn=  0.000000 ICntrl=       500 IOpCl=  0 I1Cent=   200000004 NGrid=           0
         NMat0=    1 NMatS0=      1 NMatT0=    0 NMatD0=    1 NMtDS0=    0 NMtDT0=    0
 Petite list used in FoFCou.
 Harris En= -706.416942376375    
 Leave Link  401 at Wed Jan  8 01:13:19 2020, MaxMem=  4294967296 cpu:              57.8 elap:               5.1
 (Enter /home/cwagen/sw/g16/g16/l502.exe)
 Keep R1 ints in memory in canonical form, NReq=45236517.
 FoFCou: FMM=F IPFlag=           0 FMFlag=           0 FMFlg1=           0
         NFxFlg=           0 DoJE=F BraDBF=F KetDBF=F FulRan=T
         wScrn=  0.000000 ICntrl=       600 IOpCl=  0 I1Cent=           0 NGrid=           0
         NMat0=    1 NMatS0=   7750 NMatT0=    0 NMatD0=    1 NMtDS0=    0 NMtDT0=    0
 Symmetry not used in FoFCou.
 Two-electron integral symmetry not used.
 Closed shell SCF:
 Using DIIS extrapolation, IDIIS=  1040.
 NGot=  4294967296 LenX=  4264898079 LenY=  4264882262
 Requested convergence on RMS density matrix=1.00D-08 within 128 cycles.
 Requested convergence on MAX density matrix=1.00D-06.
 Requested convergence on             energy=1.00D-06.
 No special actions if energy rises.

 Cycle   1  Pass 1  IDiag  1:
 Inv3:  Mode=1 IEnd=     4212675.
 Iteration    1 A*A^-1 deviation from unit magnitude is 3.77D-15 for   1180.
 Iteration    1 A*A^-1 deviation from orthogonality  is 1.91D-15 for    247    121.
 Iteration    1 A^-1*A deviation from unit magnitude is 3.33D-15 for   1180.
 Iteration    1 A^-1*A deviation from orthogonality  is 2.16D-15 for    321     97.
 E= -706.416800816936    
 DIIS: error= 5.52D-03 at cycle   1 NSaved=   1.
 NSaved= 1 IEnMin= 1 EnMin= -706.416800816936     IErMin= 1 ErrMin= 5.52D-03
 ErrMax= 5.52D-03  0.00D+00 EMaxC= 1.00D-01 BMatC= 1.16D-02 BMatP= 1.16D-02
 IDIUse=3 WtCom= 9.45D-01 WtEn= 5.52D-02
 Coeff-Com:  0.100D+01
 Coeff-En:   0.100D+01
 Coeff:      0.100D+01
 Gap=     0.564 Goal=   None    Shift=    0.000
 GapD=    0.564 DampG=2.000 DampE=1.000 DampFc=2.0000 IDamp=-1.
 RMSDP=2.95D-03 MaxDP=5.38D-02              OVMax= 4.12D-02

 Cycle   2  Pass 1  IDiag  1:
 E= -706.435504546233     Delta-E=       -0.018703729297 Rises=F Damp=F
 DIIS: error= 9.02D-04 at cycle   2 NSaved=   2.
 NSaved= 2 IEnMin= 2 EnMin= -706.435504546233     IErMin= 2 ErrMin= 9.02D-04
 ErrMax= 9.02D-04  0.00D+00 EMaxC= 1.00D-01 BMatC= 3.96D-04 BMatP= 1.16D-02
 IDIUse=3 WtCom= 9.91D-01 WtEn= 9.02D-03
 Coeff-Com: -0.747D-02 0.101D+01
 Coeff-En:   0.000D+00 0.100D+01
 Coeff:     -0.740D-02 0.101D+01
 Gap=     0.187 Goal=   None    Shift=    0.000
 RMSDP=6.04D-04 MaxDP=9.29D-03 DE=-1.87D-02 OVMax= 1.76D-02

 Cycle   3  Pass 1  IDiag  1:
 E= -706.434959852885     Delta-E=        0.000544693348 Rises=F Damp=F
 DIIS: error= 1.80D-03 at cycle   3 NSaved=   3.
 NSaved= 3 IEnMin= 2 EnMin= -706.435504546233     IErMin= 2 ErrMin= 9.02D-04
 ErrMax= 1.80D-03  0.00D+00 EMaxC= 1.00D-01 BMatC= 1.10D-03 BMatP= 3.96D-04
 IDIUse=3 WtCom= 1.91D-01 WtEn= 8.09D-01
 Coeff-Com: -0.358D-01 0.664D+00 0.372D+00
 Coeff-En:   0.000D+00 0.682D+00 0.318D+00
 Coeff:     -0.684D-02 0.679D+00 0.328D+00
 Gap=     0.184 Goal=   None    Shift=    0.000
 RMSDP=4.47D-04 MaxDP=8.43D-03 DE= 5.45D-04 OVMax= 9.61D-03

 Cycle   4  Pass 1  IDiag  1:
 E= -706.435963691295     Delta-E=       -0.001003838410 Rises=F Damp=F
 DIIS: error= 3.19D-04 at cycle   4 NSaved=   4.
 NSaved= 4 IEnMin= 4 EnMin= -706.435963691295     IErMin= 4 ErrMin= 3.19D-04
 ErrMax= 3.19D-04  0.00D+00 EMaxC= 1.00D-01 BMatC= 3.67D-05 BMatP= 3.96D-04
 IDIUse=3 WtCom= 9.97D-01 WtEn= 3.19D-03
 Coeff-Com: -0.203D-01 0.255D+00 0.183D+00 0.582D+00
 Coeff-En:   0.000D+00 0.000D+00 0.000D+00 0.100D+01
 Coeff:     -0.202D-01 0.255D+00 0.183D+00 0.583D+00
 Gap=     0.182 Goal=   None    Shift=    0.000
 RMSDP=8.79D-05 MaxDP=1.73D-03 DE=-1.00D-03 OVMax= 1.88D-03

 Cycle   5  Pass 1  IDiag  1:
 E= -706.435991712045     Delta-E=       -0.000028020750 Rises=F Damp=F
 DIIS: error= 1.26D-04 at cycle   5 NSaved=   5.
 NSaved= 5 IEnMin= 5 EnMin= -706.435991712045     IErMin= 5 ErrMin= 1.26D-04
 ErrMax= 1.26D-04  0.00D+00 EMaxC= 1.00D-01 BMatC= 5.52D-06 BMatP= 3.67D-05
 IDIUse=3 WtCom= 9.99D-01 WtEn= 1.26D-03
 Coeff-Com: -0.488D-02 0.462D-01 0.522D-01 0.306D+00 0.600D+00
 Coeff-En:   0.000D+00 0.000D+00 0.000D+00 0.910D-01 0.909D+00
 Coeff:     -0.487D-02 0.461D-01 0.521D-01 0.306D+00 0.600D+00
 Gap=     0.183 Goal=   None    Shift=    0.000
 RMSDP=5.93D-05 MaxDP=1.96D-03 DE=-2.80D-05 OVMax= 8.20D-04

 Cycle   6  Pass 1  IDiag  1:
 E= -706.435997151338     Delta-E=       -0.000005439294 Rises=F Damp=F
 DIIS: error= 2.94D-05 at cycle   6 NSaved=   6.
 NSaved= 6 IEnMin= 6 EnMin= -706.435997151338     IErMin= 6 ErrMin= 2.94D-05
 ErrMax= 2.94D-05  0.00D+00 EMaxC= 1.00D-01 BMatC= 3.03D-07 BMatP= 5.52D-06
 IDIUse=1 WtCom= 1.00D+00 WtEn= 0.00D+00
 Coeff-Com: -0.268D-03-0.660D-02 0.305D-02 0.767D-01 0.255D+00 0.672D+00
 Coeff:     -0.268D-03-0.660D-02 0.305D-02 0.767D-01 0.255D+00 0.672D+00
 Gap=     0.183 Goal=   None    Shift=    0.000
 RMSDP=1.81D-05 MaxDP=7.28D-04 DE=-5.44D-06 OVMax= 2.81D-04

 Cycle   7  Pass 1  IDiag  1:
 E= -706.435997458986     Delta-E=       -0.000000307647 Rises=F Damp=F
 DIIS: error= 1.17D-05 at cycle   7 NSaved=   7.
 NSaved= 7 IEnMin= 7 EnMin= -706.435997458986     IErMin= 7 ErrMin= 1.17D-05
 ErrMax= 1.17D-05  0.00D+00 EMaxC= 1.00D-01 BMatC= 5.24D-08 BMatP= 3.03D-07
 IDIUse=1 WtCom= 1.00D+00 WtEn= 0.00D+00
 Coeff-Com:  0.378D-03-0.904D-02-0.385D-02 0.134D-01 0.896D-01 0.371D+00
 Coeff-Com:  0.538D+00
 Coeff:      0.378D-03-0.904D-02-0.385D-02 0.134D-01 0.896D-01 0.371D+00
 Coeff:      0.538D+00
 Gap=     0.183 Goal=   None    Shift=    0.000
 RMSDP=3.30D-06 MaxDP=6.95D-05 DE=-3.08D-07 OVMax= 6.54D-05

 Cycle   8  Pass 1  IDiag  1:
 E= -706.435997505960     Delta-E=       -0.000000046974 Rises=F Damp=F
 DIIS: error= 5.60D-06 at cycle   8 NSaved=   8.
 NSaved= 8 IEnMin= 8 EnMin= -706.435997505960     IErMin= 8 ErrMin= 5.60D-06
 ErrMax= 5.60D-06  0.00D+00 EMaxC= 1.00D-01 BMatC= 7.93D-09 BMatP= 5.24D-08
 IDIUse=1 WtCom= 1.00D+00 WtEn= 0.00D+00
 Coeff-Com:  0.255D-03-0.529D-02-0.270D-02 0.365D-02 0.402D-01 0.183D+00
 Coeff-Com:  0.344D+00 0.437D+00
 Coeff:      0.255D-03-0.529D-02-0.270D-02 0.365D-02 0.402D-01 0.183D+00
 Coeff:      0.344D+00 0.437D+00
 Gap=     0.183 Goal=   None    Shift=    0.000
 RMSDP=9.97D-07 MaxDP=1.92D-05 DE=-4.70D-08 OVMax= 3.05D-05

 Cycle   9  Pass 1  IDiag  1:
 E= -706.435997511960     Delta-E=       -0.000000006000 Rises=F Damp=F
 DIIS: error= 1.91D-06 at cycle   9 NSaved=   9.
 NSaved= 9 IEnMin= 9 EnMin= -706.435997511960     IErMin= 9 ErrMin= 1.91D-06
 ErrMax= 1.91D-06  0.00D+00 EMaxC= 1.00D-01 BMatC= 1.17D-09 BMatP= 7.93D-09
 IDIUse=1 WtCom= 1.00D+00 WtEn= 0.00D+00
 Coeff-Com:  0.353D-04-0.313D-03-0.515D-03-0.217D-02-0.398D-02-0.976D-02
 Coeff-Com:  0.367D-01 0.292D+00 0.688D+00
 Coeff:      0.353D-04-0.313D-03-0.515D-03-0.217D-02-0.398D-02-0.976D-02
 Coeff:      0.367D-01 0.292D+00 0.688D+00
 Gap=     0.183 Goal=   None    Shift=    0.000
 RMSDP=5.01D-07 MaxDP=1.18D-05 DE=-6.00D-09 OVMax= 1.72D-05

 Cycle  10  Pass 1  IDiag  1:
 E= -706.435997513247     Delta-E=       -0.000000001288 Rises=F Damp=F
 DIIS: error= 1.96D-07 at cycle  10 NSaved=  10.
 NSaved=10 IEnMin=10 EnMin= -706.435997513247     IErMin=10 ErrMin= 1.96D-07
 ErrMax= 1.96D-07  0.00D+00 EMaxC= 1.00D-01 BMatC= 1.45D-11 BMatP= 1.17D-09
 IDIUse=1 WtCom= 1.00D+00 WtEn= 0.00D+00
 Coeff-Com: -0.443D-05 0.221D-03 0.433D-04-0.696D-03-0.301D-02-0.120D-01
 Coeff-Com: -0.107D-01 0.547D-01 0.172D+00 0.800D+00
 Coeff:     -0.443D-05 0.221D-03 0.433D-04-0.696D-03-0.301D-02-0.120D-01
 Coeff:     -0.107D-01 0.547D-01 0.172D+00 0.800D+00
 Gap=     0.183 Goal=   None    Shift=    0.000
 RMSDP=1.23D-07 MaxDP=4.96D-06 DE=-1.29D-09 OVMax= 4.37D-06

 Cycle  11  Pass 1  IDiag  1:
 E= -706.435997513275     Delta-E=       -0.000000000028 Rises=F Damp=F
 DIIS: error= 6.72D-08 at cycle  11 NSaved=  11.
 NSaved=11 IEnMin=11 EnMin= -706.435997513275     IErMin=11 ErrMin= 6.72D-08
 ErrMax= 6.72D-08  0.00D+00 EMaxC= 1.00D-01 BMatC= 1.43D-12 BMatP= 1.45D-11
 IDIUse=1 WtCom= 1.00D+00 WtEn= 0.00D+00
 Coeff-Com: -0.361D-05 0.849D-04 0.522D-04-0.829D-04-0.639D-03-0.277D-02
 Coeff-Com: -0.573D-02-0.392D-02 0.716D-02 0.226D+00 0.780D+00
 Coeff:     -0.361D-05 0.849D-04 0.522D-04-0.829D-04-0.639D-03-0.277D-02
 Coeff:     -0.573D-02-0.392D-02 0.716D-02 0.226D+00 0.780D+00
 Gap=     0.183 Goal=   None    Shift=    0.000
 RMSDP=3.02D-08 MaxDP=6.15D-07 DE=-2.76D-11 OVMax= 1.48D-06

 Cycle  12  Pass 1  IDiag  1:
 E= -706.435997513278     Delta-E=       -0.000000000003 Rises=F Damp=F
 DIIS: error= 1.66D-08 at cycle  12 NSaved=  12.
 NSaved=12 IEnMin=12 EnMin= -706.435997513278     IErMin=12 ErrMin= 1.66D-08
 ErrMax= 1.66D-08  0.00D+00 EMaxC= 1.00D-01 BMatC= 1.04D-13 BMatP= 1.43D-12
 IDIUse=1 WtCom= 1.00D+00 WtEn= 0.00D+00
 Coeff-Com: -0.117D-06-0.900D-05 0.502D-05 0.512D-04 0.188D-03 0.809D-03
 Coeff-Com: -0.762D-04-0.669D-02-0.171D-01-0.386D-01 0.175D+00 0.887D+00
 Coeff:     -0.117D-06-0.900D-05 0.502D-05 0.512D-04 0.188D-03 0.809D-03
 Coeff:     -0.762D-04-0.669D-02-0.171D-01-0.386D-01 0.175D+00 0.887D+00
 Gap=     0.183 Goal=   None    Shift=    0.000
 RMSDP=1.63D-08 MaxDP=5.18D-07 DE=-2.73D-12 OVMax= 5.56D-07

 Cycle  13  Pass 1  IDiag  1:
 E= -706.435997513277     Delta-E=        0.000000000001 Rises=F Damp=F
 DIIS: error= 5.40D-09 at cycle  13 NSaved=  13.
 NSaved=13 IEnMin=12 EnMin= -706.435997513278     IErMin=13 ErrMin= 5.40D-09
 ErrMax= 5.40D-09  0.00D+00 EMaxC= 1.00D-01 BMatC= 4.46D-15 BMatP= 1.04D-13
 IDIUse=1 WtCom= 1.00D+00 WtEn= 0.00D+00
 Coeff-Com:  0.983D-07-0.528D-05-0.135D-05 0.169D-04 0.714D-04 0.298D-03
 Coeff-Com:  0.234D-03-0.147D-02-0.467D-02-0.196D-01 0.579D-02 0.206D+00
 Coeff-Com:  0.813D+00
 Coeff:      0.983D-07-0.528D-05-0.135D-05 0.169D-04 0.714D-04 0.298D-03
 Coeff:      0.234D-03-0.147D-02-0.467D-02-0.196D-01 0.579D-02 0.206D+00
 Coeff:      0.813D+00
 Gap=     0.183 Goal=   None    Shift=    0.000
 RMSDP=3.64D-09 MaxDP=1.64D-07 DE= 1.14D-12 OVMax= 8.66D-08

 Error on total polarization charges =  0.02299
 SCF Done:  E(RB3LYP) =  -706.435997513     A.U. after   13 cycles
            NFock= 13  Conv=0.36D-08     -V/T= 2.0057
 KE= 7.024165479717D+02 PE=-2.163609898994D+03 EE= 5.120565054522D+02
 SMD-CDS (non-electrostatic) energy       (kcal/mol) =      -0.81
 (included in total energy above)
 Leave Link  502 at Wed Jan  8 01:14:06 2020, MaxMem=  4294967296 cpu:             550.2 elap:              47.0
 (Enter /home/cwagen/sw/g16/g16/l701.exe)
 ... and contract with generalized density number  0.
 Compute integral first derivatives.
 D1PCM: PCM CHGder 1st derivatives, ID1Alg=3 FixD1E=F DoIter=F DoCFld=F I1PDM=0.
 GePol: Maximum number of non-zero 1st derivatives   =     375
 Leave Link  701 at Wed Jan  8 01:14:12 2020, MaxMem=  4294967296 cpu:              64.6 elap:               5.9
 (Enter /home/cwagen/sw/g16/g16/l702.exe)
 L702 exits ... SP integral derivatives will be done elsewhere.
 Leave Link  702 at Wed Jan  8 01:14:13 2020, MaxMem=  4294967296 cpu:               1.6 elap:               0.3
 (Enter /home/cwagen/sw/g16/g16/l703.exe)
 Integral derivatives from FoFJK, PRISM(SPDF).
 Compute integral first derivatives, UseDBF=F ICtDFT=           0.
 Calling FoFJK, ICntrl=      2127 FMM=F ISym2X=0 I1Cent= 0 IOpClX= 0 NMat=1 NMatS=1 NMatT=0.
 FoFJK:  IHMeth= 1 ICntrl=    2127 DoSepK=F KAlg= 0 I1Cent=           0 FoldK=F
 IRaf=         0 NMat=       1 IRICut=       1 DoRegI=T DoRafI=F ISym2E= 0 IDoP0=0 IntGTp=1.
 FoFCou: FMM=F IPFlag=           0 FMFlag=      100000 FMFlg1=         800
         NFxFlg=           0 DoJE=F BraDBF=F KetDBF=F FulRan=T
         wScrn=  0.000000 ICntrl=      2127 IOpCl=  0 I1Cent=           0 NGrid=           0
         NMat0=    1 NMatS0=      1 NMatT0=    0 NMatD0=    1 NMtDS0=    0 NMtDT0=    0
 Symmetry not used in FoFCou.
 Leave Link  703 at Wed Jan  8 01:14:16 2020, MaxMem=  4294967296 cpu:              37.3 elap:               3.2
 (Enter /home/cwagen/sw/g16/g16/l716.exe)
 Dipole        = 1.24740484D+00 1.62543122D+00-1.12778899D+00
 ***** Axes restored to original set *****
 -------------------------------------------------------------------
 Center     Atomic                   Forces (Hartrees/Bohr)
 Number     Number              X              Y              Z
 -------------------------------------------------------------------
      1        6           0.028675343   -0.045425007   -0.035729844
      2        8          -0.011865541    0.016371067    0.029572437
      3        6          -0.016384429    0.019230197    0.000700120
      4        1           0.000600923   -0.000003644   -0.001161441
      5        1           0.002089298    0.000963968   -0.000766840
      6        1           0.002430667   -0.000159534   -0.001004708
      7       17           0.004089533   -0.003844187    0.001209752
      8        6          -0.005327061    0.013272913    0.007711603
      9        7          -0.004308734   -0.000405773   -0.000531079
 -------------------------------------------------------------------
 Cartesian Forces:  Max     0.045425007 RMS     0.015413955
 Leave Link  716 at Wed Jan  8 01:14:16 2020, MaxMem=  4294967296 cpu:               1.4 elap:               0.2
 (Enter /home/cwagen/sw/g16/g16/l103.exe)

 GradGradGradGradGradGradGradGradGradGradGradGradGradGradGradGradGradGrad
 Berny optimization.
 Using GEDIIS/GDIIS optimizer.
 FormGI is forming the generalized inverse of G from B-inverse, IUseBI=4.
 Internal  Forces:  Max     0.030641301 RMS     0.009065286
 Search for a local minimum.
 Step number   2 out of a maximum of   41
 All quantities printed in internal units (Hartrees-Bohrs-Radians)
 RMS Force = .93186D-02 SwitMx=.10000D-02 MixMth= 1
 Mixed Optimization -- RFO/linear search
 Update second derivatives using D2CorX and points    1    2
 DE= -2.43D-02 DEPred=-2.41D-02 R= 1.01D+00
 TightC=F SS=  1.41D+00  RLast= 4.03D-01 DXNew= 5.0454D-01 1.2085D+00
 Trust test= 1.01D+00 RLast= 4.03D-01 DXMaxT set to 5.05D-01
 ITU=  1  0
 Use linear search instead of GDIIS.
     Eigenvalues ---    0.00230   0.04655   0.04764   0.05371   0.05925
     Eigenvalues ---    0.06531   0.09412   0.15960   0.16000   0.16283
     Eigenvalues ---    0.24384   0.25000   0.25600   0.31034   0.33991
     Eigenvalues ---    0.33995   0.34499   0.61907   1.218921000.00000
     Eigenvalues --- 1000.000001000.000001000.000001000.000001000.00000
     Eigenvalues --- 1000.000001000.000001000.000001000.000001000.00000
     Eigenvalues --- 1000.00000
 RFO step:  Lambda=-1.16355192D-02 EMin= 2.30283284D-03
 Quartic linear search produced a step of  0.95024.
 Iteration  1 RMS(Cart)=  0.14461643 RMS(Int)=  0.01920863
 Iteration  2 RMS(Cart)=  0.01731014 RMS(Int)=  0.01504547
 Iteration  3 RMS(Cart)=  0.00005382 RMS(Int)=  0.01504543
 Iteration  4 RMS(Cart)=  0.00000080 RMS(Int)=  0.01504543
 Iteration  1 RMS(Cart)=  0.00000000 RMS(Int)=  0.00000000
 ITry= 1 IFail=0 DXMaxC= 3.76D-01 DCOld= 1.00D+10 DXMaxT= 5.05D-01 DXLimC= 3.00D+00 Rises=F
 Variable       Old X    -DE/DX   Delta X   Delta X   Delta X     New X
                                 (Linear)    (Quad)   (Total)
    R1        2.39132  -0.03064  -0.05792  -0.03120  -0.08912   2.30219
    R2        2.92651  -0.01382  -0.01760  -0.07865  -0.09625   2.83027
    R3        4.72432  -0.00501   0.00000   0.00000   0.00000   4.72432
    R4        2.83459  -0.00206   0.00000   0.00000   0.00000   2.83459
    R5        2.06977  -0.00098  -0.00336  -0.00213  -0.00549   2.06428
    R6        2.07444  -0.00221  -0.00023  -0.01217  -0.01240   2.06204
    R7        2.06557   0.00186  -0.00295   0.01330   0.01035   2.07592
    R8        2.20234  -0.00427  -0.00655  -0.00057  -0.00712   2.19522
    A1        2.07085   0.01062   0.07049   0.03420   0.06255   2.13340
    A2        1.93643  -0.00377  -0.07854  -0.01324  -0.08575   1.85067
    A3        1.93222   0.00199   0.03785   0.12466   0.11360   2.04582
    A4        1.81311  -0.01414  -0.10556  -0.07415  -0.16902   1.64408
    A5        1.93524   0.00998   0.15517  -0.03306   0.07928   2.01452
    A6        1.74433  -0.00955  -0.08596  -0.07117  -0.14051   1.60382
    A7        1.96543  -0.00029  -0.00812   0.00515  -0.00330   1.96213
    A8        1.91743  -0.00059   0.03612  -0.04211  -0.00591   1.91153
    A9        1.86477  -0.00225  -0.03480   0.00829  -0.02671   1.83806
   A10        1.89962   0.00104  -0.00374   0.02209   0.01828   1.91791
   A11        1.91689   0.00073   0.00809  -0.00656   0.00090   1.91779
   A12        1.89860   0.00137   0.00290   0.01297   0.01615   1.91475
   A13        3.03400   0.00197  -0.06323   0.15117   0.08794   3.12194
   A14        3.00046   0.00019   0.07174  -0.09106  -0.01932   2.98113
    D1       -3.11469   0.01064   0.11725   0.08486   0.21005  -2.90464
    D2       -0.99425   0.01137   0.13239   0.08671   0.22698  -0.76727
    D3        1.06247   0.01140   0.13620   0.08439   0.22812   1.29059
    D4       -0.95586   0.00109  -0.02756   0.02912   0.00506  -0.95080
    D5        1.16459   0.00181  -0.01242   0.03097   0.02199   1.18658
    D6       -3.06187   0.00185  -0.00862   0.02865   0.02312  -3.03875
    D7        0.90359  -0.01268  -0.10227  -0.09873  -0.21197   0.69161
    D8        3.02403  -0.01196  -0.08713  -0.09688  -0.19504   2.82899
    D9       -1.20243  -0.01192  -0.08332  -0.09920  -0.19391  -1.39634
         Item               Value     Threshold  Converged?
 Maximum Force            0.030641     0.000450     NO 
 RMS     Force            0.009319     0.000300     NO 
 Maximum Displacement     0.376194     0.001800     NO 
 RMS     Displacement     0.144023     0.001200     NO 
 Predicted change in Energy=-1.389870D-02
 Lowest energy point so far.  Saving SCF results.
 GradGradGradGradGradGradGradGradGradGradGradGradGradGradGradGradGradGrad

 Leave Link  103 at Wed Jan  8 01:14:24 2020, MaxMem=  4294967296 cpu:              95.2 elap:               8.1
 (Enter /home/cwagen/sw/g16/g16/l202.exe)
                          Input orientation:                          
 ---------------------------------------------------------------------
 Center     Atomic      Atomic             Coordinates (Angstroms)
 Number     Number       Type             X           Y           Z
 ---------------------------------------------------------------------
      1          6           0        0.005623   -0.512604   -0.277622
      2          8           0       -0.307498   -0.680176   -1.442976
      3          6           0       -0.401482   -1.465345    0.803901
      4          1           0       -0.246591   -1.052165    1.803183
      5          1           0       -1.449844   -1.738546    0.673580
      6          1           0        0.232442   -2.351482    0.663657
      7         17           0       -1.436939    1.347477    0.564468
      8          6           0        1.256960    0.269754   -0.009161
      9          7           0        2.279109    0.811355    0.097281
 ---------------------------------------------------------------------
                    Distance matrix (angstroms):
                    1          2          3          4          5
     1  C    0.000000
     2  O    1.218268   0.000000
     3  C    1.497712   2.381970   0.000000
     4  H    2.164367   3.267971   1.092371   0.000000
     5  H    2.127464   2.627720   1.091185   1.787439   0.000000
     6  H    2.078203   2.742755   1.098529   1.793381   1.790496
     7  Cl   2.500000   3.068687   3.006903   2.951208   3.087978
     8  C    1.500000   2.325021   2.534181   2.700505   3.438923
     9  N    2.657472   3.359701   3.587233   3.572389   4.554032
                    6          7          8          9
     6  H    0.000000
     7  Cl   4.059430   0.000000
     8  C    2.893649   2.957639   0.000000
     9  N    3.809615   3.783478   1.161658   0.000000
 Stoichiometry    C3H3ClNO(1-)
 Framework group  C1[X(C3H3ClNO)]
 Deg. of freedom    21
 Full point group                 C1      NOp   1
 RotChk:  IX=0 Diff= 1.90D-01
 Largest Abelian subgroup         C1      NOp   1
 Largest concise Abelian subgroup C1      NOp   1
                         Standard orientation:                         
 ---------------------------------------------------------------------
 Center     Atomic      Atomic             Coordinates (Angstroms)
 Number     Number       Type             X           Y           Z
 ---------------------------------------------------------------------
      1          6           0        0.462388    0.584350    0.192588
      2          8           0        0.511111    1.025615    1.327087
      3          6           0        0.212685    1.461257   -0.995614
      4          1           0       -0.033313    0.887877   -1.892271
      5          1           0       -0.593654    2.160815   -0.769513
      6          1           0        1.149589    2.013470   -1.150653
      7         17           0       -1.729487   -0.603639    0.007203
      8          6           0        1.225772   -0.676337   -0.086540
      9          7           0        1.912100   -1.602978   -0.227045
 ---------------------------------------------------------------------
 Rotational constants (GHZ):           3.2238894           2.2073852           1.7229190
 Leave Link  202 at Wed Jan  8 01:14:24 2020, MaxMem=  4294967296 cpu:               2.6 elap:               0.2
 (Enter /home/cwagen/sw/g16/g16/l301.exe)
 Standard basis: 6-31+G(d) (6D, 7F)
 Ernie: Thresh=  0.10000D-02 Tol=  0.10000D-05 Strict=F.
 There are   124 symmetry adapted cartesian basis functions of A   symmetry.
 There are   124 symmetry adapted basis functions of A   symmetry.
   124 basis functions,   228 primitive gaussians,   124 cartesian basis functions
    27 alpha electrons       27 beta electrons
       nuclear repulsion energy       248.5016222276 Hartrees.
 IExCor=  402 DFT=T Ex+Corr=B3LYP ExCW=0 ScaHFX=  0.200000
 ScaDFX=  0.800000  0.720000  1.000000  0.810000 ScalE2=  1.000000  1.000000
 IRadAn=      5 IRanWt=     -1 IRanGd=            0 ICorTp=0 IEmpDi=  4
 NAtoms=    9 NActive=    9 NUniq=    9 SFac= 1.00D+00 NAtFMM=   60 NAOKFM=F Big=F
 Integral buffers will be    131072 words long.
 Raffenetti 2 integral format.
 Two-electron integral symmetry is turned on.
 ------------------------------------------------------------------------------
 Polarizable Continuum Model (PCM)
 =================================
 Model                : PCM.
 Atomic radii         : SMD-Coulomb.
 Polarization charges : Total charges.
 Charge compensation  : None.
 Solution method      : On-the-fly selection.
 Cavity type          : VdW (van der Waals Surface) (Alpha=1.000).
 Cavity algorithm     : GePol (No added spheres)
                        Default sphere list used, NSphG=    9.
                        Lebedev-Laikov grids with approx.  5.0 points / Ang**2.
                        Smoothing algorithm: York/Karplus (Gamma=1.0000).
                        Polarization charges: spherical gaussians, with
                                              point-specific exponents (IZeta= 3).
                        Self-potential: point-specific (ISelfS= 7).
                        Self-field    : sphere-specific E.n sum rule (ISelfD= 2).
 1st derivatives      : Analytical E(r).r(x)/FMM algorithm (CHGder, D1EAlg=3).
                        Cavity 1st derivative terms included.
 Solvent              : TetraHydroFuran, Eps=   7.425700 Eps(inf)=   1.974025
 ------------------------------------------------------------------------------
 Spheres list:
 ISph  on   Nord     Re0    Alpha      Xe            Ye            Ze
    1   C      1    1.8500  1.000      0.462388      0.584350      0.192588
    2   O      2    2.2940  1.000      0.511111      1.025615      1.327087
    3   C      3    1.8500  1.000      0.212685      1.461257     -0.995614
    4   H      4    1.2000  1.000     -0.033313      0.887877     -1.892271
    5   H      5    1.2000  1.000     -0.593654      2.160815     -0.769513
    6   H      6    1.2000  1.000      1.149589      2.013470     -1.150653
    7  Cl      7    2.3800  1.000     -1.729487     -0.603639      0.007203
    8   C      8    1.8500  1.000      1.225772     -0.676337     -0.086540
    9   N      9    1.8900  1.000      1.912100     -1.602978     -0.227045
 ------------------------------------------------------------------------------
 GePol: Number of generator spheres                  =       9
 GePol: Total number of spheres                      =       9
 GePol: Number of exposed spheres                    =       9 (100.00%)
 GePol: Number of points                             =    1157
 GePol: Average weight of points                     =       0.14
 GePol: Minimum weight of points                     =   0.37D-07
 GePol: Maximum weight of points                     =    0.18138
 GePol: Number of points with low weight             =      32
 GePol: Fraction of low-weight points (<1% of avg)   =       2.77%
 GePol: Cavity surface area                          =    157.262 Ang**2
 GePol: Cavity volume                                =    145.073 Ang**3
 ------------------------------------------------------------------------------
 Atomic radii for non-electrostatic terms: SMD-CDS.
 ------------------------------------------------------------------------------
 PCM non-electrostatic energy =        -0.0012840642 Hartrees.
 Nuclear repulsion after PCM non-electrostatic terms =      248.5003381633 Hartrees.
 Leave Link  301 at Wed Jan  8 01:14:25 2020, MaxMem=  4294967296 cpu:               2.4 elap:               0.2
 (Enter /home/cwagen/sw/g16/g16/l302.exe)
 NPDir=0 NMtPBC=     1 NCelOv=     1 NCel=       1 NClECP=     1 NCelD=      1
         NCelK=      1 NCelE2=     1 NClLst=     1 CellRange=     0.0.
 One-electron integrals computed using PRISM.
 One-electron integral symmetry used in STVInt
 NBasis=   124 RedAO= T EigKep=  3.49D-05  NBF=   124
 NBsUse=   124 1.00D-06 EigRej= -1.00D+00 NBFU=   124
 Precomputing XC quadrature grid using
 IXCGrd= 4 IRadAn=           5 IRanWt=          -1 IRanGd=           0 AccXCQ= 0.00D+00.
 Generated NRdTot=       0 NPtTot=           0 NUsed=           0 NTot=          32
 NSgBfM=   124   124   124   124   124 MxSgAt=     9 MxSgA2=     9.
 Leave Link  302 at Wed Jan  8 01:14:28 2020, MaxMem=  4294967296 cpu:              34.1 elap:               3.2
 (Enter /home/cwagen/sw/g16/g16/l303.exe)
 DipDrv:  MaxL=1.
[...]
      5        1           0.000005221    0.000033278    0.000004465
      6        1          -0.000001047    0.000000033   -0.000029876
      7       17          -0.006060663    0.008541270    0.003955531
      8        6          -0.001581622   -0.001099665   -0.000354136
      9        7          -0.000004219   -0.000011770   -0.000015703
 -------------------------------------------------------------------
 Cartesian Forces:  Max     0.008541270 RMS     0.003077846
 Leave Link  716 at Wed Jan  8 01:21:13 2020, MaxMem=  4294967296 cpu:               1.7 elap:               0.2
 (Enter /home/cwagen/sw/g16/g16/l103.exe)

 GradGradGradGradGradGradGradGradGradGradGradGradGradGradGradGradGradGrad
 Berny optimization.
 Using GEDIIS/GDIIS optimizer.
 FormGI is forming the generalized inverse of G from B-inverse, IUseBI=4.
 Internal  Forces:  Max     0.011191255 RMS     0.002041179
 Search for a local minimum.
 Step number   8 out of a maximum of   41
 All quantities printed in internal units (Hartrees-Bohrs-Radians)
 RMS Force = .37311D-04 SwitMx=.10000D-02 MixMth= 2
 Mixed Optimization -- En-DIIS/RFO-DIIS
 Swapping is turned off.
 Update second derivatives using D2CorX and points    3    4    5    6    7
                                                      8
 DE= -4.23D-07 DEPred=-1.18D-06 R= 3.58D-01
 Trust test= 3.58D-01 RLast= 1.39D-02 DXMaxT set to 8.49D-01
 ITU=  0  1  1  1  1  1  1  0
     Eigenvalues ---    0.00260   0.04093   0.05065   0.05315   0.05362
     Eigenvalues ---    0.05475   0.06005   0.15488   0.16256   0.16985
     Eigenvalues ---    0.22402   0.23848   0.28389   0.31624   0.33975
     Eigenvalues ---    0.34202   0.34502   0.77373   1.221441000.00000
     Eigenvalues --- 1000.000001000.000001000.000001000.000001000.00000
     Eigenvalues --- 1000.000001000.000001000.000001000.000001000.00000
     Eigenvalues --- 1000.00000
 En-DIIS/RFO-DIIS/Sim-DIIS IScMMF=       -3 using points:     8    7    6    5
 RFO step:  Lambda=-3.29318674D-07.
 NNeg= 0 NGDIIS= 4 SimSw=  2.50D-01 Rises=F DC= -4.23D-07 SmlDif=  1.00D-05
 NRisDI= 0 DoIntr=F SqrtH=F CThrHd= 10.0 CDAdj=  3.0
 RMS Error=  0.2699090596D-03 NUsed= 4 OKEnD=F EnDIS=F
 InvSVX:  RCond= 7.32D-07 Info=           0 Equed=N FErr=  1.16D-14 BErr=  7.70D-17
 DidBck=F Rises=F RFO-DIIS coefs:    1.10883   -0.09197   -0.01687    0.00000
 Iteration  1 RMS(Cart)=  0.00047296 RMS(Int)=  0.00000010
 Iteration  2 RMS(Cart)=  0.00000010 RMS(Int)=  0.00000002
 Iteration  1 RMS(Cart)=  0.00000000 RMS(Int)=  0.00000000
 ITry= 1 IFail=0 DXMaxC= 1.14D-03 DCOld= 1.00D+10 DXMaxT= 8.49D-01 DXLimC= 3.00D+00 Rises=F
 Variable       Old X    -DE/DX   Delta X   Delta X   Delta X     New X
                                 (Linear)    (Quad)   (Total)
    R1        2.32017   0.00009   0.00000   0.00011   0.00011   2.32028
    R2        2.85754   0.00003   0.00002   0.00013   0.00015   2.85769
    R3        4.72432   0.01119   0.00000   0.00000   0.00000   4.72432
    R4        2.83459  -0.00197   0.00000   0.00000   0.00000   2.83459
    R5        2.06234   0.00001   0.00001   0.00002   0.00004   2.06237
    R6        2.06520  -0.00002  -0.00002  -0.00004  -0.00006   2.06515
    R7        2.07947   0.00001  -0.00001   0.00002   0.00001   2.07948
    R8        2.19956  -0.00001   0.00001  -0.00001   0.00000   2.19955
    A1        2.15451  -0.00005  -0.00015  -0.00019  -0.00033   2.15418
    A2        1.87411   0.00009   0.00027   0.00037   0.00064   1.87475
    A3        2.04685   0.00003   0.00008   0.00007   0.00015   2.04699
    A4        1.65777  -0.00010   0.00006  -0.00045  -0.00039   1.65738
    A5        2.00464   0.00002   0.00002   0.00011   0.00014   2.00477
    A6        1.52920   0.00003  -0.00025   0.00015  -0.00010   1.52910
    A7        1.96397   0.00005   0.00008   0.00030   0.00038   1.96436
    A8        1.91071  -0.00002   0.00002  -0.00019  -0.00017   1.91054
    A9        1.87137  -0.00004  -0.00010  -0.00017  -0.00027   1.87110
   A10        1.91978  -0.00002  -0.00005  -0.00014  -0.00019   1.91959
   A11        1.90058   0.00000   0.00006   0.00012   0.00018   1.90076
   A12        1.89569   0.00002  -0.00001   0.00008   0.00007   1.89576
   A13        3.07502   0.00003  -0.00020   0.00069   0.00049   3.07552
   A14        2.97157   0.00000  -0.00023   0.00010  -0.00012   2.97144
    D1       -2.89837   0.00000  -0.00034   0.00009  -0.00024  -2.89861
    D2       -0.75792  -0.00001  -0.00034  -0.00002  -0.00036  -0.75828
    D3        1.29549  -0.00001  -0.00039  -0.00013  -0.00052   1.29497
    D4       -0.89754   0.00001   0.00000   0.00013   0.00013  -0.89741
    D5        1.24291   0.00001   0.00000   0.00002   0.00001   1.24292
    D6       -2.98687   0.00000  -0.00006  -0.00009  -0.00015  -2.98702
    D7        0.66765   0.00000  -0.00025   0.00009  -0.00016   0.66749
    D8        2.80810   0.00000  -0.00025  -0.00002  -0.00027   2.80783
    D9       -1.42168  -0.00001  -0.00030  -0.00013  -0.00043  -1.42211
         Item               Value     Threshold  Converged?
 Maximum Force            0.000102     0.000450     YES
 RMS     Force            0.000037     0.000300     YES
 Maximum Displacement     0.001144     0.001800     YES
 RMS     Displacement     0.000473     0.001200     YES
 Predicted change in Energy=-9.999900D-08
 Optimization completed.
    -- Stationary point found.
                           ----------------------------
                           !   Optimized Parameters   !
                           ! (Angstroms and Degrees)  !
 --------------------------                            --------------------------
 ! Name  Definition              Value          Derivative Info.                !
 --------------------------------------------------------------------------------
 ! R1    R(1,2)                  1.2278         -DE/DX =    0.0001              !
 ! R2    R(1,3)                  1.5121         -DE/DX =    0.0                 !
 ! R3    R(1,7)                  2.5            -DE/DX =    0.0112              !
 ! R4    R(1,8)                  1.5            -DE/DX =   -0.002               !
 ! R5    R(3,4)                  1.0913         -DE/DX =    0.0                 !
 ! R6    R(3,5)                  1.0929         -DE/DX =    0.0                 !
 ! R7    R(3,6)                  1.1004         -DE/DX =    0.0                 !
 ! R8    R(8,9)                  1.164          -DE/DX =    0.0                 !
 ! A1    A(2,1,3)              123.4445         -DE/DX =   -0.0001              !
 ! A2    A(2,1,7)              107.3786         -DE/DX =    0.0001              !
 ! A3    A(2,1,8)              117.2756         -DE/DX =    0.0                 !
 ! A4    A(3,1,7)               94.9832         -DE/DX =   -0.0001              !
 ! A5    A(3,1,8)              114.8572         -DE/DX =    0.0                 !
 ! A6    A(7,1,8)               87.6167         -DE/DX =    0.0                 !
 ! A7    A(1,3,4)              112.5274         -DE/DX =    0.0001              !
 ! A8    A(1,3,5)              109.4756         -DE/DX =    0.0                 !
 ! A9    A(1,3,6)              107.2216         -DE/DX =    0.0                 !
 ! A10   A(4,3,5)              109.9954         -DE/DX =    0.0                 !
 ! A11   A(4,3,6)              108.8951         -DE/DX =    0.0                 !
 ! A12   A(5,3,6)              108.6153         -DE/DX =    0.0                 !
 ! A13   L(1,8,9,6,-1)         176.1859         -DE/DX =    0.0                 !
 ! A14   L(1,8,9,6,-2)         170.2584         -DE/DX =    0.0                 !
 ! D1    D(2,1,3,4)           -166.0643         -DE/DX =    0.0                 !
 ! D2    D(2,1,3,5)            -43.4257         -DE/DX =    0.0                 !
 ! D3    D(2,1,3,6)             74.2258         -DE/DX =    0.0                 !
 ! D4    D(7,1,3,4)            -51.4251         -DE/DX =    0.0                 !
 ! D5    D(7,1,3,5)             71.2135         -DE/DX =    0.0                 !
 ! D6    D(7,1,3,6)           -171.135          -DE/DX =    0.0                 !
 ! D7    D(8,1,3,4)             38.2535         -DE/DX =    0.0                 !
 ! D8    D(8,1,3,5)            160.8921         -DE/DX =    0.0                 !
 ! D9    D(8,1,3,6)            -81.4564         -DE/DX =    0.0                 !
 --------------------------------------------------------------------------------
 Lowest energy point so far.  Saving SCF results.
 Largest change from initial coordinates is atom    6       0.293 Angstoms.
 GradGradGradGradGradGradGradGradGradGradGradGradGradGradGradGradGradGrad

 Leave Link  103 at Wed Jan  8 01:21:19 2020, MaxMem=  4294967296 cpu:              66.1 elap:               6.0
 (Enter /home/cwagen/sw/g16/g16/l202.exe)
                          Input orientation:                          
 ---------------------------------------------------------------------
 Center     Atomic      Atomic             Coordinates (Angstroms)
 Number     Number       Type             X           Y           Z
 ---------------------------------------------------------------------
      1          6           0       -0.004181   -0.522160   -0.300139
      2          8           0       -0.312603   -0.683761   -1.477509
      3          6           0       -0.398069   -1.478098    0.803321
      4          1           0       -0.248429   -1.053554    1.797502
      5          1           0       -1.443085   -1.771304    0.675602
      6          1           0        0.233181   -2.373442    0.699467
      7         17           0       -1.361641    1.387452    0.572033
      8          6           0        1.218543    0.299056   -0.016321
      9          7           0        2.248062    0.824078    0.122355
 ---------------------------------------------------------------------
                    Distance matrix (angstroms):
                    1          2          3          4          5
     1  C    0.000000
     2  O    1.227779   0.000000
     3  C    1.512147   2.416705   0.000000
     4  H    2.177644   3.296447   1.091341   0.000000
     5  H    2.140765   2.663949   1.092859   1.789141   0.000000
     6  H    2.117261   2.809293   1.100410   1.783181   1.781294
     7  Cl   2.500000   3.096938   3.032053   2.949496   3.161502
     8  C    1.500000   2.333540   2.538409   2.696575   3.442297
     9  N    2.657716   3.374930   3.572918   3.544586   4.546060
                    6          7          8          9
     6  H    0.000000
     7  Cl   4.087055   0.000000
     8  C    2.936926   2.861488   0.000000
     9  N    3.823210   3.680972   1.163955   0.000000
 Stoichiometry    C3H3ClNO(1-)
 Framework group  C1[X(C3H3ClNO)]
 Deg. of freedom    21
 Full point group                 C1      NOp   1
 RotChk:  IX=0 Diff= 1.61D-15
 Largest Abelian subgroup         C1      NOp   1
 Largest concise Abelian subgroup C1      NOp   1
                         Standard orientation:                         
 ---------------------------------------------------------------------
 Center     Atomic      Atomic             Coordinates (Angstroms)
 Number     Number       Type             X           Y           Z
 ---------------------------------------------------------------------
      1          6           0        0.509520    0.577366    0.199351
      2          8           0        0.610960    1.020858    1.339730
      3          6           0        0.337388    1.451432   -1.022520
      4          1           0        0.025348    0.884702   -1.901425
      5          1           0       -0.389712    2.238588   -0.807924
      6          1           0        1.311740    1.919769   -1.227953
      7         17           0       -1.738932   -0.499773    0.014318
      8          6           0        1.108406   -0.771358   -0.069495
      9          7           0        1.713557   -1.751202   -0.238280
 ---------------------------------------------------------------------
 Rotational constants (GHZ):           3.1144888           2.2804805           1.7519634
 Leave Link  202 at Wed Jan  8 01:21:20 2020, MaxMem=  4294967296 cpu:               2.9 elap:               0.3
 (Enter /home/cwagen/sw/g16/g16/l601.exe)
 Copying SCF densities to generalized density rwf, IOpCl= 0 IROHF=0.

 **********************************************************************

            Population analysis using the SCF density.

 **********************************************************************

 Orbital symmetries:
       Occupied  (A) (A) (A) (A) (A) (A) (A) (A) (A) (A) (A) (A)
                 (A) (A) (A) (A) (A) (A) (A) (A) (A) (A) (A) (A)
                 (A) (A) (A)
       Virtual   (A) (A) (A) (A) (A) (A) (A) (A) (A) (A) (A) (A)
                 (A) (A) (A) (A) (A) (A) (A) (A) (A) (A) (A) (A)
                 (A) (A) (A) (A) (A) (A) (A) (A) (A) (A) (A) (A)
                 (A) (A) (A) (A) (A) (A) (A) (A) (A) (A) (A) (A)
                 (A) (A) (A) (A) (A) (A) (A) (A) (A) (A) (A) (A)
                 (A) (A) (A) (A) (A) (A) (A) (A) (A) (A) (A) (A)
                 (A) (A) (A) (A) (A) (A) (A) (A) (A) (A) (A) (A)
                 (A) (A) (A) (A) (A) (A) (A) (A) (A) (A) (A) (A)
                 (A)
 The electronic state is 1-A.
 Alpha  occ. eigenvalues -- -101.43173 -19.13024 -14.33561 -10.29966 -10.22759
 Alpha  occ. eigenvalues --  -10.17301  -9.34635  -7.10548  -7.10333  -7.10319
 Alpha  occ. eigenvalues --   -1.03090  -0.89956  -0.74356  -0.68821  -0.62616
 Alpha  occ. eigenvalues --   -0.47186  -0.43204  -0.42858  -0.38827  -0.36869
 Alpha  occ. eigenvalues --   -0.36157  -0.33150  -0.32394  -0.25432  -0.22966
 Alpha  occ. eigenvalues --   -0.22660  -0.22487
 Alpha virt. eigenvalues --   -0.03588   0.02532   0.03353   0.04525   0.05776
 Alpha virt. eigenvalues --    0.06967   0.07585   0.08812   0.09639   0.10375
 Alpha virt. eigenvalues --    0.10627   0.11341   0.12838   0.13716   0.14313
 Alpha virt. eigenvalues --    0.14397   0.16379   0.17464   0.19442   0.21496
 Alpha virt. eigenvalues --    0.24818   0.25023   0.25823   0.25915   0.28042
 Alpha virt. eigenvalues --    0.28809   0.29171   0.32077   0.33582   0.35915
 Alpha virt. eigenvalues --    0.38984   0.41395   0.46570   0.62291   0.64605
 Alpha virt. eigenvalues --    0.64783   0.67495   0.69454   0.70720   0.72008
 Alpha virt. eigenvalues --    0.74815   0.77146   0.79631   0.80589   0.83766
 Alpha virt. eigenvalues --    0.84756   0.88447   0.94215   0.97420   0.98267
 Alpha virt. eigenvalues --    0.98572   0.99694   1.01553   1.02483   1.04845
 Alpha virt. eigenvalues --    1.05825   1.10528   1.14803   1.17207   1.28725
 Alpha virt. eigenvalues --    1.32758   1.34767   1.36446   1.40607   1.43225
 Alpha virt. eigenvalues --    1.46543   1.54651   1.56527   1.64295   1.68100
 Alpha virt. eigenvalues --    1.72937   1.79497   1.83293   1.87570   1.95695
 Alpha virt. eigenvalues --    1.96635   1.97312   2.01380   2.08339   2.22633
 Alpha virt. eigenvalues --    2.26139   2.29617   2.33802   2.45787   2.58844
 Alpha virt. eigenvalues --    2.72345   2.81882   2.89817   3.00646   3.11827
 Alpha virt. eigenvalues --    3.28434   4.16456   4.21700   4.34996   4.36886
 Alpha virt. eigenvalues --    4.42367   4.73046
          Condensed to atoms (all electrons):
               1          2          3          4          5          6
     1  C    6.441722   0.650980   0.143491  -0.115476  -0.084053   0.020922
     2  O    0.650980   8.184644  -0.156151   0.008918   0.000597  -0.006459
     3  C    0.143491  -0.156151   5.905697   0.392480   0.398254   0.342297
     4  H   -0.115476   0.008918   0.392480   0.468211  -0.020776  -0.026802
     5  H   -0.084053   0.000597   0.398254  -0.020776   0.456581  -0.024297
     6  H    0.020922  -0.006459   0.342297  -0.026802  -0.024297   0.482206
     7  Cl   0.190712  -0.073254  -0.129789   0.001105  -0.006749   0.005531
     8  C   -1.390584  -0.189598  -0.242708   0.049403   0.030559  -0.033896
     9  N   -0.057334  -0.010909  -0.026572   0.001083   0.000096  -0.001108
               7          8          9
     1  C    0.190712  -1.390584  -0.057334
     2  O   -0.073254  -0.189598  -0.010909
     3  C   -0.129789  -0.242708  -0.026572
     4  H    0.001105   0.049403   0.001083
     5  H   -0.006749   0.030559   0.000096
     6  H    0.005531  -0.033896  -0.001108
     7  Cl  17.826682  -0.073348  -0.022215
     8  C   -0.073348   6.888223   0.545373
     9  N   -0.022215   0.545373   7.166587
 Mulliken charges:
               1
     1  C    0.199619
     2  O   -0.408767
     3  C   -0.626998
     4  H    0.241854
     5  H    0.249787
     6  H    0.241605
     7  Cl  -0.718676
     8  C    0.416577
     9  N   -0.595002
 Sum of Mulliken charges =  -1.00000
 Mulliken charges with hydrogens summed into heavy atoms:
               1
     1  C    0.199619
     2  O   -0.408767
     3  C    0.106247
     7  Cl  -0.718676
     8  C    0.416577
     9  N   -0.595002
 Electronic spatial extent (au):  <R**2>=            749.8596
 Charge=             -1.0000 electrons
 Dipole moment (field-independent basis, Debye):
    X=              3.5165    Y=              4.5676    Z=             -3.0242  Tot=              6.5095
 Quadrupole moment (field-independent basis, Debye-Ang):
   XX=            -63.2350   YY=            -54.2238   ZZ=            -49.3768
   XY=              2.2603   XZ=             -1.0567   YZ=             -5.2051
 Traceless Quadrupole moment (field-independent basis, Debye-Ang):
   XX=             -7.6232   YY=              1.3881   ZZ=              6.2351
   XY=              2.2603   XZ=             -1.0567   YZ=             -5.2051
 Octapole moment (field-independent basis, Debye-Ang**2):
  XXX=             17.7988  YYY=             24.3666  ZZZ=             -5.0593  XYY=            -10.4342
  XXY=             22.2133  XXZ=              1.1815  XZZ=             -0.3317  YZZ=             -0.8576
  YYZ=             -2.0000  XYZ=             -4.5601
 Hexadecapole moment (field-independent basis, Debye-Ang**3):
 XXXX=           -588.0731 YYYY=           -403.1303 ZZZZ=           -190.3792 XXXY=             19.9921
 XXXZ=              4.4390 YYYX=             26.3309 YYYZ=            -10.1789 ZZZX=             -1.2514
 ZZZY=             -4.7803 XXYY=           -178.1095 XXZZ=           -122.6132 YYZZ=            -99.1077
 XXYZ=             -5.8155 YYXZ=              1.8349 ZZXY=             -1.2314
 N-N= 2.484621477175D+02 E-N=-2.175463869191D+03  KE= 7.026212089588D+02
 No NMR shielding tensors so no spin-rotation constants.
 Leave Link  601 at Wed Jan  8 01:21:21 2020, MaxMem=  4294967296 cpu:              18.9 elap:               1.6
 (Enter /home/cwagen/sw/g16/g16/l9999.exe)
 1\1\GINC-NODE081\FOpt\RB3LYP\6-31+G(d)\C3H3Cl1N1O1(1-)\CWAGEN\08-Jan-2
 020\0\\#p opt=modredundant b3lyp/6-31+g(d) scrf=(smd, solvent=tetrahyd
 rofuran)\\title\\-1,1\C,-0.0041805044,-0.5221598644,-0.3001388526\O,-0
 .3126033257,-0.6837608952,-1.4775091545\C,-0.3980687034,-1.4780982291,
 0.8033209254\H,-0.2484290018,-1.0535544194,1.7975022034\H,-1.443084908
 1,-1.7713037563,0.6756018405\H,0.2331811141,-2.3734416221,0.6994665953
 \Cl,-1.3616405793,1.3874520414,0.5720334549\C,1.2185430265,0.299055552
 3,-0.0163212927\N,2.2480624622,0.8240781928,0.1223551902\\Version=AS64
 L-G16RevA.03\State=1-A\HF=-706.449018\RMSD=7.119e-09\RMSF=3.078e-03\Di
 pole=0.4717136,-2.452007,0.5693035\Quadrupole=-5.5823646,2.8591073,2.7
 232573,1.3649455,0.6591778,-4.4811845\PG=C01 [X(C3H3Cl1N1O1)]\\@


 IT IS BY EATING THE LIGHT OF A STAR THAT WE EXIST, 
 IN THE FINAL ANALYSIS, 
 JUST AS IT IS BY PERCEIVING THE LIGHT OF STARS
 THAT WE DEFINE THE WORLD AROUND US.

                                    -- GILBERT GROSVENOR
 Job cpu time:       0 days  1 hours 44 minutes 39.4 seconds.
 Elapsed time:       0 days  0 hours  9 minutes 16.7 seconds.
 File lengths (MBytes):  RWF=     35 Int=      0 D2E=      0 Chk=      3 Scr=      1
 Normal termination of Gaussian 16 at Wed Jan  8 01:21:22 2020.
