 Entering Gaussian System, Link 0=g16
 Input=scan_220_260.gjf
 Output=scan_220_260.out
 Initial command:
 /home/cwagen/sw/g16/g16/l1.exe "/scratch/users/cwagen/cwagen_scan_220_260/Gau-3564.inp" -scrdir="/scratch/users/cwagen/cwagen_scan_220_260/"
 Entering Link 1 = /home/cwagen/sw/g16/g16/l1.exe PID=      3565.
  
 Copyright (c) 1988,1990,1992,1993,1995,1998,2003,2009,2016,
            Gaussian, Inc.  All Rights Reserved.
  
 This is part of the Gaussian(R) 16 program.  It is based on
 the Gaussian(R) 09 system (copyright 2009, Gaussian, Inc.),
 the Gaussian(R) 03 system (copyright 2003, Gaussian, Inc.),
 the Gaussian(R) 98 system (copyright 1998, Gaussian, Inc.),
 the Gaussian(R) 94 system (copyright 1995, Gaussian, Inc.),
 the Gaussian 92(TM) system (copyright 1992, Gaussian, Inc.),
 the Gaussian 90(TM) system (copyright 1990, Gaussian, Inc.),
 the Gaussian 88(TM) system (copyright 1988, Gaussian, Inc.),
 the Gaussian 86(TM) system (copyright 1986, Carnegie Mellon
 University), and the Gaussian 82(TM) system (copyright 1983,
 Carnegie Mellon University). Gaussian is a federally registered
 trademark of Gaussian, Inc.
  
 This software contains proprietary and confidential information,
 including trade secrets, belonging to Gaussian, Inc.
  
 This software is provided under written license and may be
 used, copied, transmitted, or stored only in accord with that
 written license.
  
 The following legend is applicable only to US Government
 contracts under FAR:
  
                    RESTRICTED RIGHTS LEGEND
  
 Use, reproduction and disclosure by the US Government is
 subject to restrictions as set forth in subparagraphs (a)
 and (c) of the Commercial Computer Software - Restricted
 Rights clause in FAR 52.227-19.
  
 Gaussian, Inc.
 340 Quinnipiac St., Bldg. 40, Wallingford CT 06492
  
  
 ---------------------------------------------------------------
 Warning -- This program may not be used in any manner that
 competes with the business of Gaussian, Inc. or will provide
 assistance to any competitor of Gaussian, Inc.  The licensee
 of this program is prohibited from giving any competitor of
 Gaussian, Inc. access to this program.  By using this program,
 the user acknowledges that Gaussian, Inc. is engaged in the
 business of creating and licensing software in the field of
 computational chemistry and represents and warrants to the
 licensee that it is not a competitor of Gaussian, Inc. and that
 it will not use this program in any manner prohibited above.
 ---------------------------------------------------------------
  

 Cite this work as:
 Gaussian 16, Revision A.03,
 M. J. Frisch, G. W. Trucks, H. B. Schlegel, G. E. Scuseria, 
 M. A. Robb, J. R. Cheeseman, G. Scalmani, V. Barone, 
 G. A. Petersson, H. Nakatsuji, X. Li, M. Caricato, A. V. Marenich, 
 J. Bloino, B. G. Janesko, R. Gomperts, B. Mennucci, H. P. Hratchian, 
 J. V. Ortiz, A. F. Izmaylov, J. L. Sonnenberg, D. Williams-Young, 
 F. Ding, F. Lipparini, F. Egidi, J. Goings, B. Peng, A. Petrone, 
 T. Henderson, D. Ranasinghe, V. G. Zakrzewski, J. Gao, N. Rega, 
 G. Zheng, W. Liang, M. Hada, M. Ehara, K. Toyota, R. Fukuda, 
 J. Hasegawa, M. Ishida, T. Nakajima, Y. Honda, O. Kitao, H. Nakai, 
 T. Vreven, K. Throssell, J. A. Montgomery, Jr., J. E. Peralta, 
 F. Ogliaro, M. J. Bearpark, J. J. Heyd, E. N. Brothers, K. N. Kudin, 
 V. N. Staroverov, T. A. Keith, R. Kobayashi, J. Normand, 
 K. Raghavachari, A. P. Rendell, J. C. Burant, S. S. Iyengar, 
 J. Tomasi, M. Cossi, J. M. Millam, M. Klene, C. Adamo, R. Cammi, 
 J. W. Ochterski, R. L. Martin, K. Morokuma, O. Farkas, 
 J. B. Foresman, and D. J. Fox, Gaussian, Inc., Wallingford CT, 2016.
 
 ******************************************
 Gaussian 16:  AS64L-G16RevA.03 25-Dec-2016
                 8-Jan-2020 
 ******************************************
 %nprocshared=16
 Will use up to   16 processors via shared memory.
 %mem=32GB
 ----------------------------------------------------------------------
 #p opt=modredundant b3lyp/6-31+g(d) scrf=(smd, solvent=tetrahydrofuran
 )
 ----------------------------------------------------------------------
 1/18=120,19=15,26=3,38=1/1,3;
 2/9=110,12=2,17=6,18=5,40=1/2;
 3/5=1,6=6,7=11,11=2,25=1,30=1,70=32201,71=1,72=20,74=-5/1,2,3;
 4//1;
 5/5=2,38=5,53=20/2;
 6/7=2,8=2,9=2,10=2,28=1/1;
 7//1,2,3,16;
 1/18=20,19=15,26=3/3(2);
 2/9=110/2;
 99//99;
 2/9=110/2;
 3/5=1,6=6,7=11,11=2,25=1,30=1,70=32205,71=1,72=20,74=-5/1,2,3;
 4/5=5,16=3,69=1/1;
 5/5=2,38=5,53=20/2;
 7//1,2,3,16;
 1/18=20,19=15,26=3/3(-5);
 2/9=110/2;
 6/7=2,8=2,9=2,10=2,19=2,28=1/1;
 99/9=1/99;
 Leave Link    1 at Wed Jan  8 00:45:48 2020, MaxMem=  4294967296 cpu:               1.7 elap:               0.2
 (Enter /home/cwagen/sw/g16/g16/l101.exe)
 -----
 title
 -----
 Symbolic Z-matrix:
 Charge = -1 Multiplicity = 1
 6                    -0.19426  -0.292    -0.21291 
 8                    -0.25532  -0.66526  -1.45426 
 6                    -0.33095  -1.45422   0.81632 
 1                    -0.18039  -1.13044   1.85373 
 1                    -1.34067  -1.87301   0.71427 
 1                     0.39707  -2.23395   0.57058 
 17                   -1.51149   1.37901   0.34622 
 6                     2.21625   0.5521    0.27382 
 7                     3.35082   0.8324    0.30413 
 
 Add virtual bond connecting atoms Cl7        and C1         Dist= 4.16D+00.
 Add virtual bond connecting atoms C8         and C1         Dist= 4.91D+00.
 The following ModRedundant input section has been read:
 B       1       7 F                                                           
 B       1       8 F                                                           
 
 ITRead=  0  0  0  0  0  0  0  0  0
 MicOpt= -1 -1 -1 -1 -1 -1 -1 -1 -1
 NAtoms=      9 NQM=        9 NQMF=       0 NMMI=      0 NMMIF=      0
                NMic=       0 NMicF=      0.
                    Isotopes and Nuclear Properties:
 (Nuclear quadrupole moments (NQMom) in fm**2, nuclear magnetic moments (NMagM)
  in nuclear magnetons)

  Atom         1           2           3           4           5           6           7           8           9
 IAtWgt=          12          16          12           1           1           1          35          12          14
 AtmWgt=  12.0000000  15.9949146  12.0000000   1.0078250   1.0078250   1.0078250  34.9688527  12.0000000  14.0030740
 NucSpn=           0           0           0           1           1           1           3           0           2
 AtZEff=   0.0000000   0.0000000   0.0000000   0.0000000   0.0000000   0.0000000   0.0000000   0.0000000   0.0000000
 NQMom=    0.0000000   0.0000000   0.0000000   0.0000000   0.0000000   0.0000000  -8.1650000   0.0000000   2.0440000
 NMagM=    0.0000000   0.0000000   0.0000000   2.7928460   2.7928460   2.7928460   0.8218740   0.0000000   0.4037610
 AtZNuc=   6.0000000   8.0000000   6.0000000   1.0000000   1.0000000   1.0000000  17.0000000   6.0000000   7.0000000
 Leave Link  101 at Wed Jan  8 00:45:49 2020, MaxMem=  4294967296 cpu:               6.2 elap:               0.7
 (Enter /home/cwagen/sw/g16/g16/l103.exe)

 GradGradGradGradGradGradGradGradGradGradGradGradGradGradGradGradGradGrad
 Berny optimization.
 Initialization pass.
                           ----------------------------
                           !    Initial Parameters    !
                           ! (Angstroms and Degrees)  !
 --------------------------                            --------------------------
 ! Name  Definition              Value          Derivative Info.                !
 --------------------------------------------------------------------------------
 ! R1    R(1,2)                  1.2977         estimate D2E/DX2                !
 ! R2    R(1,3)                  1.5584         estimate D2E/DX2                !
 ! R3    R(1,7)                  2.2            Frozen                          !
 ! R4    R(1,8)                  2.6            Frozen                          !
 ! R5    R(3,4)                  1.0971         estimate D2E/DX2                !
 ! R6    R(3,5)                  1.0979         estimate D2E/DX2                !
 ! R7    R(3,6)                  1.0947         estimate D2E/DX2                !
 ! R8    R(8,9)                  1.1691         estimate D2E/DX2                !
 ! A1    A(2,1,3)              114.4006         estimate D2E/DX2                !
 ! A2    A(2,1,7)              115.6846         estimate D2E/DX2                !
 ! A3    A(2,1,8)              108.426          estimate D2E/DX2                !
 ! A4    A(3,1,7)              110.248          estimate D2E/DX2                !
 ! A5    A(3,1,8)              101.5248         estimate D2E/DX2                !
 ! A6    A(7,1,8)              105.1256         estimate D2E/DX2                !
 ! A7    A(1,3,4)              113.1005         estimate D2E/DX2                !
 ! A8    A(1,3,5)              107.683          estimate D2E/DX2                !
 ! A9    A(1,3,6)              108.9421         estimate D2E/DX2                !
 ! A10   A(4,3,5)              109.0662         estimate D2E/DX2                !
 ! A11   A(4,3,6)              109.3417         estimate D2E/DX2                !
 ! A12   A(5,3,6)              108.6067         estimate D2E/DX2                !
 ! A13   L(1,8,9,6,-1)         177.1877         estimate D2E/DX2                !
 ! A14   L(1,8,9,6,-2)         164.4688         estimate D2E/DX2                !
 ! D1    D(2,1,3,4)            174.4714         estimate D2E/DX2                !
 ! D2    D(2,1,3,5)            -64.9488         estimate D2E/DX2                !
 ! D3    D(2,1,3,6)             52.6633         estimate D2E/DX2                !
 ! D4    D(7,1,3,4)            -53.1046         estimate D2E/DX2                !
 ! D5    D(7,1,3,5)             67.4752         estimate D2E/DX2                !
 ! D6    D(7,1,3,6)           -174.9127         estimate D2E/DX2                !
 ! D7    D(8,1,3,4)             57.938          estimate D2E/DX2                !
 ! D8    D(8,1,3,5)            178.5177         estimate D2E/DX2                !
 ! D9    D(8,1,3,6)            -63.8702         estimate D2E/DX2                !
 --------------------------------------------------------------------------------
 Trust Radius=3.00D-01 FncErr=1.00D-07 GrdErr=1.00D-06 EigMax=2.50D+02 EigMin=1.00D-04
 Number of steps in this run=     41 maximum allowed number of steps=    100.
 GradGradGradGradGradGradGradGradGradGradGradGradGradGradGradGradGradGrad

 Leave Link  103 at Wed Jan  8 00:45:49 2020, MaxMem=  4294967296 cpu:               0.8 elap:               0.1
 (Enter /home/cwagen/sw/g16/g16/l202.exe)
                          Input orientation:                          
 ---------------------------------------------------------------------
 Center     Atomic      Atomic             Coordinates (Angstroms)
 Number     Number       Type             X           Y           Z
 ---------------------------------------------------------------------
      1          6           0       -0.194263   -0.291999   -0.212908
      2          8           0       -0.255321   -0.665256   -1.454255
      3          6           0       -0.330945   -1.454221    0.816316
      4          1           0       -0.180394   -1.130438    1.853734
      5          1           0       -1.340665   -1.873010    0.714272
      6          1           0        0.397068   -2.233949    0.570583
      7         17           0       -1.511489    1.379015    0.346225
      8          6           0        2.216254    0.552100    0.273822
      9          7           0        3.350825    0.832398    0.304125
 ---------------------------------------------------------------------
                    Distance matrix (angstroms):
                    1          2          3          4          5
     1  C    0.000000
     2  O    1.297687   0.000000
     3  C    1.558443   2.404928   0.000000
     4  H    2.230287   3.341377   1.097150   0.000000
     5  H    2.161827   2.709087   1.097876   1.787740   0.000000
     6  H    2.175937   2.643176   1.094698   1.788205   1.780629
     7  Cl   2.200000   2.999788   3.105140   3.215859   3.277240
     8  C    2.600000   3.252213   3.287528   3.327307   4.327450
     9  N    3.754895   4.282424   4.364217   4.327068   5.431163
                    6          7          8          9
     6  H    0.000000
     7  Cl   4.092240   0.000000
     8  C    3.340594   3.819044   0.000000
     9  N    4.265930   4.893124   1.169075   0.000000
 Stoichiometry    C3H3ClNO(1-)
 Framework group  C1[X(C3H3ClNO)]
 Deg. of freedom    21
 Full point group                 C1      NOp   1
 Largest Abelian subgroup         C1      NOp   1
 Largest concise Abelian subgroup C1      NOp   1
                         Standard orientation:                         
 ---------------------------------------------------------------------
 Center     Atomic      Atomic             Coordinates (Angstroms)
 Number     Number       Type             X           Y           Z
 ---------------------------------------------------------------------
      1          6           0       -0.269743    0.562528    0.207671
      2          8           0       -0.335469    1.140893    1.367484
      3          6           0       -0.350045    1.539077   -1.004207
      4          1           0       -0.196087    1.040807   -1.969484
      5          1           0       -1.345596    2.001797   -0.994219
      6          1           0        0.401615    2.324823   -0.877821
      7         17           0       -1.637353   -1.134780   -0.090302
      8          6           0        2.116013   -0.429607   -0.081880
      9          7           0        3.240211   -0.747900   -0.041817
 ---------------------------------------------------------------------
 Rotational constants (GHZ):           3.0318957           1.4496115           1.2045841
 Leave Link  202 at Wed Jan  8 00:45:49 2020, MaxMem=  4294967296 cpu:               2.0 elap:               0.2
 (Enter /home/cwagen/sw/g16/g16/l301.exe)
 Standard basis: 6-31+G(d) (6D, 7F)
 Ernie: Thresh=  0.10000D-02 Tol=  0.10000D-05 Strict=F.
 There are   124 symmetry adapted cartesian basis functions of A   symmetry.
 There are   124 symmetry adapted basis functions of A   symmetry.
   124 basis functions,   228 primitive gaussians,   124 cartesian basis functions
    27 alpha electrons       27 beta electrons
       nuclear repulsion energy       224.2893820771 Hartrees.
 IExCor=  402 DFT=T Ex+Corr=B3LYP ExCW=0 ScaHFX=  0.200000
 ScaDFX=  0.800000  0.720000  1.000000  0.810000 ScalE2=  1.000000  1.000000
 IRadAn=      5 IRanWt=     -1 IRanGd=            0 ICorTp=0 IEmpDi=  4
 NAtoms=    9 NActive=    9 NUniq=    9 SFac= 1.00D+00 NAtFMM=   60 NAOKFM=F Big=F
 Integral buffers will be    131072 words long.
 Raffenetti 2 integral format.
 Two-electron integral symmetry is turned on.
 ------------------------------------------------------------------------------
 Polarizable Continuum Model (PCM)
 =================================
 Model                : PCM.
 Atomic radii         : SMD-Coulomb.
 Polarization charges : Total charges.
 Charge compensation  : None.
 Solution method      : On-the-fly selection.
 Cavity type          : VdW (van der Waals Surface) (Alpha=1.000).
 Cavity algorithm     : GePol (No added spheres)
                        Default sphere list used, NSphG=    9.
                        Lebedev-Laikov grids with approx.  5.0 points / Ang**2.
                        Smoothing algorithm: York/Karplus (Gamma=1.0000).
                        Polarization charges: spherical gaussians, with
                                              point-specific exponents (IZeta= 3).
                        Self-potential: point-specific (ISelfS= 7).
                        Self-field    : sphere-specific E.n sum rule (ISelfD= 2).
 1st derivatives      : Analytical E(r).r(x)/FMM algorithm (CHGder, D1EAlg=3).
                        Cavity 1st derivative terms included.
 Solvent              : TetraHydroFuran, Eps=   7.425700 Eps(inf)=   1.974025
 ------------------------------------------------------------------------------
 Spheres list:
 ISph  on   Nord     Re0    Alpha      Xe            Ye            Ze
    1   C      1    1.8500  1.000     -0.269743      0.562528      0.207671
    2   O      2    2.2940  1.000     -0.335469      1.140893      1.367484
    3   C      3    1.8500  1.000     -0.350045      1.539077     -1.004207
    4   H      4    1.2000  1.000     -0.196087      1.040807     -1.969484
    5   H      5    1.2000  1.000     -1.345596      2.001797     -0.994219
    6   H      6    1.2000  1.000      0.401615      2.324823     -0.877821
    7  Cl      7    2.3800  1.000     -1.637353     -1.134780     -0.090302
    8   C      8    1.8500  1.000      2.116013     -0.429607     -0.081880
    9   N      9    1.8900  1.000      3.240211     -0.747900     -0.041817
 ------------------------------------------------------------------------------
 GePol: Number of generator spheres                  =       9
 GePol: Total number of spheres                      =       9
 GePol: Number of exposed spheres                    =       9 (100.00%)
 GePol: Number of points                             =    1271
 GePol: Average weight of points                     =       0.14
 GePol: Minimum weight of points                     =   0.42D-06
 GePol: Maximum weight of points                     =    0.18138
 GePol: Number of points with low weight             =      27
 GePol: Fraction of low-weight points (<1% of avg)   =       2.12%
 GePol: Cavity surface area                          =    173.014 Ang**2
 GePol: Cavity volume                                =    154.642 Ang**3
 ------------------------------------------------------------------------------
 Atomic radii for non-electrostatic terms: SMD-CDS.
 ------------------------------------------------------------------------------
 PCM non-electrostatic energy =         0.0009516580 Hartrees.
 Nuclear repulsion after PCM non-electrostatic terms =      224.2903337351 Hartrees.
 Leave Link  301 at Wed Jan  8 00:45:49 2020, MaxMem=  4294967296 cpu:               2.1 elap:               0.2
 (Enter /home/cwagen/sw/g16/g16/l302.exe)
 NPDir=0 NMtPBC=     1 NCelOv=     1 NCel=       1 NClECP=     1 NCelD=      1
         NCelK=      1 NCelE2=     1 NClLst=     1 CellRange=     0.0.
 One-electron integrals computed using PRISM.
 One-electron integral symmetry used in STVInt
 NBasis=   124 RedAO= T EigKep=  1.49D-04  NBF=   124
 NBsUse=   124 1.00D-06 EigRej= -1.00D+00 NBFU=   124
 Precomputing XC quadrature grid using
 IXCGrd= 4 IRadAn=           5 IRanWt=          -1 IRanGd=           0 AccXCQ= 0.00D+00.
 Generated NRdTot=       0 NPtTot=           0 NUsed=           0 NTot=          32
 NSgBfM=   124   124   124   124   124 MxSgAt=     9 MxSgA2=     9.
 Leave Link  302 at Wed Jan  8 00:45:53 2020, MaxMem=  4294967296 cpu:              41.8 elap:               4.0
 (Enter /home/cwagen/sw/g16/g16/l303.exe)
 DipDrv:  MaxL=1.
 Leave Link  303 at Wed Jan  8 00:45:54 2020, MaxMem=  4294967296 cpu:               3.5 elap:               0.4
 (Enter /home/cwagen/sw/g16/g16/l401.exe)
 ExpMin= 4.38D-02 ExpMax= 2.52D+04 ExpMxC= 3.78D+03 IAcc=3 IRadAn=         5 AccDes= 0.00D+00
 Harris functional with IExCor=  402 and IRadAn=       5 diagonalized for initial guess.
 HarFok:  IExCor=  402 AccDes= 0.00D+00 IRadAn=         5 IDoV= 1 UseB2=F ITyADJ=14
 ICtDFT=  3500011 ScaDFX=  1.000000  1.000000  1.000000  1.000000
 FoFCou: FMM=F IPFlag=           0 FMFlag=      100000 FMFlg1=           0
         NFxFlg=           0 DoJE=T BraDBF=F KetDBF=T FulRan=T
         wScrn=  0.000000 ICntrl=       500 IOpCl=  0 I1Cent=   200000004 NGrid=           0
         NMat0=    1 NMatS0=      1 NMatT0=    0 NMatD0=    1 NMtDS0=    0 NMtDT0=    0
 Petite list used in FoFCou.
 Harris En= -706.372282019282    
 JPrj=0 DoOrth=F DoCkMO=F.
 Leave Link  401 at Wed Jan  8 00:45:57 2020, MaxMem=  4294967296 cpu:              29.7 elap:               2.8
 (Enter /home/cwagen/sw/g16/g16/l502.exe)
 Keep R1 ints in memory in canonical form, NReq=45236517.
 FoFCou: FMM=F IPFlag=           0 FMFlag=           0 FMFlg1=           0
         NFxFlg=           0 DoJE=F BraDBF=F KetDBF=F FulRan=T
         wScrn=  0.000000 ICntrl=       600 IOpCl=  0 I1Cent=           0 NGrid=           0
         NMat0=    1 NMatS0=   7750 NMatT0=    0 NMatD0=    1 NMtDS0=    0 NMtDT0=    0
 Symmetry not used in FoFCou.
 Two-electron integral symmetry not used.
 Closed shell SCF:
 Using DIIS extrapolation, IDIIS=  1040.
 NGot=  4294967296 LenX=  4264898079 LenY=  4264882262
 Requested convergence on RMS density matrix=1.00D-08 within 128 cycles.
 Requested convergence on MAX density matrix=1.00D-06.
 Requested convergence on             energy=1.00D-06.
 No special actions if energy rises.

 Cycle   1  Pass 1  IDiag  1:
 Inv3:  Mode=1 IEnd=     4846323.
 Iteration    1 A*A^-1 deviation from unit magnitude is 5.11D-15 for   1257.
 Iteration    1 A*A^-1 deviation from orthogonality  is 1.85D-15 for   1266   1030.
 Iteration    1 A^-1*A deviation from unit magnitude is 5.33D-15 for   1257.
 Iteration    1 A^-1*A deviation from orthogonality  is 2.14D-15 for   1252   1092.
 E= -706.158610460351    
 DIIS: error= 2.70D-02 at cycle   1 NSaved=   1.
 NSaved= 1 IEnMin= 1 EnMin= -706.158610460351     IErMin= 1 ErrMin= 2.70D-02
 ErrMax= 2.70D-02  0.00D+00 EMaxC= 1.00D-01 BMatC= 2.20D-01 BMatP= 2.20D-01
 IDIUse=3 WtCom= 7.30D-01 WtEn= 2.70D-01
 Coeff-Com:  0.100D+01
 Coeff-En:   0.100D+01
 Coeff:      0.100D+01
 Gap=     0.208 Goal=   None    Shift=    0.000
 GapD=    0.208 DampG=1.000 DampE=0.500 DampFc=0.5000 IDamp=-1.
 Damping current iteration by 5.00D-01
 RMSDP=1.24D-02 MaxDP=3.30D-01              OVMax= 5.31D-01

 Cycle   2  Pass 1  IDiag  1:
 E= -706.064714351139     Delta-E=        0.093896109212 Rises=F Damp=T
 DIIS: error= 2.26D-02 at cycle   2 NSaved=   2.
 NSaved= 2 IEnMin= 1 EnMin= -706.158610460351     IErMin= 2 ErrMin= 2.26D-02
 ErrMax= 2.26D-02  0.00D+00 EMaxC= 1.00D-01 BMatC= 1.48D-01 BMatP= 2.20D-01
 IDIUse=3 WtCom= 7.74D-01 WtEn= 2.26D-01
 Coeff-Com:  0.439D+00 0.561D+00
 Coeff-En:   0.619D+00 0.381D+00
 Coeff:      0.480D+00 0.520D+00
 Gap=     0.084 Goal=   None    Shift=    0.000
 RMSDP=4.52D-03 MaxDP=1.03D-01 DE= 9.39D-02 OVMax= 3.72D-01

 Cycle   3  Pass 1  IDiag  1:
 E= -706.294429923283     Delta-E=       -0.229715572144 Rises=F Damp=F
 DIIS: error= 1.55D-02 at cycle   3 NSaved=   3.
 NSaved= 3 IEnMin= 3 EnMin= -706.294429923283     IErMin= 3 ErrMin= 1.55D-02
 ErrMax= 1.55D-02  0.00D+00 EMaxC= 1.00D-01 BMatC= 7.41D-02 BMatP= 1.48D-01
 IDIUse=3 WtCom= 8.45D-01 WtEn= 1.55D-01
 EnCoef did     1 forward-backward iterations
 Coeff-Com:  0.213D+00 0.380D+00 0.408D+00
 Coeff-En:   0.959D-01 0.433D-01 0.861D+00
 Coeff:      0.195D+00 0.328D+00 0.478D+00
 Gap=     0.171 Goal=   None    Shift=    0.000
 RMSDP=3.35D-03 MaxDP=1.00D-01 DE=-2.30D-01 OVMax= 1.32D-01

 Cycle   4  Pass 1  IDiag  1:
 E= -706.359933027082     Delta-E=       -0.065503103799 Rises=F Damp=F
 DIIS: error= 5.97D-03 at cycle   4 NSaved=   4.
 NSaved= 4 IEnMin= 4 EnMin= -706.359933027082     IErMin= 4 ErrMin= 5.97D-03
 ErrMax= 5.97D-03  0.00D+00 EMaxC= 1.00D-01 BMatC= 9.51D-03 BMatP= 7.41D-02
 IDIUse=3 WtCom= 9.40D-01 WtEn= 5.97D-02
 Coeff-Com:  0.514D-01 0.722D-01 0.268D+00 0.609D+00
 Coeff-En:   0.000D+00 0.000D+00 0.112D+00 0.888D+00
 Coeff:      0.483D-01 0.679D-01 0.259D+00 0.625D+00
 Gap=     0.173 Goal=   None    Shift=    0.000
 RMSDP=9.54D-04 MaxDP=2.29D-02 DE=-6.55D-02 OVMax= 4.46D-02

 Cycle   5  Pass 1  IDiag  1:
 E= -706.367016177578     Delta-E=       -0.007083150496 Rises=F Damp=F
 DIIS: error= 2.84D-03 at cycle   5 NSaved=   5.
 NSaved= 5 IEnMin= 5 EnMin= -706.367016177578     IErMin= 5 ErrMin= 2.84D-03
 ErrMax= 2.84D-03  0.00D+00 EMaxC= 1.00D-01 BMatC= 1.42D-03 BMatP= 9.51D-03
 IDIUse=3 WtCom= 9.72D-01 WtEn= 2.84D-02
 Coeff-Com:  0.788D-02 0.404D-02 0.119D+00 0.408D+00 0.461D+00
 Coeff-En:   0.000D+00 0.000D+00 0.000D+00 0.116D+00 0.884D+00
 Coeff:      0.766D-02 0.392D-02 0.116D+00 0.399D+00 0.473D+00
 Gap=     0.157 Goal=   None    Shift=    0.000
 RMSDP=4.23D-04 MaxDP=1.05D-02 DE=-7.08D-03 OVMax= 1.34D-02

 Cycle   6  Pass 1  IDiag  1:
 E= -706.368170997555     Delta-E=       -0.001154819977 Rises=F Damp=F
 DIIS: error= 1.07D-03 at cycle   6 NSaved=   6.
 NSaved= 6 IEnMin= 6 EnMin= -706.368170997555     IErMin= 6 ErrMin= 1.07D-03
 ErrMax= 1.07D-03  0.00D+00 EMaxC= 1.00D-01 BMatC= 1.88D-04 BMatP= 1.42D-03
 IDIUse=3 WtCom= 9.89D-01 WtEn= 1.07D-02
 Coeff-Com:  0.111D-02-0.388D-02 0.479D-01 0.176D+00 0.310D+00 0.469D+00
 Coeff-En:   0.000D+00 0.000D+00 0.000D+00 0.000D+00 0.124D+00 0.876D+00
 Coeff:      0.110D-02-0.384D-02 0.474D-01 0.174D+00 0.308D+00 0.473D+00
 Gap=     0.159 Goal=   None    Shift=    0.000
 RMSDP=1.34D-04 MaxDP=3.23D-03 DE=-1.15D-03 OVMax= 4.16D-03

 Cycle   7  Pass 1  IDiag  1:
 E= -706.368345556613     Delta-E=       -0.000174559057 Rises=F Damp=F
 DIIS: error= 2.01D-04 at cycle   7 NSaved=   7.
 NSaved= 7 IEnMin= 7 EnMin= -706.368345556613     IErMin= 7 ErrMin= 2.01D-04
 ErrMax= 2.01D-04  0.00D+00 EMaxC= 1.00D-01 BMatC= 9.97D-06 BMatP= 1.88D-04
 IDIUse=3 WtCom= 9.98D-01 WtEn= 2.01D-03
 Coeff-Com:  0.520D-03-0.308D-02 0.119D-01 0.382D-01 0.106D+00 0.236D+00
 Coeff-Com:  0.611D+00
 Coeff-En:   0.000D+00 0.000D+00 0.000D+00 0.000D+00 0.000D+00 0.000D+00
 Coeff-En:   0.100D+01
 Coeff:      0.519D-03-0.307D-02 0.119D-01 0.382D-01 0.106D+00 0.235D+00
 Coeff:      0.612D+00
 Gap=     0.158 Goal=   None    Shift=    0.000
 RMSDP=4.23D-05 MaxDP=5.46D-04 DE=-1.75D-04 OVMax= 1.57D-03

 Cycle   8  Pass 1  IDiag  1:
 E= -706.368354543723     Delta-E=       -0.000008987110 Rises=F Damp=F
 DIIS: error= 7.26D-05 at cycle   8 NSaved=   8.
 NSaved= 8 IEnMin= 8 EnMin= -706.368354543723     IErMin= 8 ErrMin= 7.26D-05
 ErrMax= 7.26D-05  0.00D+00 EMaxC= 1.00D-01 BMatC= 1.62D-06 BMatP= 9.97D-06
 IDIUse=1 WtCom= 1.00D+00 WtEn= 0.00D+00
 Coeff-Com:  0.291D-03-0.165D-02 0.288D-02 0.581D-02 0.345D-01 0.960D-01
 Coeff-Com:  0.366D+00 0.496D+00
 Coeff:      0.291D-03-0.165D-02 0.288D-02 0.581D-02 0.345D-01 0.960D-01
 Coeff:      0.366D+00 0.496D+00
 Gap=     0.158 Goal=   None    Shift=    0.000
 RMSDP=1.42D-05 MaxDP=5.55D-04 DE=-8.99D-06 OVMax= 4.82D-04

 Cycle   9  Pass 1  IDiag  1:
 E= -706.368356274263     Delta-E=       -0.000001730540 Rises=F Damp=F
 DIIS: error= 1.79D-05 at cycle   9 NSaved=   9.
 NSaved= 9 IEnMin= 9 EnMin= -706.368356274263     IErMin= 9 ErrMin= 1.79D-05
 ErrMax= 1.79D-05  0.00D+00 EMaxC= 1.00D-01 BMatC= 9.83D-08 BMatP= 1.62D-06
 IDIUse=1 WtCom= 1.00D+00 WtEn= 0.00D+00
 Coeff-Com:  0.142D-03-0.365D-03-0.180D-03-0.265D-02 0.141D-02 0.107D-01
 Coeff-Com:  0.638D-01 0.215D+00 0.712D+00
 Coeff:      0.142D-03-0.365D-03-0.180D-03-0.265D-02 0.141D-02 0.107D-01
 Coeff:      0.638D-01 0.215D+00 0.712D+00
 Gap=     0.158 Goal=   None    Shift=    0.000
 RMSDP=3.95D-06 MaxDP=1.22D-04 DE=-1.73D-06 OVMax= 1.85D-04

 Cycle  10  Pass 1  IDiag  1:
 E= -706.368356386057     Delta-E=       -0.000000111794 Rises=F Damp=F
 DIIS: error= 4.58D-06 at cycle  10 NSaved=  10.
 NSaved=10 IEnMin=10 EnMin= -706.368356386057     IErMin=10 ErrMin= 4.58D-06
 ErrMax= 4.58D-06  0.00D+00 EMaxC= 1.00D-01 BMatC= 7.67D-09 BMatP= 9.83D-08
 IDIUse=1 WtCom= 1.00D+00 WtEn= 0.00D+00
 Coeff-Com:  0.497D-04-0.876D-04-0.215D-03-0.141D-02-0.122D-02-0.487D-03
 Coeff-Com:  0.364D-02 0.714D-01 0.361D+00 0.568D+00
 Coeff:      0.497D-04-0.876D-04-0.215D-03-0.141D-02-0.122D-02-0.487D-03
 Coeff:      0.364D-02 0.714D-01 0.361D+00 0.568D+00
 Gap=     0.158 Goal=   None    Shift=    0.000
 RMSDP=1.33D-06 MaxDP=4.17D-05 DE=-1.12D-07 OVMax= 3.04D-05

 Cycle  11  Pass 1  IDiag  1:
 E= -706.368356394989     Delta-E=       -0.000000008932 Rises=F Damp=F
 DIIS: error= 7.84D-07 at cycle  11 NSaved=  11.
 NSaved=11 IEnMin=11 EnMin= -706.368356394989     IErMin=11 ErrMin= 7.84D-07
 ErrMax= 7.84D-07  0.00D+00 EMaxC= 1.00D-01 BMatC= 1.72D-10 BMatP= 7.67D-09
 IDIUse=1 WtCom= 1.00D+00 WtEn= 0.00D+00
 Coeff-Com: -0.427D-05 0.210D-04-0.558D-04-0.174D-03-0.622D-03-0.136D-02
 Coeff-Com: -0.678D-02-0.307D-02 0.377D-01 0.133D+00 0.841D+00
 Coeff:     -0.427D-05 0.210D-04-0.558D-04-0.174D-03-0.622D-03-0.136D-02
 Coeff:     -0.678D-02-0.307D-02 0.377D-01 0.133D+00 0.841D+00
 Gap=     0.158 Goal=   None    Shift=    0.000
 RMSDP=2.60D-07 MaxDP=3.68D-06 DE=-8.93D-09 OVMax= 1.22D-05

 Cycle  12  Pass 1  IDiag  1:
 E= -706.368356395260     Delta-E=       -0.000000000271 Rises=F Damp=F
 DIIS: error= 1.95D-07 at cycle  12 NSaved=  12.
 NSaved=12 IEnMin=12 EnMin= -706.368356395260     IErMin=12 ErrMin= 1.95D-07
 ErrMax= 1.95D-07  0.00D+00 EMaxC= 1.00D-01 BMatC= 1.25D-11 BMatP= 1.72D-10
 IDIUse=1 WtCom= 1.00D+00 WtEn= 0.00D+00
 Coeff-Com: -0.496D-05 0.104D-04-0.445D-05 0.121D-04-0.722D-04-0.189D-03
 Coeff-Com: -0.147D-02-0.321D-02-0.632D-02-0.654D-02 0.162D+00 0.855D+00
 Coeff:     -0.496D-05 0.104D-04-0.445D-05 0.121D-04-0.722D-04-0.189D-03
 Coeff:     -0.147D-02-0.321D-02-0.632D-02-0.654D-02 0.162D+00 0.855D+00
 Gap=     0.158 Goal=   None    Shift=    0.000
 RMSDP=6.00D-08 MaxDP=1.17D-06 DE=-2.71D-10 OVMax= 1.90D-06

 Cycle  13  Pass 1  IDiag  1:
 E= -706.368356395275     Delta-E=       -0.000000000016 Rises=F Damp=F
 DIIS: error= 5.04D-08 at cycle  13 NSaved=  13.
 NSaved=13 IEnMin=13 EnMin= -706.368356395275     IErMin=13 ErrMin= 5.04D-08
 ErrMax= 5.04D-08  0.00D+00 EMaxC= 1.00D-01 BMatC= 5.78D-13 BMatP= 1.25D-11
 IDIUse=1 WtCom= 1.00D+00 WtEn= 0.00D+00
 Coeff-Com: -0.984D-06 0.969D-06 0.139D-05 0.640D-05 0.217D-04 0.571D-04
 Coeff-Com:  0.150D-03-0.140D-03-0.326D-02-0.111D-01-0.233D-01 0.148D+00
 Coeff-Com:  0.889D+00
 Coeff:     -0.984D-06 0.969D-06 0.139D-05 0.640D-05 0.217D-04 0.571D-04
 Coeff:      0.150D-03-0.140D-03-0.326D-02-0.111D-01-0.233D-01 0.148D+00
 Coeff:      0.889D+00
 Gap=     0.158 Goal=   None    Shift=    0.000
 RMSDP=1.88D-08 MaxDP=4.40D-07 DE=-1.58D-11 OVMax= 4.75D-07

 Cycle  14  Pass 1  IDiag  1:
 E= -706.368356395276     Delta-E=        0.000000000000 Rises=F Damp=F
 DIIS: error= 8.02D-09 at cycle  14 NSaved=  14.
 NSaved=14 IEnMin=14 EnMin= -706.368356395276     IErMin=14 ErrMin= 8.02D-09
 ErrMax= 8.02D-09  0.00D+00 EMaxC= 1.00D-01 BMatC= 1.77D-14 BMatP= 5.78D-13
 IDIUse=1 WtCom= 1.00D+00 WtEn= 0.00D+00
 Coeff-Com:  0.726D-08-0.189D-06 0.511D-06 0.108D-05 0.675D-05 0.176D-04
 Coeff-Com:  0.718D-04 0.823D-04-0.484D-03-0.228D-02-0.108D-01 0.745D-03
 Coeff-Com:  0.193D+00 0.819D+00
 Coeff:      0.726D-08-0.189D-06 0.511D-06 0.108D-05 0.675D-05 0.176D-04
 Coeff:      0.718D-04 0.823D-04-0.484D-03-0.228D-02-0.108D-01 0.745D-03
 Coeff:      0.193D+00 0.819D+00
 Gap=     0.158 Goal=   None    Shift=    0.000
 RMSDP=2.69D-09 MaxDP=6.87D-08 DE=-2.27D-13 OVMax= 7.04D-08

 Error on total polarization charges =  0.02420
 SCF Done:  E(RB3LYP) =  -706.368356395     A.U. after   14 cycles
            NFock= 14  Conv=0.27D-08     -V/T= 2.0063
 KE= 7.019733058835D+02 PE=-2.125668922671D+03 EE= 4.930369266568D+02
 SMD-CDS (non-electrostatic) energy       (kcal/mol) =       0.60
 (included in total energy above)
 Leave Link  502 at Wed Jan  8 00:46:59 2020, MaxMem=  4294967296 cpu:             695.6 elap:              62.2
 (Enter /home/cwagen/sw/g16/g16/l601.exe)
 Copying SCF densities to generalized density rwf, IOpCl= 0 IROHF=0.

 **********************************************************************

            Population analysis using the SCF density.

 **********************************************************************

 Orbital symmetries:
       Occupied  (A) (A) (A) (A) (A) (A) (A) (A) (A) (A) (A) (A)
                 (A) (A) (A) (A) (A) (A) (A) (A) (A) (A) (A) (A)
                 (A) (A) (A)
       Virtual   (A) (A) (A) (A) (A) (A) (A) (A) (A) (A) (A) (A)
                 (A) (A) (A) (A) (A) (A) (A) (A) (A) (A) (A) (A)
                 (A) (A) (A) (A) (A) (A) (A) (A) (A) (A) (A) (A)
                 (A) (A) (A) (A) (A) (A) (A) (A) (A) (A) (A) (A)
                 (A) (A) (A) (A) (A) (A) (A) (A) (A) (A) (A) (A)
                 (A) (A) (A) (A) (A) (A) (A) (A) (A) (A) (A) (A)
                 (A) (A) (A) (A) (A) (A) (A) (A) (A) (A) (A) (A)
                 (A) (A) (A) (A) (A) (A) (A) (A) (A) (A) (A) (A)
                 (A)
 The electronic state is 1-A.
 Alpha  occ. eigenvalues -- -101.50409 -19.18153 -14.27796 -10.35240 -10.20313
 Alpha  occ. eigenvalues --  -10.15145  -9.41756  -7.18013  -7.17291  -7.17262
 Alpha  occ. eigenvalues --   -1.02486  -0.83880  -0.76409  -0.72846  -0.54200
 Alpha  occ. eigenvalues --   -0.43994  -0.43617  -0.42994  -0.37317  -0.36964
 Alpha  occ. eigenvalues --   -0.34941  -0.28643  -0.28473  -0.28130  -0.27983
 Alpha  occ. eigenvalues --   -0.27235  -0.25198
 Alpha virt. eigenvalues --   -0.09377  -0.01971   0.03178   0.04747   0.05265
 Alpha virt. eigenvalues --    0.05682   0.07498   0.08335   0.08754   0.09514
 Alpha virt. eigenvalues --    0.10398   0.10799   0.11163   0.12217   0.13248
 Alpha virt. eigenvalues --    0.14143   0.15217   0.16203   0.17412   0.20715
 Alpha virt. eigenvalues --    0.22392   0.23496   0.24456   0.25224   0.25842
 Alpha virt. eigenvalues --    0.26311   0.27669   0.28299   0.31126   0.33108
 Alpha virt. eigenvalues --    0.34285   0.38011   0.41283   0.55770   0.59558
 Alpha virt. eigenvalues --    0.63022   0.65518   0.66304   0.67756   0.69364
 Alpha virt. eigenvalues --    0.71359   0.73064   0.76277   0.78154   0.79847
 Alpha virt. eigenvalues --    0.83283   0.85804   0.90748   0.92327   0.92796
 Alpha virt. eigenvalues --    0.95610   0.98320   0.98695   1.00589   1.02749
 Alpha virt. eigenvalues --    1.04376   1.08009   1.14799   1.18820   1.20451
 Alpha virt. eigenvalues --    1.28286   1.29830   1.32836   1.34316   1.46992
 Alpha virt. eigenvalues --    1.50124   1.57430   1.59388   1.59599   1.59918
 Alpha virt. eigenvalues --    1.62285   1.68910   1.72692   1.76601   1.82186
 Alpha virt. eigenvalues --    1.88684   1.96668   2.02253   2.02401   2.11679
 Alpha virt. eigenvalues --    2.19453   2.24059   2.27707   2.48004   2.49331
 Alpha virt. eigenvalues --    2.53416   2.65975   2.66195   2.71769   2.95201
 Alpha virt. eigenvalues --    3.09705   4.00693   4.15999   4.22953   4.29574
 Alpha virt. eigenvalues --    4.35137   4.44122
          Condensed to atoms (all electrons):
               1          2          3          4          5          6
     1  C    5.249989   0.491570  -0.036394  -0.056539  -0.005545  -0.051011
     2  O    0.491570   8.031842  -0.113716   0.007920  -0.009328  -0.004124
     3  C   -0.036394  -0.113716   5.820520   0.376520   0.350384   0.389839
     4  H   -0.056539   0.007920   0.376520   0.457353  -0.025372  -0.023091
     5  H   -0.005545  -0.009328   0.350384  -0.025372   0.448474  -0.023023
     6  H   -0.051011  -0.004124   0.389839  -0.023091  -0.023023   0.443541
     7  Cl  -0.079929  -0.053586   0.038030   0.006901  -0.007435   0.004838
     8  C    0.256951  -0.065462  -0.206030   0.001808   0.005120  -0.004536
     9  N   -0.009449   0.000079   0.001518  -0.000195  -0.000031   0.000031
               7          8          9
     1  C   -0.079929   0.256951  -0.009449
     2  O   -0.053586  -0.065462   0.000079
     3  C    0.038030  -0.206030   0.001518
     4  H    0.006901   0.001808  -0.000195
     5  H   -0.007435   0.005120  -0.000031
     6  H    0.004838  -0.004536   0.000031
     7  Cl  17.462016  -0.040955  -0.002563
     8  C   -0.040955   5.576704   0.643004
     9  N   -0.002563   0.643004   6.997162
 Mulliken charges:
               1
     1  C    0.240355
     2  O   -0.285194
     3  C   -0.620671
     4  H    0.254694
     5  H    0.266756
     6  H    0.267536
     7  Cl  -0.327317
     8  C   -0.166603
     9  N   -0.629556
 Sum of Mulliken charges =  -1.00000
 Mulliken charges with hydrogens summed into heavy atoms:
               1
     1  C    0.240355
     2  O   -0.285194
     3  C    0.168315
     7  Cl  -0.327317
     8  C   -0.166603
     9  N   -0.629556
 Electronic spatial extent (au):  <R**2>=            994.6037
 Charge=             -1.0000 electrons
 Dipole moment (field-independent basis, Debye):
    X=             -7.5495    Y=              5.3260    Z=             -2.7833  Tot=              9.6492
 Quadrupole moment (field-independent basis, Debye-Ang):
   XX=            -83.5342   YY=            -48.1357   ZZ=            -48.3025
   XY=              4.0509   XZ=              1.6025   YZ=             -4.8441
 Traceless Quadrupole moment (field-independent basis, Debye-Ang):
   XX=            -23.5434   YY=             11.8551   ZZ=             11.6883
   XY=              4.0509   XZ=              1.6025   YZ=             -4.8441
 Octapole moment (field-independent basis, Debye-Ang**2):
  XXX=           -126.1808  YYY=             17.3738  ZZZ=             -4.6894  XYY=            -11.5849
  XXY=             34.5443  XXZ=              2.0877  XZZ=             -6.2092  YZZ=              1.1216
  YYZ=             -5.3575  XYZ=              1.2751
 Hexadecapole moment (field-independent basis, Debye-Ang**3):
 XXXX=          -1305.2585 YYYY=           -356.2777 ZZZZ=           -182.0737 XXXY=             92.1802
 XXXZ=              6.8496 YYYX=             16.0999 YYYZ=             -7.9451 ZZZX=              2.9105
 ZZZY=             -5.3032 XXYY=           -231.8437 XXZZ=           -185.2933 YYZZ=            -93.7450
 XXYZ=             -1.9529 YYXZ=              2.9945 ZZXY=              4.0124
 N-N= 2.242903337351D+02 E-N=-2.125668922865D+03  KE= 7.019733058835D+02
 No NMR shielding tensors so no spin-rotation constants.
 Leave Link  601 at Wed Jan  8 00:47:01 2020, MaxMem=  4294967296 cpu:              20.4 elap:               2.0
 (Enter /home/cwagen/sw/g16/g16/l701.exe)
 ... and contract with generalized density number  0.
 Compute integral first derivatives.
 D1PCM: PCM CHGder 1st derivatives, ID1Alg=3 FixD1E=F DoIter=F DoCFld=F I1PDM=0.
 GePol: Maximum number of non-zero 1st derivatives   =     372
 Leave Link  701 at Wed Jan  8 00:47:07 2020, MaxMem=  4294967296 cpu:              65.0 elap:               6.0
 (Enter /home/cwagen/sw/g16/g16/l702.exe)
 L702 exits ... SP integral derivatives will be done elsewhere.
 Leave Link  702 at Wed Jan  8 00:47:07 2020, MaxMem=  4294967296 cpu:               1.4 elap:               0.2
 (Enter /home/cwagen/sw/g16/g16/l703.exe)
 Integral derivatives from FoFJK, PRISM(SPDF).
 Compute integral first derivatives, UseDBF=F ICtDFT=           0.
 Calling FoFJK, ICntrl=      2127 FMM=F ISym2X=0 I1Cent= 0 IOpClX= 0 NMat=1 NMatS=1 NMatT=0.
 FoFJK:  IHMeth= 1 ICntrl=    2127 DoSepK=F KAlg= 0 I1Cent=           0 FoldK=F
 IRaf=         0 NMat=       1 IRICut=       1 DoRegI=T DoRafI=F ISym2E= 0 IDoP0=0 IntGTp=1.
 FoFCou: FMM=F IPFlag=           0 FMFlag=      100000 FMFlg1=         800
         NFxFlg=           0 DoJE=F BraDBF=F KetDBF=F FulRan=T
         wScrn=  0.000000 ICntrl=      2127 IOpCl=  0 I1Cent=           0 NGrid=           0
         NMat0=    1 NMatS0=      1 NMatT0=    0 NMatD0=    1 NMtDS0=    0 NMtDT0=    0
 Symmetry not used in FoFCou.
 Leave Link  703 at Wed Jan  8 00:47:10 2020, MaxMem=  4294967296 cpu:              38.5 elap:               3.4
 (Enter /home/cwagen/sw/g16/g16/l716.exe)
 Dipole        =-2.97018977D+00 2.09541501D+00-1.09504371D+00
 ***** Axes restored to original set *****
 -------------------------------------------------------------------
 Center     Atomic                   Forces (Hartrees/Bohr)
 Number     Number              X              Y              Z
 -------------------------------------------------------------------
      1        6          -0.035842489   -0.074525112   -0.117537800
      2        8           0.014887587    0.064242553    0.123388564
      3        6           0.009074936    0.023986557    0.011484165
      4        1          -0.000183226    0.001033508   -0.004047598
      5        1           0.000493771    0.004964917   -0.002723860
      6        1           0.001261614    0.004002485   -0.002799572
      7       17           0.023105306   -0.020331806   -0.006556790
      8        6          -0.028868649   -0.007438484   -0.001861962
      9        7           0.016071151    0.004065380    0.000654854
 -------------------------------------------------------------------
 Cartesian Forces:  Max     0.123388564 RMS     0.040023049
 Leave Link  716 at Wed Jan  8 00:47:11 2020, MaxMem=  4294967296 cpu:               1.7 elap:               0.2
 (Enter /home/cwagen/sw/g16/g16/l103.exe)

 GradGradGradGradGradGradGradGradGradGradGradGradGradGradGradGradGradGrad
 Berny optimization.
 FormGI is forming the generalized inverse of G from B-inverse, IUseBI=4.
 Internal  Forces:  Max     0.137200693 RMS     0.028101570
 Search for a local minimum.
 Step number   1 out of a maximum of   41
 All quantities printed in internal units (Hartrees-Bohrs-Radians)
 RMS Force = .28375D-01 SwitMx=.10000D-02 MixMth= 1
 Mixed Optimization -- RFO/linear search
 Second derivative matrix not updated -- first step.
 ITU=  0
     Eigenvalues ---    0.00230   0.04746   0.04746   0.05330   0.05908
     Eigenvalues ---    0.07453   0.10176   0.16000   0.16000   0.16000
     Eigenvalues ---    0.25000   0.25000   0.25000   0.26946   0.33918
     Eigenvalues ---    0.33999   0.34275   0.67840   1.220341000.00000
     Eigenvalues --- 1000.000001000.000001000.000001000.000001000.00000
     Eigenvalues --- 1000.000001000.000001000.000001000.000001000.00000
     Eigenvalues --- 1000.00000
 RFO step:  Lambda=-4.33967949D-02 EMin= 2.30000000D-03
 Linear search not attempted -- first point.
 Maximum step size (   0.300) exceeded in Quadratic search.
    -- Step size scaled by   0.992
 Iteration  1 RMS(Cart)=  0.07096107 RMS(Int)=  0.00659852
 Iteration  2 RMS(Cart)=  0.00792727 RMS(Int)=  0.00211340
 Iteration  3 RMS(Cart)=  0.00006293 RMS(Int)=  0.00211274
 Iteration  4 RMS(Cart)=  0.00000042 RMS(Int)=  0.00211274
 Iteration  1 RMS(Cart)=  0.00000000 RMS(Int)=  0.00000000
 ITry= 1 IFail=0 DXMaxC= 1.56D-01 DCOld= 1.00D+10 DXMaxT= 3.00D-01 DXLimC= 3.00D+00 Rises=F
 Variable       Old X    -DE/DX   Delta X   Delta X   Delta X     New X
                                 (Linear)    (Quad)   (Total)
    R1        2.45227  -0.13720   0.00000  -0.18849  -0.18849   2.26378
    R2        2.94503  -0.02502   0.00000  -0.07932  -0.07932   2.86571
    R3        4.15740  -0.03096   0.00000   0.00000   0.00000   4.15740
    R4        4.91329  -0.01317   0.00000   0.00000   0.00000   4.91329
    R5        2.07331  -0.00355   0.00000  -0.00919  -0.00919   2.06413
    R6        2.07468  -0.00210   0.00000  -0.00544  -0.00544   2.06925
    R7        2.06868  -0.00139   0.00000  -0.00358  -0.00358   2.06510
    R8        2.20923   0.01658   0.00000   0.01301   0.01301   2.22224
    A1        1.99667   0.04912   0.00000   0.18385   0.17963   2.17630
    A2        2.01908  -0.01808   0.00000  -0.03003  -0.03715   1.98193
    A3        1.89239  -0.01313   0.00000  -0.04973  -0.04701   1.84538
    A4        1.92419  -0.00558   0.00000  -0.01202  -0.01823   1.90596
    A5        1.77194  -0.01055   0.00000  -0.05662  -0.05561   1.71633
    A6        1.83479  -0.00628   0.00000  -0.06450  -0.06648   1.76831
    A7        1.97398  -0.00094   0.00000  -0.00490  -0.00501   1.96897
    A8        1.87942  -0.00615   0.00000  -0.03009  -0.03035   1.84907
    A9        1.90140  -0.00537   0.00000  -0.02576  -0.02599   1.87541
   A10        1.90356   0.00362   0.00000   0.01684   0.01671   1.92027
   A11        1.90837   0.00354   0.00000   0.01742   0.01733   1.92570
   A12        1.89554   0.00548   0.00000   0.02742   0.02698   1.92252
   A13        3.09251   0.00020   0.00000   0.00220   0.00220   3.09471
   A14        2.87052   0.00043   0.00000   0.00466   0.00466   2.87518
    D1        3.04510  -0.00442   0.00000  -0.04084  -0.04286   3.00225
    D2       -1.13357  -0.00467   0.00000  -0.04336  -0.04546  -1.17903
    D3        0.91915  -0.00447   0.00000  -0.04138  -0.04328   0.87587
    D4       -0.92685   0.00935   0.00000   0.07291   0.07361  -0.85324
    D5        1.17766   0.00910   0.00000   0.07039   0.07101   1.24867
    D6       -3.05280   0.00930   0.00000   0.07237   0.07319  -2.97962
    D7        1.01121  -0.00472   0.00000  -0.03081  -0.02953   0.98168
    D8        3.11572  -0.00497   0.00000  -0.03334  -0.03213   3.08359
    D9       -1.11475  -0.00476   0.00000  -0.03135  -0.02995  -1.14470
         Item               Value     Threshold  Converged?
 Maximum Force            0.137201     0.000450     NO 
 RMS     Force            0.028375     0.000300     NO 
 Maximum Displacement     0.156354     0.001800     NO 
 RMS     Displacement     0.069587     0.001200     NO 
 Predicted change in Energy=-2.423393D-02
 Lowest energy point so far.  Saving SCF results.
 GradGradGradGradGradGradGradGradGradGradGradGradGradGradGradGradGradGrad

 Leave Link  103 at Wed Jan  8 00:47:25 2020, MaxMem=  4294967296 cpu:             145.4 elap:              14.6
 (Enter /home/cwagen/sw/g16/g16/l202.exe)
                          Input orientation:                          
 ---------------------------------------------------------------------
 Center     Atomic      Atomic             Coordinates (Angstroms)
 Number     Number       Type             X           Y           Z
 ---------------------------------------------------------------------
      1          6           0       -0.231953   -0.373199   -0.254895
      2          8           0       -0.245934   -0.582517   -1.434324
      3          6           0       -0.315340   -1.446424    0.813244
      4          1           0       -0.147079   -1.056392    1.819553
      5          1           0       -1.323190   -1.867878    0.738147
      6          1           0        0.430188   -2.208002    0.571566
      7         17           0       -1.466545    1.345090    0.347821
      8          6           0        2.157221    0.503553    0.277227
      9          7           0        3.293701    0.800407    0.333575
 ---------------------------------------------------------------------
                    Distance matrix (angstroms):
                    1          2          3          4          5
     1  C    0.000000
     2  O    1.197941   0.000000
     3  C    1.516471   2.408882   0.000000
     4  H    2.185701   3.289688   1.092289   0.000000
     5  H    2.100237   2.744497   1.094999   1.791978   0.000000
     6  H    2.118483   2.668883   1.092805   1.793577   1.793814
     7  Cl   2.200000   2.895099   3.055231   3.110321   3.239763
     8  C    2.600000   3.143900   3.194258   3.181509   4.236672
     9  N    3.762165   4.191296   4.278260   4.182679   5.347813
                    6          7          8          9
     6  H    0.000000
     7  Cl   4.033872   0.000000
     8  C    3.228283   3.720866   0.000000
     9  N    4.160152   4.791327   1.175961   0.000000
 Stoichiometry    C3H3ClNO(1-)
 Framework group  C1[X(C3H3ClNO)]
 Deg. of freedom    21
 Full point group                 C1      NOp   1
 RotChk:  IX=0 Diff= 1.63D-02
 Largest Abelian subgroup         C1      NOp   1
 Largest concise Abelian subgroup C1      NOp   1
                         Standard orientation:                         
 ---------------------------------------------------------------------
 Center     Atomic      Atomic             Coordinates (Angstroms)
 Number     Number       Type             X           Y           Z
 ---------------------------------------------------------------------
      1          6           0       -0.306475    0.636233    0.241561
      2          8           0       -0.338469    1.033095    1.371401
      3          6           0       -0.322979    1.525752   -0.986514
      4          1           0       -0.147964    0.972995   -1.912216
      5          1           0       -1.314607    1.989659   -1.008599
      6          1           0        0.446797    2.289082   -0.848687
      7         17           0       -1.594958   -1.111300   -0.113323
      8          6           0        2.057058   -0.399851   -0.075052
      9          7           0        3.181741   -0.742458   -0.050742
 ---------------------------------------------------------------------
 Rotational constants (GHZ):           3.1431891           1.5064358           1.2609854
 Leave Link  202 at Wed Jan  8 00:47:25 2020, MaxMem=  4294967296 cpu:               1.8 elap:               0.2
 (Enter /home/cwagen/sw/g16/g16/l301.exe)
 Standard basis: 6-31+G(d) (6D, 7F)
 Ernie: Thresh=  0.10000D-02 Tol=  0.10000D-05 Strict=F.
 There are   124 symmetry adapted cartesian basis functions of A   symmetry.
 There are   124 symmetry adapted basis functions of A   symmetry.
   124 basis functions,   228 primitive gaussians,   124 cartesian basis functions
    27 alpha electrons       27 beta electrons
       nuclear repulsion energy       229.0372842373 Hartrees.
 IExCor=  402 DFT=T Ex+Corr=B3LYP ExCW=0 ScaHFX=  0.200000
 ScaDFX=  0.800000  0.720000  1.000000  0.810000 ScalE2=  1.000000  1.000000
 IRadAn=      5 IRanWt=     -1 IRanGd=            0 ICorTp=0 IEmpDi=  4
 NAtoms=    9 NActive=    9 NUniq=    9 SFac= 1.00D+00 NAtFMM=   60 NAOKFM=F Big=F
 Integral buffers will be    131072 words long.
 Raffenetti 2 integral format.
 Two-electron integral symmetry is turned on.
 ------------------------------------------------------------------------------
 Polarizable Continuum Model (PCM)
 =================================
 Model                : PCM.
 Atomic radii         : SMD-Coulomb.
 Polarization charges : Total charges.
 Charge compensation  : None.
 Solution method      : On-the-fly selection.
 Cavity type          : VdW (van der Waals Surface) (Alpha=1.000).
 Cavity algorithm     : GePol (No added spheres)
                        Default sphere list used, NSphG=    9.
                        Lebedev-Laikov grids with approx.  5.0 points / Ang**2.
                        Smoothing algorithm: York/Karplus (Gamma=1.0000).
                        Polarization charges: spherical gaussians, with
                                              point-specific exponents (IZeta= 3).
                        Self-potential: point-specific (ISelfS= 7).
                        Self-field    : sphere-specific E.n sum rule (ISelfD= 2).
 1st derivatives      : Analytical E(r).r(x)/FMM algorithm (CHGder, D1EAlg=3).
                        Cavity 1st derivative terms included.
 Solvent              : TetraHydroFuran, Eps=   7.425700 Eps(inf)=   1.974025
 ------------------------------------------------------------------------------
 Spheres list:
 ISph  on   Nord     Re0    Alpha      Xe            Ye            Ze
    1   C      1    1.8500  1.000     -0.306475      0.636233      0.241561
    2   O      2    2.2940  1.000     -0.338469      1.033095      1.371401
    3   C      3    1.8500  1.000     -0.322979      1.525752     -0.986514
    4   H      4    1.2000  1.000     -0.147964      0.972995     -1.912216
    5   H      5    1.2000  1.000     -1.314607      1.989659     -1.008599
    6   H      6    1.2000  1.000      0.446797      2.289082     -0.848687
    7  Cl      7    2.3800  1.000     -1.594958     -1.111300     -0.113323
    8   C      8    1.8500  1.000      2.057058     -0.399851     -0.075052
    9   N      9    1.8900  1.000      3.181741     -0.742458     -0.050742
 ------------------------------------------------------------------------------
 GePol: Number of generator spheres                  =       9
 GePol: Total number of spheres                      =       9
 GePol: Number of exposed spheres                    =       9 (100.00%)
 GePol: Number of points                             =    1251
 GePol: Average weight of points                     =       0.14
 GePol: Minimum weight of points                     =   0.59D-09
 GePol: Maximum weight of points                     =    0.18138
 GePol: Number of points with low weight             =      38
 GePol: Fraction of low-weight points (<1% of avg)   =       3.04%
 GePol: Cavity surface area                          =    169.752 Ang**2
 GePol: Cavity volume                                =    152.500 Ang**3
 ------------------------------------------------------------------------------
 Atomic radii for non-electrostatic terms: SMD-CDS.
 ------------------------------------------------------------------------------
 PCM non-electrostatic energy =         0.0008030861 Hartrees.
 Nuclear repulsion after PCM non-electrostatic terms =      229.0380873234 Hartrees.
 Leave Link  301 at Wed Jan  8 00:47:26 2020, MaxMem=  4294967296 cpu:               2.0 elap:               0.2
 (Enter /home/cwagen/sw/g16/g16/l302.exe)
 NPDir=0 NMtPBC=     1 NCelOv=     1 NCel=       1 NClECP=     1 NCelD=      1
         NCelK=      1 NCelE2=     1 NClLst=     1 CellRange=     0.0.
 One-electron integrals computed using PRISM.
 One-electron integral symmetry used in STVInt
 NBasis=   124 RedAO= T EigKep=  1.15D-04  NBF=   124
 NBsUse=   124 1.00D-06 EigRej= -1.00D+00 NBFU=   124
 Precomputing XC quadrature grid using
 IXCGrd= 4 IRadAn=           5 IRanWt=          -1 IRanGd=           0 AccXCQ= 0.00D+00.
 Generated NRdTot=       0 NPtTot=           0 NUsed=           0 NTot=          32
 NSgBfM=   124   124   124   124   124 MxSgAt=     9 MxSgA2=     9.
 Leave Link  302 at Wed Jan  8 00:47:29 2020, MaxMem=  4294967296 cpu:              33.1 elap:               3.5
 (Enter /home/cwagen/sw/g16/g16/l303.exe)
 DipDrv:  MaxL=1.
 Leave Link  303 at Wed Jan  8 00:47:30 2020, MaxMem=  4294967296 cpu:               3.6 elap:               0.4
 (Enter /home/cwagen/sw/g16/g16/l401.exe)
 Initial guess from the checkpoint file:  "/scratch/users/cwagen/cwagen_scan_220_260/Gau-3565.chk"
 B after Tr=     0.000000    0.000000    0.000000
         Rot=    0.999948   -0.009893    0.002498   -0.000251 Ang=  -1.17 deg.
 Guess basis will be translated and rotated to current coordinates.
 JPrj=2 DoOrth=T DoCkMO=T.
 Generating alternative initial guess.
 ExpMin= 4.38D-02 ExpMax= 2.52D+04 ExpMxC= 3.78D+03 IAcc=2 IRadAn=         4 AccDes= 0.00D+00
 Harris functional with IExCor=  402 and IRadAn=       4 diagonalized for initial guess.
 HarFok:  IExCor=  402 AccDes= 0.00D+00 IRadAn=         4 IDoV= 1 UseB2=F ITyADJ=14
 ICtDFT=  3500011 ScaDFX=  1.000000  1.000000  1.000000  1.000000
 FoFCou: FMM=F IPFlag=           0 FMFlag=      100000 FMFlg1=           0
         NFxFlg=           0 DoJE=T BraDBF=F KetDBF=T FulRan=T
         wScrn=  0.000000 ICntrl=       500 IOpCl=  0 I1Cent=   200000004 NGrid=           0
         NMat0=    1 NMatS0=      1 NMatT0=    0 NMatD0=    1 NMtDS0=    0 NMtDT0=    0
 Petite list used in FoFCou.
 Harris En= -706.395484247600    
 Leave Link  401 at Wed Jan  8 00:47:34 2020, MaxMem=  4294967296 cpu:              53.2 elap:               4.8
 (Enter /home/cwagen/sw/g16/g16/l502.exe)
 Keep R1 ints in memory in canonical form, NReq=45236517.
 FoFCou: FMM=F IPFlag=           0 FMFlag=           0 FMFlg1=           0
         NFxFlg=           0 DoJE=F BraDBF=F KetDBF=F FulRan=T
         wScrn=  0.000000 ICntrl=       600 IOpCl=  0 I1Cent=           0 NGrid=           0
         NMat0=    1 NMatS0=   7750 NMatT0=    0 NMatD0=    1 NMtDS0=    0 NMtDT0=    0
 Symmetry not used in FoFCou.
 Two-electron integral symmetry not used.
 Closed shell SCF:
 Using DIIS extrapolation, IDIIS=  1040.
 NGot=  4294967296 LenX=  4264898079 LenY=  4264882262
 Requested convergence on RMS density matrix=1.00D-08 within 128 cycles.
 Requested convergence on MAX density matrix=1.00D-06.
 Requested convergence on             energy=1.00D-06.
 No special actions if energy rises.

 Cycle   1  Pass 1  IDiag  1:
 Inv3:  Mode=1 IEnd=     4695003.
 Iteration    1 A*A^-1 deviation from unit magnitude is 5.44D-15 for   1249.
 Iteration    1 A*A^-1 deviation from orthogonality  is 2.16D-15 for   1249   1104.
 Iteration    1 A^-1*A deviation from unit magnitude is 5.22D-15 for   1249.
 Iteration    1 A^-1*A deviation from orthogonality  is 1.76D-15 for   1246   1016.
 E= -706.382077916495    
 DIIS: error= 7.31D-03 at cycle   1 NSaved=   1.
 NSaved= 1 IEnMin= 1 EnMin= -706.382077916495     IErMin= 1 ErrMin= 7.31D-03
 ErrMax= 7.31D-03  0.00D+00 EMaxC= 1.00D-01 BMatC= 1.11D-02 BMatP= 1.11D-02
 IDIUse=3 WtCom= 9.27D-01 WtEn= 7.31D-02
 Coeff-Com:  0.100D+01
 Coeff-En:   0.100D+01
 Coeff:      0.100D+01
 Gap=     0.604 Goal=   None    Shift=    0.000
 GapD=    0.604 DampG=2.000 DampE=1.000 DampFc=2.0000 IDamp=-1.
 RMSDP=2.83D-03 MaxDP=1.26D-01              OVMax= 4.25D-02

 Cycle   2  Pass 1  IDiag  1:
 E= -706.398664097874     Delta-E=       -0.016586181379 Rises=F Damp=F
 DIIS: error= 1.98D-03 at cycle   2 NSaved=   2.
 NSaved= 2 IEnMin= 2 EnMin= -706.398664097874     IErMin= 2 ErrMin= 1.98D-03
 ErrMax= 1.98D-03  0.00D+00 EMaxC= 1.00D-01 BMatC= 9.86D-04 BMatP= 1.11D-02
 IDIUse=3 WtCom= 9.80D-01 WtEn= 1.98D-02
 Coeff-Com:  0.117D+00 0.883D+00
 Coeff-En:   0.000D+00 0.100D+01
 Coeff:      0.114D+00 0.886D+00
 Gap=     0.188 Goal=   None    Shift=    0.000
 RMSDP=5.99D-04 MaxDP=1.43D-02 DE=-1.66D-02 OVMax= 2.40D-02

 Cycle   3  Pass 1  IDiag  1:
 E= -706.397944950008     Delta-E=        0.000719147865 Rises=F Damp=F
 DIIS: error= 3.65D-03 at cycle   3 NSaved=   3.
 NSaved= 3 IEnMin= 2 EnMin= -706.398664097874     IErMin= 2 ErrMin= 1.98D-03
 ErrMax= 3.65D-03  0.00D+00 EMaxC= 1.00D-01 BMatC= 1.75D-03 BMatP= 9.86D-04
 IDIUse=3 WtCom= 1.42D-01 WtEn= 8.58D-01
 Coeff-Com: -0.157D-01 0.580D+00 0.436D+00
 Coeff-En:   0.000D+00 0.621D+00 0.379D+00
 Coeff:     -0.223D-02 0.615D+00 0.387D+00
 Gap=     0.182 Goal=   None    Shift=    0.000
 RMSDP=3.91D-04 MaxDP=1.02D-02 DE= 7.19D-04 OVMax= 1.46D-02

 Cycle   4  Pass 1  IDiag  1:
 E= -706.399551493411     Delta-E=       -0.001606543403 Rises=F Damp=F
 DIIS: error= 5.58D-04 at cycle   4 NSaved=   4.
 NSaved= 4 IEnMin= 4 EnMin= -706.399551493411     IErMin= 4 ErrMin= 5.58D-04
 ErrMax= 5.58D-04  0.00D+00 EMaxC= 1.00D-01 BMatC= 1.02D-04 BMatP= 9.86D-04
 IDIUse=3 WtCom= 9.94D-01 WtEn= 5.58D-03
 Coeff-Com: -0.215D-01 0.273D+00 0.245D+00 0.503D+00
 Coeff-En:   0.000D+00 0.000D+00 0.000D+00 0.100D+01
 Coeff:     -0.213D-01 0.272D+00 0.244D+00 0.506D+00
 Gap=     0.179 Goal=   None    Shift=    0.000
 RMSDP=1.15D-04 MaxDP=2.37D-03 DE=-1.61D-03 OVMax= 3.30D-03

 Cycle   5  Pass 1  IDiag  1:
 E= -706.399623385795     Delta-E=       -0.000071892384 Rises=F Damp=F
 DIIS: error= 1.99D-04 at cycle   5 NSaved=   5.
 NSaved= 5 IEnMin= 5 EnMin= -706.399623385795     IErMin= 5 ErrMin= 1.99D-04
 ErrMax= 1.99D-04  0.00D+00 EMaxC= 1.00D-01 BMatC= 1.74D-05 BMatP= 1.02D-04
 IDIUse=3 WtCom= 9.98D-01 WtEn= 1.99D-03
 Coeff-Com: -0.812D-02 0.842D-01 0.989D-01 0.308D+00 0.517D+00
 Coeff-En:   0.000D+00 0.000D+00 0.000D+00 0.151D+00 0.849D+00
 Coeff:     -0.810D-02 0.841D-01 0.987D-01 0.308D+00 0.518D+00
 Gap=     0.180 Goal=   None    Shift=    0.000
 RMSDP=5.29D-05 MaxDP=1.19D-03 DE=-7.19D-05 OVMax= 1.44D-03

 Cycle   6  Pass 1  IDiag  1:
 E= -706.399642322648     Delta-E=       -0.000018936854 Rises=F Damp=F
 DIIS: error= 6.75D-05 at cycle   6 NSaved=   6.
 NSaved= 6 IEnMin= 6 EnMin= -706.399642322648     IErMin= 6 ErrMin= 6.75D-05
 ErrMax= 6.75D-05  0.00D+00 EMaxC= 1.00D-01 BMatC= 8.46D-07 BMatP= 1.74D-05
 IDIUse=1 WtCom= 1.00D+00 WtEn= 0.00D+00
 Coeff-Com: -0.192D-02 0.130D-01 0.236D-01 0.101D+00 0.248D+00 0.616D+00
 Coeff:     -0.192D-02 0.130D-01 0.236D-01 0.101D+00 0.248D+00 0.616D+00
 Gap=     0.180 Goal=   None    Shift=    0.000
 RMSDP=1.34D-05 MaxDP=5.20D-04 DE=-1.89D-05 OVMax= 3.76D-04

 Cycle   7  Pass 1  IDiag  1:
 E= -706.399643251414     Delta-E=       -0.000000928766 Rises=F Damp=F
 DIIS: error= 1.41D-05 at cycle   7 NSaved=   7.
 NSaved= 7 IEnMin= 7 EnMin= -706.399643251414     IErMin= 7 ErrMin= 1.41D-05
 ErrMax= 1.41D-05  0.00D+00 EMaxC= 1.00D-01 BMatC= 6.44D-08 BMatP= 8.46D-07
 IDIUse=1 WtCom= 1.00D+00 WtEn= 0.00D+00
 Coeff-Com: -0.965D-04-0.274D-02 0.304D-03 0.171D-01 0.683D-01 0.273D+00
 Coeff-Com:  0.644D+00
 Coeff:     -0.965D-04-0.274D-02 0.304D-03 0.171D-01 0.683D-01 0.273D+00
 Coeff:      0.644D+00
 Gap=     0.180 Goal=   None    Shift=    0.000
 RMSDP=5.68D-06 MaxDP=2.19D-04 DE=-9.29D-07 OVMax= 9.97D-05

 Cycle   8  Pass 1  IDiag  1:
 E= -706.399643310572     Delta-E=       -0.000000059158 Rises=F Damp=F
 DIIS: error= 1.10D-05 at cycle   8 NSaved=   8.
 NSaved= 8 IEnMin= 8 EnMin= -706.399643310572     IErMin= 8 ErrMin= 1.10D-05
 ErrMax= 1.10D-05  0.00D+00 EMaxC= 1.00D-01 BMatC= 1.72D-08 BMatP= 6.44D-08
 IDIUse=1 WtCom= 1.00D+00 WtEn= 0.00D+00
 Coeff-Com:  0.638D-04-0.240D-02-0.182D-02 0.292D-02 0.237D-01 0.118D+00
 Coeff-Com:  0.396D+00 0.463D+00
 Coeff:      0.638D-04-0.240D-02-0.182D-02 0.292D-02 0.237D-01 0.118D+00
 Coeff:      0.396D+00 0.463D+00
 Gap=     0.180 Goal=   None    Shift=    0.000
 RMSDP=1.88D-06 MaxDP=7.60D-05 DE=-5.92D-08 OVMax= 4.71D-05

 Cycle   9  Pass 1  IDiag  1:
 E= -706.399643324590     Delta-E=       -0.000000014019 Rises=F Damp=F
 DIIS: error= 5.05D-06 at cycle   9 NSaved=   9.
 NSaved= 9 IEnMin= 9 EnMin= -706.399643324590     IErMin= 9 ErrMin= 5.05D-06
 ErrMax= 5.05D-06  0.00D+00 EMaxC= 1.00D-01 BMatC= 3.32D-09 BMatP= 1.72D-08
 IDIUse=1 WtCom= 1.00D+00 WtEn= 0.00D+00
 Coeff-Com:  0.813D-04-0.127D-02-0.169D-02-0.168D-02 0.270D-02 0.252D-01
 Coeff-Com:  0.138D+00 0.311D+00 0.528D+00
 Coeff:      0.813D-04-0.127D-02-0.169D-02-0.168D-02 0.270D-02 0.252D-01
 Coeff:      0.138D+00 0.311D+00 0.528D+00
 Gap=     0.180 Goal=   None    Shift=    0.000
 RMSDP=4.79D-07 MaxDP=1.30D-05 DE=-1.40D-08 OVMax= 1.72D-05

 Cycle  10  Pass 1  IDiag  1:
 E= -706.399643327559     Delta-E=       -0.000000002969 Rises=F Damp=F
 DIIS: error= 8.64D-07 at cycle  10 NSaved=  10.
 NSaved=10 IEnMin=10 EnMin= -706.399643327559     IErMin=10 ErrMin= 8.64D-07
 ErrMax= 8.64D-07  0.00D+00 EMaxC= 1.00D-01 BMatC= 1.52D-10 BMatP= 3.32D-09
 IDIUse=1 WtCom= 1.00D+00 WtEn= 0.00D+00
 Coeff-Com:  0.270D-04-0.224D-03-0.584D-03-0.103D-02-0.170D-02-0.405D-02
 Coeff-Com:  0.623D-02 0.718D-01 0.219D+00 0.710D+00
 Coeff:      0.270D-04-0.224D-03-0.584D-03-0.103D-02-0.170D-02-0.405D-02
 Coeff:      0.623D-02 0.718D-01 0.219D+00 0.710D+00
 Gap=     0.180 Goal=   None    Shift=    0.000
 RMSDP=1.82D-07 MaxDP=6.59D-06 DE=-2.97D-09 OVMax= 4.40D-06

 Cycle  11  Pass 1  IDiag  1:
 E= -706.399643327731     Delta-E=       -0.000000000171 Rises=F Damp=F
 DIIS: error= 1.67D-07 at cycle  11 NSaved=  11.
 NSaved=11 IEnMin=11 EnMin= -706.399643327731     IErMin=11 ErrMin= 1.67D-07
 ErrMax= 1.67D-07  0.00D+00 EMaxC= 1.00D-01 BMatC= 3.68D-12 BMatP= 1.52D-10
 IDIUse=1 WtCom= 1.00D+00 WtEn= 0.00D+00
 Coeff-Com:  0.398D-05 0.761D-05-0.802D-04-0.228D-03-0.650D-03-0.253D-02
 Coeff-Com: -0.647D-02 0.670D-02 0.373D-01 0.222D+00 0.743D+00
 Coeff:      0.398D-05 0.761D-05-0.802D-04-0.228D-03-0.650D-03-0.253D-02
 Coeff:     -0.647D-02 0.670D-02 0.373D-01 0.222D+00 0.743D+00
 Gap=     0.180 Goal=   None    Shift=    0.000
 RMSDP=4.49D-08 MaxDP=1.34D-06 DE=-1.71D-10 OVMax= 1.19D-06

 Cycle  12  Pass 1  IDiag  1:
 E= -706.399643327731     Delta-E=        0.000000000000 Rises=F Damp=F
 DIIS: error= 2.82D-08 at cycle  12 NSaved=  12.
 NSaved=12 IEnMin=12 EnMin= -706.399643327731     IErMin=12 ErrMin= 2.82D-08
 ErrMax= 2.82D-08  0.00D+00 EMaxC= 1.00D-01 BMatC= 2.01D-13 BMatP= 3.68D-12
 IDIUse=1 WtCom= 1.00D+00 WtEn= 0.00D+00
 Coeff-Com: -0.324D-06 0.932D-05 0.129D-04-0.883D-05-0.622D-04-0.232D-03
 Coeff-Com: -0.157D-02-0.756D-03-0.356D-02 0.826D-02 0.143D+00 0.855D+00
 Coeff:     -0.324D-06 0.932D-05 0.129D-04-0.883D-05-0.622D-04-0.232D-03
 Coeff:     -0.157D-02-0.756D-03-0.356D-02 0.826D-02 0.143D+00 0.855D+00
 Gap=     0.180 Goal=   None    Shift=    0.000
 RMSDP=9.47D-09 MaxDP=2.76D-07 DE=-1.14D-13 OVMax= 2.16D-07

 Error on total polarization charges =  0.02490
 SCF Done:  E(RB3LYP) =  -706.399643328     A.U. after   12 cycles
            NFock= 12  Conv=0.95D-08     -V/T= 2.0058
 KE= 7.023228247504D+02 PE=-2.135453919290D+03 EE= 4.976933638888D+02
 SMD-CDS (non-electrostatic) energy       (kcal/mol) =       0.50
 (included in total energy above)
 Leave Link  502 at Wed Jan  8 00:48:33 2020, MaxMem=  4294967296 cpu:             657.7 elap:              58.1
 (Enter /home/cwagen/sw/g16/g16/l701.exe)
 ... and contract with generalized density number  0.
 Compute integral first derivatives.
 D1PCM: PCM CHGder 1st derivatives, ID1Alg=3 FixD1E=F DoIter=F DoCFld=F I1PDM=0.
 GePol: Maximum number of non-zero 1st derivatives   =     365
 Leave Link  701 at Wed Jan  8 00:48:39 2020, MaxMem=  4294967296 cpu:              72.2 elap:               6.8
 (Enter /home/cwagen/sw/g16/g16/l702.exe)
 L702 exits ... SP integral derivatives will be done elsewhere.
 Leave Link  702 at Wed Jan  8 00:48:40 2020, MaxMem=  4294967296 cpu:               1.1 elap:               0.1
 (Enter /home/cwagen/sw/g16/g16/l703.exe)
 Integral derivatives from FoFJK, PRISM(SPDF).
 Compute integral first derivatives, UseDBF=F ICtDFT=           0.
 Calling FoFJK, ICntrl=      2127 FMM=F ISym2X=0 I1Cent= 0 IOpClX= 0 NMat=1 NMatS=1 NMatT=0.
 FoFJK:  IHMeth= 1 ICntrl=    2127 DoSepK=F KAlg= 0 I1Cent=           0 FoldK=F
 IRaf=         0 NMat=       1 IRICut=       1 DoRegI=T DoRafI=F ISym2E= 0 IDoP0=0 IntGTp=1.
 FoFCou: FMM=F IPFlag=           0 FMFlag=      100000 FMFlg1=         800
         NFxFlg=           0 DoJE=F BraDBF=F KetDBF=F FulRan=T
         wScrn=  0.000000 ICntrl=      2127 IOpCl=  0 I1Cent=           0 NGrid=           0
         NMat0=    1 NMatS0=      1 NMatT0=    0 NMatD0=    1 NMtDS0=    0 NMtDT0=    0
 Symmetry not used in FoFCou.
 Leave Link  703 at Wed Jan  8 00:48:43 2020, MaxMem=  4294967296 cpu:              39.3 elap:               3.7
 (Enter /home/cwagen/sw/g16/g16/l716.exe)
 Dipole        =-3.02043487D+00 2.52188751D+00-8.92391100D-01
 ***** Axes restored to original set *****
 -------------------------------------------------------------------
 Center     Atomic                   Forces (Hartrees/Bohr)
 Number     Number              X              Y              Z
 -------------------------------------------------------------------
      1        6          -0.023869974   -0.021571783   -0.036167088
      2        8           0.008389630    0.021972416    0.035474412
      3        6           0.007366078    0.016834618    0.007088492
      4        1          -0.000366620   -0.000092117   -0.002039690
      5        1          -0.000829711    0.000531115   -0.000310852
      6        1           0.000421871    0.000031651   -0.000663472
      7       17           0.015607439   -0.015200225   -0.003421608
      8        6          -0.010140424   -0.003710574   -0.000210872
      9        7           0.003421711    0.001204898    0.000250677
 -------------------------------------------------------------------
 Cartesian Forces:  Max     0.036167088 RMS     0.013830846
 Leave Link  716 at Wed Jan  8 00:48:43 2020, MaxMem=  4294967296 cpu:               1.4 elap:               0.1
 (Enter /home/cwagen/sw/g16/g16/l103.exe)

 GradGradGradGradGradGradGradGradGradGradGradGradGradGradGradGradGradGrad
 Berny optimization.
 Using GEDIIS/GDIIS optimizer.
 FormGI is forming the generalized inverse of G from B-inverse, IUseBI=4.
 Internal  Forces:  Max     0.038863408 RMS     0.010458382
 Search for a local minimum.
 Step number   2 out of a maximum of   41
 All quantities printed in internal units (Hartrees-Bohrs-Radians)
 RMS Force = .99577D-02 SwitMx=.10000D-02 MixMth= 1
 Mixed Optimization -- RFO/linear search
 Update second derivatives using D2CorX and points    1    2
 DE= -3.13D-02 DEPred=-2.42D-02 R= 1.29D+00
 TightC=F SS=  1.41D+00  RLast= 3.36D-01 DXNew= 5.0454D-01 1.0092D+00
 Trust test= 1.29D+00 RLast= 3.36D-01 DXMaxT set to 5.05D-01
 ITU=  1  0
 Use linear search instead of GDIIS.
     Eigenvalues ---    0.00230   0.04744   0.04747   0.05300   0.05485
     Eigenvalues ---    0.06169   0.09811   0.15995   0.16000   0.16129
     Eigenvalues ---    0.20059   0.25000   0.25270   0.26961   0.33932
     Eigenvalues ---    0.33985   0.34283   0.62759   1.220191000.00000
     Eigenvalues --- 1000.000001000.000001000.000001000.000001000.00000
     Eigenvalues --- 1000.000001000.000001000.000001000.000001000.00000
     Eigenvalues --- 1000.00000
 RFO step:  Lambda=-1.65938985D-03 EMin= 2.29994932D-03
 Quartic linear search produced a step of  0.43561.
 Iteration  1 RMS(Cart)=  0.05668286 RMS(Int)=  0.00418276
 Iteration  2 RMS(Cart)=  0.00385044 RMS(Int)=  0.00230969
 Iteration  3 RMS(Cart)=  0.00001621 RMS(Int)=  0.00230965
 Iteration  4 RMS(Cart)=  0.00000012 RMS(Int)=  0.00230965
 Iteration  1 RMS(Cart)=  0.00000000 RMS(Int)=  0.00000000
 ITry= 1 IFail=0 DXMaxC= 1.29D-01 DCOld= 1.00D+10 DXMaxT= 5.05D-01 DXLimC= 3.00D+00 Rises=F
 Variable       Old X    -DE/DX   Delta X   Delta X   Delta X     New X
                                 (Linear)    (Quad)   (Total)
    R1        2.26378  -0.03886  -0.08211   0.01100  -0.07111   2.19267
    R2        2.86571  -0.00968  -0.03455  -0.00025  -0.03480   2.83091
    R3        4.15740  -0.02158   0.00000   0.00000   0.00000   4.15740
    R4        4.91329  -0.00704   0.00000   0.00000   0.00000   4.91329
    R5        2.06413  -0.00195  -0.00400  -0.00277  -0.00677   2.05736
    R6        2.06925   0.00055  -0.00237   0.00554   0.00317   2.07242
    R7        2.06510   0.00046  -0.00156   0.00402   0.00246   2.06756
    R8        2.22224   0.00360   0.00567  -0.00162   0.00405   2.22629
    A1        2.17630   0.02812   0.07825   0.05642   0.13081   2.30711
    A2        1.98193  -0.00775  -0.01618   0.00985  -0.01304   1.96889
    A3        1.84538  -0.00599  -0.02048  -0.01692  -0.03289   1.81249
    A4        1.90596  -0.00886  -0.00794  -0.02670  -0.04109   1.86487
    A5        1.71633  -0.00910  -0.02422  -0.03725  -0.05933   1.65700
    A6        1.76831  -0.00292  -0.02896  -0.00640  -0.03887   1.72943
    A7        1.96897  -0.00068  -0.00218  -0.00202  -0.00425   1.96472
    A8        1.84907  -0.00075  -0.01322   0.01790   0.00455   1.85362
    A9        1.87541  -0.00071  -0.01132   0.01545   0.00402   1.87943
   A10        1.92027   0.00055   0.00728  -0.00936  -0.00214   1.91813
   A11        1.92570   0.00077   0.00755  -0.00667   0.00084   1.92654
   A12        1.92252   0.00077   0.01175  -0.01440  -0.00286   1.91967
   A13        3.09471   0.00090   0.00096   0.02248   0.02344   3.11815
   A14        2.87518   0.00015   0.00203  -0.00389  -0.00186   2.87332
    D1        3.00225  -0.00401  -0.01867  -0.04152  -0.06222   2.94002
    D2       -1.17903  -0.00422  -0.01980  -0.04247  -0.06434  -1.24337
    D3        0.87587  -0.00406  -0.01885  -0.04253  -0.06336   0.81251
    D4       -0.85324   0.00652   0.03206   0.01239   0.04432  -0.80892
    D5        1.24867   0.00631   0.03093   0.01144   0.04220   1.29087
    D6       -2.97962   0.00647   0.03188   0.01138   0.04318  -2.93643
    D7        0.98168  -0.00247  -0.01286  -0.01605  -0.02676   0.95491
    D8        3.08359  -0.00268  -0.01400  -0.01700  -0.02889   3.05470
    D9       -1.14470  -0.00252  -0.01305  -0.01706  -0.02790  -1.17260
         Item               Value     Threshold  Converged?
 Maximum Force            0.038863     0.000450     NO 
 RMS     Force            0.009958     0.000300     NO 
 Maximum Displacement     0.128502     0.001800     NO 
 RMS     Displacement     0.057351     0.001200     NO 
 Predicted change in Energy=-6.723535D-03
 Lowest energy point so far.  Saving SCF results.
 GradGradGradGradGradGradGradGradGradGradGradGradGradGradGradGradGradGrad

 Leave Link  103 at Wed Jan  8 00:48:52 2020, MaxMem=  4294967296 cpu:             105.2 elap:               8.9
 (Enter /home/cwagen/sw/g16/g16/l202.exe)
                          Input orientation:                          
 ---------------------------------------------------------------------
 Center     Atomic      Atomic             Coordinates (Angstroms)
 Number     Number       Type             X           Y           Z
 ---------------------------------------------------------------------
      1          6           0       -0.258962   -0.418894   -0.301056
      2          8           0       -0.236111   -0.527613   -1.456038
      3          6           0       -0.301716   -1.429536    0.803906
      4          1           0       -0.113153   -0.988391    1.781208
      5          1           0       -1.306963   -1.867246    0.779590
      6          1           0        0.445811   -2.196889    0.581546
      7         17           0       -1.443141    1.309671    0.369604
      8          6           0        2.116900    0.457180    0.288669
      9          7           0        3.248404    0.776357    0.364485
 ---------------------------------------------------------------------
                    Distance matrix (angstroms):
                    1          2          3          4          5
     1  C    0.000000
     2  O    1.160313   0.000000
     3  C    1.498054   2.434156   0.000000
     4  H    2.163657   3.272186   1.088707   0.000000
     5  H    2.088978   2.817690   1.096679   1.789080   0.000000
     6  H    2.106409   2.720892   1.094108   1.792232   1.794465
     7  Cl   2.200000   2.857535   2.999120   3.007089   3.206156
     8  C    2.600000   3.090385   3.110445   3.048029   4.167349
     9  N    3.764730   4.142039   4.202667   4.052346   5.283212
                    6          7          8          9
     6  H    0.000000
     7  Cl   3.988612   0.000000
     8  C    3.149984   3.661582   0.000000
     9  N    4.091679   4.721763   1.178102   0.000000
 Stoichiometry    C3H3ClNO(1-)
 Framework group  C1[X(C3H3ClNO)]
 Deg. of freedom    21
 Full point group                 C1      NOp   1
 RotChk:  IX=0 Diff= 3.90D-02
 Largest Abelian subgroup         C1      NOp   1
 Largest concise Abelian subgroup C1      NOp   1
                         Standard orientation:                         
 ---------------------------------------------------------------------
 Center     Atomic      Atomic             Coordinates (Angstroms)
 Number     Number       Type             X           Y           Z
 ---------------------------------------------------------------------
      1          6           0       -0.330741    0.685475    0.264115
      2          8           0       -0.334393    1.007969    1.378705
      3          6           0       -0.299077    1.471784   -1.010593
      4          1           0       -0.103724    0.848276   -1.881431
      5          1           0       -1.284386    1.944313   -1.103261
      6          1           0        0.475191    2.238140   -0.909200
      7         17           0       -1.571229   -1.091752   -0.113579
      8          6           0        2.019371   -0.375662   -0.068995
      9          7           0        3.137377   -0.746327   -0.044581
 ---------------------------------------------------------------------
 Rotational constants (GHZ):           3.2036407           1.5401824           1.3022425
 Leave Link  202 at Wed Jan  8 00:48:53 2020, MaxMem=  4294967296 cpu:               2.3 elap:               0.2
 (Enter /home/cwagen/sw/g16/g16/l301.exe)
 Standard basis: 6-31+G(d) (6D, 7F)
 Ernie: Thresh=  0.10000D-02 Tol=  0.10000D-05 Strict=F.
 There are   124 symmetry adapted cartesian basis functions of A   symmetry.
 There are   124 symmetry adapted basis functions of A   symmetry.
   124 basis functions,   228 primitive gaussians,   124 cartesian basis functions
    27 alpha electrons       27 beta electrons
       nuclear repulsion energy       231.5518811763 Hartrees.
 IExCor=  402 DFT=T Ex+Corr=B3LYP ExCW=0 ScaHFX=  0.200000
 ScaDFX=  0.800000  0.720000  1.000000  0.810000 ScalE2=  1.000000  1.000000
 IRadAn=      5 IRanWt=     -1 IRanGd=            0 ICorTp=0 IEmpDi=  4
 NAtoms=    9 NActive=    9 NUniq=    9 SFac= 1.00D+00 NAtFMM=   60 NAOKFM=F Big=F
 Integral buffers will be    131072 words long.
 Raffenetti 2 integral format.
 Two-electron integral symmetry is turned on.
 ------------------------------------------------------------------------------
 Polarizable Continuum Model (PCM)
 =================================
 Model                : PCM.
 Atomic radii         : SMD-Coulomb.
 Polarization charges : Total charges.
 Charge compensation  : None.
 Solution method      : On-the-fly selection.
 Cavity type          : VdW (van der Waals Surface) (Alpha=1.000).
 Cavity algorithm     : GePol (No added spheres)
                        Default sphere list used, NSphG=    9.
                        Lebedev-Laikov grids with approx.  5.0 points / Ang**2.
                        Smoothing algorithm: York/Karplus (Gamma=1.0000).
                        Polarization charges: spherical gaussians, with
                                              point-specific exponents (IZeta= 3).
                        Self-potential: point-specific (ISelfS= 7).
                        Self-field    : sphere-specific E.n sum rule (ISelfD= 2).
 1st derivatives      : Analytical E(r).r(x)/FMM algorithm (CHGder, D1EAlg=3).
                        Cavity 1st derivative terms included.
 Solvent              : TetraHydroFuran, Eps=   7.425700 Eps(inf)=   1.974025
 ------------------------------------------------------------------------------
 Spheres list:
 ISph  on   Nord     Re0    Alpha      Xe            Ye            Ze
    1   C      1    1.8500  1.000     -0.330741      0.685475      0.264115
    2   O      2    2.2940  1.000     -0.334393      1.007969      1.378705
    3   C      3    1.8500  1.000     -0.299077      1.471784     -1.010593
    4   H      4    1.2000  1.000     -0.103724      0.848276     -1.881431
    5   H      5    1.2000  1.000     -1.284386      1.944313     -1.103261
    6   H      6    1.2000  1.000      0.475191      2.238140     -0.909200
    7  Cl      7    2.3800  1.000     -1.571229     -1.091752     -0.113579
    8   C      8    1.8500  1.000      2.019371     -0.375662     -0.068995
    9   N      9    1.8900  1.000      3.137377     -0.746327     -0.044581
 ------------------------------------------------------------------------------
 GePol: Number of generator spheres                  =       9
 GePol: Total number of spheres                      =       9
 GePol: Number of exposed spheres                    =       9 (100.00%)
 GePol: Number of points                             =    1248
 GePol: Average weight of points                     =       0.13
 GePol: Minimum weight of points                     =   0.62D-08
 GePol: Maximum weight of points                     =    0.18138
 GePol: Number of points with low weight             =      30
 GePol: Fraction of low-weight points (<1% of avg)   =       2.40%
 GePol: Cavity surface area                          =    167.967 Ang**2
 GePol: Cavity volume                                =    151.478 Ang**3
 ------------------------------------------------------------------------------
 Atomic radii for non-electrostatic terms: SMD-CDS.
 ------------------------------------------------------------------------------
 PCM non-electrostatic energy =         0.0007915733 Hartrees.
 Nuclear repulsion after PCM non-electrostatic terms =      231.5526727496 Hartrees.
 Leave Link  301 at Wed Jan  8 00:48:53 2020, MaxMem=  4294967296 cpu:               2.4 elap:               0.3
 (Enter /home/cwagen/sw/g16/g16/l302.exe)
 NPDir=0 NMtPBC=     1 NCelOv=     1 NCel=       1 NClECP=     1 NCelD=      1
         NCelK=      1 NCelE2=     1 NClLst=     1 CellRange=     0.0.
 One-electron integrals computed using PRISM.
 One-electron integral symmetry used in STVInt
 NBasis=   124 RedAO= T EigKep=  9.68D-05  NBF=   124
 NBsUse=   124 1.00D-06 EigRej= -1.00D+00 NBFU=   124
 Precomputing XC quadrature grid using
 IXCGrd= 4 IRadAn=           5 IRanWt=          -1 IRanGd=           0 AccXCQ= 0.00D+00.
 Generated NRdTot=       0 NPtTot=           0 NUsed=           0 NTot=          32
[...]
 Mixed Optimization -- En-DIIS/RFO-DIIS
 Swapping is turned off.
 Update second derivatives using D2CorX and points    2    3    4    5    6
                                                      7    8    9   10   11
                                                     12   13   14   15   16
 DE=  3.16D-08 DEPred=-1.88D-08 R=-1.68D+00
 Trust test=-1.68D+00 RLast= 1.70D-03 DXMaxT set to 3.42D-01
 ITU= -1  0  0  0  1  1  0  0  0  1  1  1  1  1  1  0
     Eigenvalues ---    0.00257   0.00295   0.00843   0.02724   0.04626
     Eigenvalues ---    0.05623   0.06109   0.14523   0.16270   0.16624
     Eigenvalues ---    0.18166   0.24296   0.26707   0.32031   0.34005
     Eigenvalues ---    0.34290   0.35823   0.99954   1.219911000.00000
     Eigenvalues --- 1000.000001000.000001000.000001000.000001000.00000
     Eigenvalues --- 1000.000001000.000001000.000001000.000001000.00000
     Eigenvalues --- 1000.00000
 En-DIIS/RFO-DIIS/Sim-DIIS IScMMF=       -3 using points:    16   15   14   13   12   11   10    9    8    7
 RFO step:  Lambda=-2.37306293D-07.
 NNeg= 0 NGDIIS=10 SimSw=  2.50D-03 Rises=F DC=  3.16D-08 SmlDif=  1.00D-05
 NRisDI= 0 DoIntr=F SqrtH=F CThrHd= 10.0 CDAdj=  3.0
 RMS Error=  0.1301482367D-03 NUsed=10 OKEnD=F EnDIS=F
 InvSVX:  RCond= 2.24D-12 Info=           0 Equed=N FErr=  6.26D-08 BErr=  6.65D-17
 DIIS inversion failure, remove point  10.
 InvSVX:  RCond= 5.97D-12 Info=           0 Equed=N FErr=  9.17D-09 BErr=  8.03D-17
 DIIS inversion failure, remove point   9.
 InvSVX:  RCond= 1.54D-11 Info=           0 Equed=N FErr=  2.23D-09 BErr=  5.49D-17
 DIIS inversion failure, remove point   8.
 InvSVX:  RCond= 2.57D-11 Info=           0 Equed=N FErr=  2.17D-10 BErr=  1.09D-16
 DIIS inversion failure, remove point   7.
 InvSVX:  RCond= 1.64D-10 Info=           0 Equed=N FErr=  2.79D-11 BErr=  6.58D-17
 DIIS inversion failure, remove point   6.
 InvSVX:  RCond= 3.12D-10 Info=           0 Equed=N FErr=  9.72D-12 BErr=  2.83D-17
 DIIS inversion failure, remove point   5.
 InvSVX:  RCond= 5.26D-10 Info=           0 Equed=N FErr=  2.76D-12 BErr=  6.63D-17
 DIIS inversion failure, remove point   4.
 InvSVX:  RCond= 1.53D-08 Info=           0 Equed=N FErr=  6.91D-14 BErr=  4.69D-17
 DIIS inversion failure, remove point   3.
 InvSVX:  RCond= 7.25D-07 Info=           0 Equed=N FErr=  2.04D-15 BErr=  8.80D-17
 RFO-DIIS uses    2 points instead of   10
 DidBck=F Rises=F RFO-DIIS coefs:    1.40833   -0.40833    0.00000    0.00000    0.00000
                  RFO-DIIS coefs:    0.00000    0.00000    0.00000    0.00000    0.00000
 Iteration  1 RMS(Cart)=  0.00024907 RMS(Int)=  0.00000007
 Iteration  2 RMS(Cart)=  0.00000007 RMS(Int)=  0.00000000
 Iteration  1 RMS(Cart)=  0.00000000 RMS(Int)=  0.00000000
 ITry= 1 IFail=0 DXMaxC= 9.01D-04 DCOld= 1.00D+10 DXMaxT= 3.42D-01 DXLimC= 3.00D+00 Rises=F
 Variable       Old X    -DE/DX   Delta X   Delta X   Delta X     New X
                                 (Linear)    (Quad)   (Total)
    R1        2.20639  -0.00001  -0.00001  -0.00001  -0.00002   2.20638
    R2        2.80402  -0.00002   0.00000  -0.00004  -0.00004   2.80398
    R3        4.15740  -0.01503   0.00000   0.00000   0.00000   4.15740
    R4        4.91329   0.00190   0.00000   0.00000   0.00000   4.91329
    R5        2.05359   0.00000   0.00000   0.00000   0.00000   2.05358
    R6        2.07509   0.00000   0.00000   0.00001   0.00001   2.07509
    R7        2.06813   0.00000   0.00000   0.00000   0.00000   2.06813
    R8        2.22779   0.00000   0.00000   0.00000   0.00000   2.22779
    A1        2.39606   0.00001   0.00001   0.00005   0.00006   2.39612
    A2        1.97682  -0.00003   0.00000  -0.00010  -0.00010   1.97672
    A3        1.76401  -0.00001  -0.00001  -0.00008  -0.00009   1.76392
    A4        1.83561   0.00002  -0.00001   0.00006   0.00005   1.83565
    A5        1.58849   0.00001  -0.00007   0.00005  -0.00002   1.58847
    A6        1.71168   0.00000   0.00010   0.00002   0.00012   1.71180
    A7        1.94407   0.00001   0.00001   0.00003   0.00004   1.94411
    A8        1.86350  -0.00001  -0.00002  -0.00004  -0.00006   1.86344
    A9        1.88371   0.00000   0.00000   0.00000   0.00000   1.88371
   A10        1.91574   0.00001   0.00000   0.00003   0.00003   1.91577
   A11        1.93523   0.00000   0.00000  -0.00003  -0.00003   1.93520
   A12        1.92005   0.00000   0.00001   0.00001   0.00002   1.92006
   A13        3.16912  -0.00001  -0.00060  -0.00002  -0.00062   3.16851
   A14        2.94130   0.00000   0.00019  -0.00006   0.00013   2.94143
    D1        2.79062   0.00000   0.00005  -0.00004   0.00001   2.79064
    D2       -1.40127   0.00000   0.00004  -0.00001   0.00004  -1.40124
    D3        0.66238   0.00000   0.00004  -0.00002   0.00002   0.66240
    D4       -0.80892   0.00000   0.00006  -0.00003   0.00002  -0.80890
    D5        1.28236   0.00000   0.00005   0.00000   0.00005   1.28241
    D6       -2.93717   0.00000   0.00005  -0.00002   0.00003  -2.93714
    D7        0.91276   0.00000   0.00014   0.00001   0.00014   0.91291
    D8        3.00405   0.00000   0.00013   0.00004   0.00017   3.00422
    D9       -1.21549   0.00000   0.00013   0.00002   0.00015  -1.21533
         Item               Value     Threshold  Converged?
 Maximum Force            0.000029     0.000450     YES
 RMS     Force            0.000009     0.000300     YES
 Maximum Displacement     0.000901     0.001800     YES
 RMS     Displacement     0.000249     0.001200     YES
 Predicted change in Energy=-6.401917D-09
 Optimization completed.
    -- Stationary point found.
                           ----------------------------
                           !   Optimized Parameters   !
                           ! (Angstroms and Degrees)  !
 --------------------------                            --------------------------
 ! Name  Definition              Value          Derivative Info.                !
 --------------------------------------------------------------------------------
 ! R1    R(1,2)                  1.1676         -DE/DX =    0.0                 !
 ! R2    R(1,3)                  1.4838         -DE/DX =    0.0                 !
 ! R3    R(1,7)                  2.2            -DE/DX =   -0.015               !
 ! R4    R(1,8)                  2.6            -DE/DX =    0.0019              !
 ! R5    R(3,4)                  1.0867         -DE/DX =    0.0                 !
 ! R6    R(3,5)                  1.0981         -DE/DX =    0.0                 !
 ! R7    R(3,6)                  1.0944         -DE/DX =    0.0                 !
 ! R8    R(8,9)                  1.1789         -DE/DX =    0.0                 !
 ! A1    A(2,1,3)              137.2843         -DE/DX =    0.0                 !
 ! A2    A(2,1,7)              113.2632         -DE/DX =    0.0                 !
 ! A3    A(2,1,8)              101.0702         -DE/DX =    0.0                 !
 ! A4    A(3,1,7)              105.1725         -DE/DX =    0.0                 !
 ! A5    A(3,1,8)               91.0139         -DE/DX =    0.0                 !
 ! A6    A(7,1,8)               98.0723         -DE/DX =    0.0                 !
 ! A7    A(1,3,4)              111.387          -DE/DX =    0.0                 !
 ! A8    A(1,3,5)              106.7708         -DE/DX =    0.0                 !
 ! A9    A(1,3,6)              107.9287         -DE/DX =    0.0                 !
 ! A10   A(4,3,5)              109.7638         -DE/DX =    0.0                 !
 ! A11   A(4,3,6)              110.8805         -DE/DX =    0.0                 !
 ! A12   A(5,3,6)              110.0107         -DE/DX =    0.0                 !
 ! A13   L(1,8,9,6,-1)         181.5773         -DE/DX =    0.0                 !
 ! A14   L(1,8,9,6,-2)         168.5242         -DE/DX =    0.0                 !
 ! D1    D(2,1,3,4)            159.891          -DE/DX =    0.0                 !
 ! D2    D(2,1,3,5)            -80.2871         -DE/DX =    0.0                 !
 ! D3    D(2,1,3,6)             37.9514         -DE/DX =    0.0                 !
 ! D4    D(7,1,3,4)            -46.3479         -DE/DX =    0.0                 !
 ! D5    D(7,1,3,5)             73.474          -DE/DX =    0.0                 !
 ! D6    D(7,1,3,6)           -168.2875         -DE/DX =    0.0                 !
 ! D7    D(8,1,3,4)             52.2973         -DE/DX =    0.0                 !
 ! D8    D(8,1,3,5)            172.1192         -DE/DX =    0.0                 !
 ! D9    D(8,1,3,6)            -69.6423         -DE/DX =    0.0                 !
 --------------------------------------------------------------------------------
 Largest change from initial coordinates is atom    4       0.160 Angstoms.
 GradGradGradGradGradGradGradGradGradGradGradGradGradGradGradGradGradGrad

 Leave Link  103 at Wed Jan  8 01:02:19 2020, MaxMem=  4294967296 cpu:              55.5 elap:               4.7
 (Enter /home/cwagen/sw/g16/g16/l202.exe)
                          Input orientation:                          
 ---------------------------------------------------------------------
 Center     Atomic      Atomic             Coordinates (Angstroms)
 Number     Number       Type             X           Y           Z
 ---------------------------------------------------------------------
      1          6           0       -0.295531   -0.451965   -0.337276
      2          8           0       -0.215511   -0.495952   -1.501272
      3          6           0       -0.283767   -1.412784    0.793398
      4          1           0       -0.039001   -0.919381    1.730192
      5          1           0       -1.291845   -1.844061    0.853208
      6          1           0        0.445398   -2.195614    0.562702
      7         17           0       -1.441929    1.279145    0.390068
      8          6           0        2.080952    0.392191    0.294963
      9          7           0        3.192303    0.763059    0.425930
 ---------------------------------------------------------------------
                    Distance matrix (angstroms):
                    1          2          3          4          5
     1  C    0.000000
     2  O    1.167572   0.000000
     3  C    1.483824   2.471993   0.000000
     4  H    2.135113   3.263864   1.086711   0.000000
     5  H    2.085143   2.918812   1.098089   1.787107   0.000000
     6  H    2.097438   2.754204   1.094406   1.796231   1.796105
     7  Cl   2.200000   2.869187   2.958124   2.932176   3.160924
     8  C    2.600000   3.047786   3.016333   2.876509   4.085121
     9  N    3.771440   4.112470   4.117327   3.869500   5.204538
                    6          7          8          9
     6  H    0.000000
     7  Cl   3.957999   0.000000
     8  C    3.073020   3.634065   0.000000
     9  N    4.039547   4.663018   1.178896   0.000000
 Stoichiometry    C3H3ClNO(1-)
 Framework group  C1[X(C3H3ClNO)]
 Deg. of freedom    21
 Full point group                 C1      NOp   1
 RotChk:  IX=0 Diff= 5.79D-16
 Largest Abelian subgroup         C1      NOp   1
 Largest concise Abelian subgroup C1      NOp   1
                         Standard orientation:                         
 ---------------------------------------------------------------------
 Center     Atomic      Atomic             Coordinates (Angstroms)
 Number     Number       Type             X           Y           Z
 ---------------------------------------------------------------------
      1          6           0       -0.355832    0.729886    0.257529
      2          8           0       -0.315277    1.046029    1.380753
      3          6           0       -0.250928    1.392460   -1.065998
      4          1           0       -0.000163    0.679825   -1.847157
      5          1           0       -1.231064    1.841764   -1.273979
      6          1           0        0.511308    2.174272   -0.991895
      7         17           0       -1.568581   -1.071519   -0.094867
      8          6           0        1.991941   -0.345946   -0.043379
      9          7           0        3.085275   -0.786667   -0.029880
 ---------------------------------------------------------------------
 Rotational constants (GHZ):           3.2212147           1.5638169           1.3334233
 Leave Link  202 at Wed Jan  8 01:02:19 2020, MaxMem=  4294967296 cpu:               2.2 elap:               0.2
 (Enter /home/cwagen/sw/g16/g16/l601.exe)
 Copying SCF densities to generalized density rwf, IOpCl= 0 IROHF=0.

 **********************************************************************

            Population analysis using the SCF density.

 **********************************************************************

 Orbital symmetries:
       Occupied  (A) (A) (A) (A) (A) (A) (A) (A) (A) (A) (A) (A)
                 (A) (A) (A) (A) (A) (A) (A) (A) (A) (A) (A) (A)
                 (A) (A) (A)
       Virtual   (A) (A) (A) (A) (A) (A) (A) (A) (A) (A) (A) (A)
                 (A) (A) (A) (A) (A) (A) (A) (A) (A) (A) (A) (A)
                 (A) (A) (A) (A) (A) (A) (A) (A) (A) (A) (A) (A)
                 (A) (A) (A) (A) (A) (A) (A) (A) (A) (A) (A) (A)
                 (A) (A) (A) (A) (A) (A) (A) (A) (A) (A) (A) (A)
                 (A) (A) (A) (A) (A) (A) (A) (A) (A) (A) (A) (A)
                 (A) (A) (A) (A) (A) (A) (A) (A) (A) (A) (A) (A)
                 (A) (A) (A) (A) (A) (A) (A) (A) (A) (A) (A) (A)
                 (A)
 The electronic state is 1-A.
 Alpha  occ. eigenvalues -- -101.48236 -19.20518 -14.26622 -10.34809 -10.20399
 Alpha  occ. eigenvalues --  -10.13230  -9.39696  -7.15838  -7.15279  -7.15251
 Alpha  occ. eigenvalues --   -1.11199  -0.82258  -0.77362  -0.73375  -0.54467
 Alpha  occ. eigenvalues --   -0.47091  -0.46914  -0.46589  -0.39362  -0.39112
 Alpha  occ. eigenvalues --   -0.35543  -0.27812  -0.27422  -0.27166  -0.26687
 Alpha  occ. eigenvalues --   -0.26454  -0.23836
 Alpha virt. eigenvalues --   -0.04092  -0.01028   0.02975   0.04904   0.05383
 Alpha virt. eigenvalues --    0.05724   0.08079   0.08466   0.08936   0.09718
 Alpha virt. eigenvalues --    0.10261   0.11125   0.11290   0.12872   0.13496
 Alpha virt. eigenvalues --    0.13888   0.14326   0.16570   0.18106   0.20810
 Alpha virt. eigenvalues --    0.22572   0.23703   0.24998   0.25404   0.26180
 Alpha virt. eigenvalues --    0.27519   0.28091   0.28527   0.32705   0.34351
 Alpha virt. eigenvalues --    0.36923   0.40356   0.47240   0.54738   0.60382
 Alpha virt. eigenvalues --    0.62496   0.65300   0.66605   0.70475   0.72162
 Alpha virt. eigenvalues --    0.73084   0.73335   0.78024   0.79323   0.82098
 Alpha virt. eigenvalues --    0.84630   0.87837   0.93318   0.93805   0.95052
 Alpha virt. eigenvalues --    0.95881   0.98903   1.01139   1.02883   1.03404
 Alpha virt. eigenvalues --    1.05010   1.06436   1.15037   1.21474   1.26342
 Alpha virt. eigenvalues --    1.26765   1.31044   1.32692   1.37210   1.44063
 Alpha virt. eigenvalues --    1.53562   1.56842   1.60580   1.61192   1.61375
 Alpha virt. eigenvalues --    1.63069   1.67057   1.74824   1.79493   1.82135
 Alpha virt. eigenvalues --    1.85829   2.02611   2.03029   2.03329   2.13517
 Alpha virt. eigenvalues --    2.23672   2.27229   2.40873   2.51926   2.57409
 Alpha virt. eigenvalues --    2.66047   2.66355   2.68382   2.92011   3.09428
 Alpha virt. eigenvalues --    3.15998   4.02536   4.21393   4.29385   4.32237
 Alpha virt. eigenvalues --    4.38737   4.49187
          Condensed to atoms (all electrons):
               1          2          3          4          5          6
     1  C    5.832816   0.456522  -0.543396  -0.069871   0.012833  -0.092565
     2  O    0.456522   7.905762  -0.019904   0.006159  -0.006214   0.003059
     3  C   -0.543396  -0.019904   6.209905   0.406435   0.317618   0.410095
     4  H   -0.069871   0.006159   0.406435   0.415861  -0.022551  -0.019248
     5  H    0.012833  -0.006214   0.317618  -0.022551   0.446987  -0.022267
     6  H   -0.092565   0.003059   0.410095  -0.019248  -0.022267   0.444253
     7  Cl  -0.222828  -0.051020   0.130375   0.004048  -0.010671   0.009608
     8  C    0.442559  -0.107069  -0.349052  -0.010754   0.011145  -0.006149
     9  N   -0.025422   0.001978   0.011212  -0.000045  -0.000092  -0.000379
               7          8          9
     1  C   -0.222828   0.442559  -0.025422
     2  O   -0.051020  -0.107069   0.001978
     3  C    0.130375  -0.349052   0.011212
     4  H    0.004048  -0.010754  -0.000045
     5  H   -0.010671   0.011145  -0.000092
     6  H    0.009608  -0.006149  -0.000379
     7  Cl  17.632406  -0.090055  -0.001924
     8  C   -0.090055   5.696931   0.630794
     9  N   -0.001924   0.630794   7.049154
 Mulliken charges:
               1
     1  C    0.209353
     2  O   -0.189273
     3  C   -0.573289
     4  H    0.289967
     5  H    0.273212
     6  H    0.273592
     7  Cl  -0.399938
     8  C   -0.218350
     9  N   -0.665275
 Sum of Mulliken charges =  -1.00000
 Mulliken charges with hydrogens summed into heavy atoms:
               1
     1  C    0.209353
     2  O   -0.189273
     3  C    0.263482
     7  Cl  -0.399938
     8  C   -0.218350
     9  N   -0.665275
 Electronic spatial extent (au):  <R**2>=            923.5890
 Charge=             -1.0000 electrons
 Dipole moment (field-independent basis, Debye):
    X=             -7.7185    Y=              6.8955    Z=             -2.4432  Tot=             10.6345
 Quadrupole moment (field-independent basis, Debye-Ang):
   XX=            -84.3248   YY=            -47.9962   ZZ=            -46.6634
   XY=              3.6425   XZ=              0.9166   YZ=             -4.0082
 Traceless Quadrupole moment (field-independent basis, Debye-Ang):
   XX=            -24.6633   YY=             11.6652   ZZ=             12.9980
   XY=              3.6425   XZ=              0.9166   YZ=             -4.0082
 Octapole moment (field-independent basis, Debye-Ang**2):
  XXX=           -117.4600  YYY=             20.8205  ZZZ=             -3.1300  XYY=            -11.9842
  XXY=             37.8519  XXZ=              2.0715  XZZ=             -6.8104  YZZ=              3.3503
  YYZ=             -3.9373  XYZ=              1.1128
 Hexadecapole moment (field-independent basis, Debye-Ang**3):
 XXXX=          -1212.6223 YYYY=           -326.3131 ZZZZ=           -182.4471 XXXY=             86.4571
 XXXZ=              3.7483 YYYX=             16.1744 YYYZ=             -5.6518 ZZZX=              1.1397
 ZZZY=             -3.3636 XXYY=           -221.2303 XXZZ=           -175.0218 YYZZ=            -87.0554
 XXYZ=             -2.0299 YYXZ=              1.9483 ZZXY=              2.8524
 N-N= 2.325131596756D+02 E-N=-2.142557414420D+03  KE= 7.024937219362D+02
 No NMR shielding tensors so no spin-rotation constants.
 Leave Link  601 at Wed Jan  8 01:02:21 2020, MaxMem=  4294967296 cpu:              14.8 elap:               1.3
 (Enter /home/cwagen/sw/g16/g16/l9999.exe)
 1\1\GINC-NODE067\FOpt\RB3LYP\6-31+G(d)\C3H3Cl1N1O1(1-)\CWAGEN\08-Jan-2
 020\0\\#p opt=modredundant b3lyp/6-31+g(d) scrf=(smd, solvent=tetrahyd
 rofuran)\\title\\-1,1\C,-0.2955314427,-0.4519654264,-0.337275653\O,-0.
 21551103,-0.4959516744,-1.5012715504\C,-0.2837666691,-1.4127836776,0.7
 933982345\H,-0.039000626,-0.9193807264,1.7301923801\H,-1.2918446689,-1
 .8440607505,0.8532079298\H,0.44539765,-2.1956136432,0.5627018169\Cl,-1
 .4419291721,1.2791451642,0.3900677054\C,2.0809521302,0.3921908252,0.29
 49632782\N,3.1923031587,0.7630587891,0.4259302586\\Version=AS64L-G16Re
 vA.03\State=1-A\HF=-706.4073501\RMSD=4.382e-09\RMSF=4.157e-03\Dipole=-
 3.1974872,-2.6924813,0.1784794\Quadrupole=-18.3825394,10.2813233,8.101
 2161,-0.798727,-2.4134536,-2.8296264\PG=C01 [X(C3H3Cl1N1O1)]\\@


 IT'S WHAT YOU LEARN AFTER YOU KNOW IT ALL
 THAT COUNTS.
 Job cpu time:       0 days  3 hours 16 minutes 26.9 seconds.
 Elapsed time:       0 days  0 hours 16 minutes 26.2 seconds.
 File lengths (MBytes):  RWF=     38 Int=      0 D2E=      0 Chk=      3 Scr=      1
 Normal termination of Gaussian 16 at Wed Jan  8 01:02:21 2020.
