 Entering Gaussian System, Link 0=g16
 Input=scan_240_120.gjf
 Output=scan_240_120.out
 Initial command:
 /home/cwagen/sw/g16/g16/l1.exe "/scratch/users/cwagen/cwagen_scan_240_120/Gau-52368.inp" -scrdir="/scratch/users/cwagen/cwagen_scan_240_120/"
 Entering Link 1 = /home/cwagen/sw/g16/g16/l1.exe PID=     52369.
  
 Copyright (c) 1988,1990,1992,1993,1995,1998,2003,2009,2016,
            Gaussian, Inc.  All Rights Reserved.
  
 This is part of the Gaussian(R) 16 program.  It is based on
 the Gaussian(R) 09 system (copyright 2009, Gaussian, Inc.),
 the Gaussian(R) 03 system (copyright 2003, Gaussian, Inc.),
 the Gaussian(R) 98 system (copyright 1998, Gaussian, Inc.),
 the Gaussian(R) 94 system (copyright 1995, Gaussian, Inc.),
 the Gaussian 92(TM) system (copyright 1992, Gaussian, Inc.),
 the Gaussian 90(TM) system (copyright 1990, Gaussian, Inc.),
 the Gaussian 88(TM) system (copyright 1988, Gaussian, Inc.),
 the Gaussian 86(TM) system (copyright 1986, Carnegie Mellon
 University), and the Gaussian 82(TM) system (copyright 1983,
 Carnegie Mellon University). Gaussian is a federally registered
 trademark of Gaussian, Inc.
  
 This software contains proprietary and confidential information,
 including trade secrets, belonging to Gaussian, Inc.
  
 This software is provided under written license and may be
 used, copied, transmitted, or stored only in accord with that
 written license.
  
 The following legend is applicable only to US Government
 contracts under FAR:
  
                    RESTRICTED RIGHTS LEGEND
  
 Use, reproduction and disclosure by the US Government is
 subject to restrictions as set forth in subparagraphs (a)
 and (c) of the Commercial Computer Software - Restricted
 Rights clause in FAR 52.227-19.
  
 Gaussian, Inc.
 340 Quinnipiac St., Bldg. 40, Wallingford CT 06492
  
  
 ---------------------------------------------------------------
 Warning -- This program may not be used in any manner that
 competes with the business of Gaussian, Inc. or will provide
 assistance to any competitor of Gaussian, Inc.  The licensee
 of this program is prohibited from giving any competitor of
 Gaussian, Inc. access to this program.  By using this program,
 the user acknowledges that Gaussian, Inc. is engaged in the
 business of creating and licensing software in the field of
 computational chemistry and represents and warrants to the
 licensee that it is not a competitor of Gaussian, Inc. and that
 it will not use this program in any manner prohibited above.
 ---------------------------------------------------------------
  

 Cite this work as:
 Gaussian 16, Revision A.03,
 M. J. Frisch, G. W. Trucks, H. B. Schlegel, G. E. Scuseria, 
 M. A. Robb, J. R. Cheeseman, G. Scalmani, V. Barone, 
 G. A. Petersson, H. Nakatsuji, X. Li, M. Caricato, A. V. Marenich, 
 J. Bloino, B. G. Janesko, R. Gomperts, B. Mennucci, H. P. Hratchian, 
 J. V. Ortiz, A. F. Izmaylov, J. L. Sonnenberg, D. Williams-Young, 
 F. Ding, F. Lipparini, F. Egidi, J. Goings, B. Peng, A. Petrone, 
 T. Henderson, D. Ranasinghe, V. G. Zakrzewski, J. Gao, N. Rega, 
 G. Zheng, W. Liang, M. Hada, M. Ehara, K. Toyota, R. Fukuda, 
 J. Hasegawa, M. Ishida, T. Nakajima, Y. Honda, O. Kitao, H. Nakai, 
 T. Vreven, K. Throssell, J. A. Montgomery, Jr., J. E. Peralta, 
 F. Ogliaro, M. J. Bearpark, J. J. Heyd, E. N. Brothers, K. N. Kudin, 
 V. N. Staroverov, T. A. Keith, R. Kobayashi, J. Normand, 
 K. Raghavachari, A. P. Rendell, J. C. Burant, S. S. Iyengar, 
 J. Tomasi, M. Cossi, J. M. Millam, M. Klene, C. Adamo, R. Cammi, 
 J. W. Ochterski, R. L. Martin, K. Morokuma, O. Farkas, 
 J. B. Foresman, and D. J. Fox, Gaussian, Inc., Wallingford CT, 2016.
 
 ******************************************
 Gaussian 16:  AS64L-G16RevA.03 25-Dec-2016
                 8-Jan-2020 
 ******************************************
 %nprocshared=16
 Will use up to   16 processors via shared memory.
 %mem=32GB
 ----------------------------------------------------------------------
 #p opt=modredundant b3lyp/6-31+g(d) scrf=(smd, solvent=tetrahydrofuran
 )
 ----------------------------------------------------------------------
 1/18=120,19=15,26=3,38=1/1,3;
 2/9=110,12=2,17=6,18=5,40=1/2;
 3/5=1,6=6,7=11,11=2,25=1,30=1,70=32201,71=1,72=20,74=-5/1,2,3;
 4//1;
 5/5=2,38=5,53=20/2;
 6/7=2,8=2,9=2,10=2,28=1/1;
 7//1,2,3,16;
 1/18=20,19=15,26=3/3(2);
 2/9=110/2;
 99//99;
 2/9=110/2;
 3/5=1,6=6,7=11,11=2,25=1,30=1,70=32205,71=1,72=20,74=-5/1,2,3;
 4/5=5,16=3,69=1/1;
 5/5=2,38=5,53=20/2;
 7//1,2,3,16;
 1/18=20,19=15,26=3/3(-5);
 2/9=110/2;
 6/7=2,8=2,9=2,10=2,19=2,28=1/1;
 99/9=1/99;
 Leave Link    1 at Wed Jan  8 00:59:36 2020, MaxMem=  4294967296 cpu:               1.5 elap:               0.1
 (Enter /home/cwagen/sw/g16/g16/l101.exe)
 -----
 title
 -----
 Symbolic Z-matrix:
 Charge = -1 Multiplicity = 1
 6                    -0.19426  -0.292    -0.21291 
 8                    -0.25532  -0.66526  -1.45426 
 6                    -0.33095  -1.45422   0.81632 
 1                    -0.18039  -1.13044   1.85373 
 1                    -1.34067  -1.87301   0.71427 
 1                     0.39707  -2.23395   0.57058 
 17                   -1.63124   1.53092   0.39705 
 6                     0.91828   0.09759   0.01174 
 7                     2.05285   0.37788   0.04204 
 
 Add virtual bond connecting atoms Cl7        and C1         Dist= 4.54D+00.
 The following ModRedundant input section has been read:
 B       1       7 F                                                           
 B       1       8 F                                                           
 
 ITRead=  0  0  0  0  0  0  0  0  0
 MicOpt= -1 -1 -1 -1 -1 -1 -1 -1 -1
 NAtoms=      9 NQM=        9 NQMF=       0 NMMI=      0 NMMIF=      0
                NMic=       0 NMicF=      0.
                    Isotopes and Nuclear Properties:
 (Nuclear quadrupole moments (NQMom) in fm**2, nuclear magnetic moments (NMagM)
  in nuclear magnetons)

  Atom         1           2           3           4           5           6           7           8           9
 IAtWgt=          12          16          12           1           1           1          35          12          14
 AtmWgt=  12.0000000  15.9949146  12.0000000   1.0078250   1.0078250   1.0078250  34.9688527  12.0000000  14.0030740
 NucSpn=           0           0           0           1           1           1           3           0           2
 AtZEff=   0.0000000   0.0000000   0.0000000   0.0000000   0.0000000   0.0000000   0.0000000   0.0000000   0.0000000
 NQMom=    0.0000000   0.0000000   0.0000000   0.0000000   0.0000000   0.0000000  -8.1650000   0.0000000   2.0440000
 NMagM=    0.0000000   0.0000000   0.0000000   2.7928460   2.7928460   2.7928460   0.8218740   0.0000000   0.4037610
 AtZNuc=   6.0000000   8.0000000   6.0000000   1.0000000   1.0000000   1.0000000  17.0000000   6.0000000   7.0000000
 Leave Link  101 at Wed Jan  8 00:59:37 2020, MaxMem=  4294967296 cpu:               7.2 elap:               0.6
 (Enter /home/cwagen/sw/g16/g16/l103.exe)

 GradGradGradGradGradGradGradGradGradGradGradGradGradGradGradGradGradGrad
 Berny optimization.
 Initialization pass.
                           ----------------------------
                           !    Initial Parameters    !
                           ! (Angstroms and Degrees)  !
 --------------------------                            --------------------------
 ! Name  Definition              Value          Derivative Info.                !
 --------------------------------------------------------------------------------
 ! R1    R(1,2)                  1.2977         estimate D2E/DX2                !
 ! R2    R(1,3)                  1.5584         estimate D2E/DX2                !
 ! R3    R(1,7)                  2.4            Frozen                          !
 ! R4    R(1,8)                  1.2            Frozen                          !
 ! R5    R(3,4)                  1.0971         estimate D2E/DX2                !
 ! R6    R(3,5)                  1.0979         estimate D2E/DX2                !
 ! R7    R(3,6)                  1.0947         estimate D2E/DX2                !
 ! R8    R(8,9)                  1.1691         estimate D2E/DX2                !
 ! A1    A(2,1,3)              114.4006         estimate D2E/DX2                !
 ! A2    A(2,1,7)              115.6846         estimate D2E/DX2                !
 ! A3    A(2,1,8)              108.426          estimate D2E/DX2                !
 ! A4    A(3,1,7)              110.248          estimate D2E/DX2                !
 ! A5    A(3,1,8)              101.5248         estimate D2E/DX2                !
 ! A6    A(7,1,8)              105.1256         estimate D2E/DX2                !
 ! A7    A(1,3,4)              113.1005         estimate D2E/DX2                !
 ! A8    A(1,3,5)              107.683          estimate D2E/DX2                !
 ! A9    A(1,3,6)              108.9421         estimate D2E/DX2                !
 ! A10   A(4,3,5)              109.0662         estimate D2E/DX2                !
 ! A11   A(4,3,6)              109.3417         estimate D2E/DX2                !
 ! A12   A(5,3,6)              108.6067         estimate D2E/DX2                !
 ! A13   L(1,8,9,6,-1)         177.7776         estimate D2E/DX2                !
 ! A14   L(1,8,9,6,-2)         168.2463         estimate D2E/DX2                !
 ! D1    D(2,1,3,4)            174.4714         estimate D2E/DX2                !
 ! D2    D(2,1,3,5)            -64.9488         estimate D2E/DX2                !
 ! D3    D(2,1,3,6)             52.6633         estimate D2E/DX2                !
 ! D4    D(7,1,3,4)            -53.1046         estimate D2E/DX2                !
 ! D5    D(7,1,3,5)             67.4752         estimate D2E/DX2                !
 ! D6    D(7,1,3,6)           -174.9127         estimate D2E/DX2                !
 ! D7    D(8,1,3,4)             57.938          estimate D2E/DX2                !
 ! D8    D(8,1,3,5)            178.5177         estimate D2E/DX2                !
 ! D9    D(8,1,3,6)            -63.8702         estimate D2E/DX2                !
 --------------------------------------------------------------------------------
 Trust Radius=3.00D-01 FncErr=1.00D-07 GrdErr=1.00D-06 EigMax=2.50D+02 EigMin=1.00D-04
 Number of steps in this run=     41 maximum allowed number of steps=    100.
 GradGradGradGradGradGradGradGradGradGradGradGradGradGradGradGradGradGrad

 Leave Link  103 at Wed Jan  8 00:59:37 2020, MaxMem=  4294967296 cpu:               0.6 elap:               0.1
 (Enter /home/cwagen/sw/g16/g16/l202.exe)
                          Input orientation:                          
 ---------------------------------------------------------------------
 Center     Atomic      Atomic             Coordinates (Angstroms)
 Number     Number       Type             X           Y           Z
 ---------------------------------------------------------------------
      1          6           0       -0.194263   -0.291999   -0.212908
      2          8           0       -0.255321   -0.665256   -1.454255
      3          6           0       -0.330945   -1.454221    0.816316
      4          1           0       -0.180394   -1.130438    1.853734
      5          1           0       -1.340665   -1.873010    0.714272
      6          1           0        0.397068   -2.233949    0.570583
      7         17           0       -1.631237    1.530925    0.397055
      8          6           0        0.918283    0.097585    0.011737
      9          7           0        2.052854    0.377883    0.042040
 ---------------------------------------------------------------------
                    Distance matrix (angstroms):
                    1          2          3          4          5
     1  C    0.000000
     2  O    1.297687   0.000000
     3  C    1.558443   2.404928   0.000000
     4  H    2.230287   3.341377   1.097150   0.000000
     5  H    2.161827   2.709087   1.097876   1.787740   0.000000
     6  H    2.175937   2.643176   1.094698   1.788205   1.780629
     7  Cl   2.400000   3.184918   3.282931   3.362991   3.431010
     8  C    1.200000   2.026920   2.148493   2.471454   3.078904
     9  N    2.358660   2.941889   3.104611   3.247255   4.127274
                    6          7          8          9
     6  H    0.000000
     7  Cl   4.280001   0.000000
     8  C    2.453574   2.950082   0.000000
     9  N    3.137300   3.876605   1.169075   0.000000
 Stoichiometry    C3H3ClNO(1-)
 Framework group  C1[X(C3H3ClNO)]
 Deg. of freedom    21
 Full point group                 C1      NOp   1
 Largest Abelian subgroup         C1      NOp   1
 Largest concise Abelian subgroup C1      NOp   1
                         Standard orientation:                         
 ---------------------------------------------------------------------
 Center     Atomic      Atomic             Coordinates (Angstroms)
 Number     Number       Type             X           Y           Z
 ---------------------------------------------------------------------
      1          6           0        0.367948    0.298010    0.214804
      2          8           0        0.731924    0.582388    1.427504
      3          6           0        0.820970    1.337862   -0.853944
      4          1           0        0.586887    1.029791   -1.880606
      5          1           0        0.307524    2.283825   -0.637477
      6          1           0        1.900016    1.496708   -0.760179
      7         17           0       -1.953999   -0.234634   -0.076489
      8          6           0        0.961092   -0.683327   -0.138973
      9          7           0        1.666874   -1.599418   -0.310397
 ---------------------------------------------------------------------
 Rotational constants (GHZ):           3.9596622           1.9957985           1.7665974
 Leave Link  202 at Wed Jan  8 00:59:37 2020, MaxMem=  4294967296 cpu:               1.2 elap:               0.1
 (Enter /home/cwagen/sw/g16/g16/l301.exe)
 Standard basis: 6-31+G(d) (6D, 7F)
 Ernie: Thresh=  0.10000D-02 Tol=  0.10000D-05 Strict=F.
 There are   124 symmetry adapted cartesian basis functions of A   symmetry.
 There are   124 symmetry adapted basis functions of A   symmetry.
   124 basis functions,   228 primitive gaussians,   124 cartesian basis functions
    27 alpha electrons       27 beta electrons
       nuclear repulsion energy       253.9538246290 Hartrees.
 IExCor=  402 DFT=T Ex+Corr=B3LYP ExCW=0 ScaHFX=  0.200000
 ScaDFX=  0.800000  0.720000  1.000000  0.810000 ScalE2=  1.000000  1.000000
 IRadAn=      5 IRanWt=     -1 IRanGd=            0 ICorTp=0 IEmpDi=  4
 NAtoms=    9 NActive=    9 NUniq=    9 SFac= 1.00D+00 NAtFMM=   60 NAOKFM=F Big=F
 Integral buffers will be    131072 words long.
 Raffenetti 2 integral format.
 Two-electron integral symmetry is turned on.
 ------------------------------------------------------------------------------
 Polarizable Continuum Model (PCM)
 =================================
 Model                : PCM.
 Atomic radii         : SMD-Coulomb.
 Polarization charges : Total charges.
 Charge compensation  : None.
 Solution method      : On-the-fly selection.
 Cavity type          : VdW (van der Waals Surface) (Alpha=1.000).
 Cavity algorithm     : GePol (No added spheres)
                        Default sphere list used, NSphG=    9.
                        Lebedev-Laikov grids with approx.  5.0 points / Ang**2.
                        Smoothing algorithm: York/Karplus (Gamma=1.0000).
                        Polarization charges: spherical gaussians, with
                                              point-specific exponents (IZeta= 3).
                        Self-potential: point-specific (ISelfS= 7).
                        Self-field    : sphere-specific E.n sum rule (ISelfD= 2).
 1st derivatives      : Analytical E(r).r(x)/FMM algorithm (CHGder, D1EAlg=3).
                        Cavity 1st derivative terms included.
 Solvent              : TetraHydroFuran, Eps=   7.425700 Eps(inf)=   1.974025
 ------------------------------------------------------------------------------
 Spheres list:
 ISph  on   Nord     Re0    Alpha      Xe            Ye            Ze
    1   C      1    1.8500  1.000      0.367948      0.298010      0.214804
    2   O      2    2.2940  1.000      0.731924      0.582388      1.427504
    3   C      3    1.8500  1.000      0.820970      1.337862     -0.853944
    4   H      4    1.2000  1.000      0.586887      1.029791     -1.880606
    5   H      5    1.2000  1.000      0.307524      2.283825     -0.637477
    6   H      6    1.2000  1.000      1.900016      1.496708     -0.760179
    7  Cl      7    2.3800  1.000     -1.953999     -0.234634     -0.076489
    8   C      8    1.8500  1.000      0.961092     -0.683327     -0.138973
    9   N      9    1.8900  1.000      1.666874     -1.599418     -0.310397
 ------------------------------------------------------------------------------
 GePol: Number of generator spheres                  =       9
 GePol: Total number of spheres                      =       9
 GePol: Number of exposed spheres                    =       9 (100.00%)
 GePol: Number of points                             =    1140
 GePol: Average weight of points                     =       0.14
 GePol: Minimum weight of points                     =   0.77D-10
 GePol: Maximum weight of points                     =    0.18138
 GePol: Number of points with low weight             =      25
 GePol: Fraction of low-weight points (<1% of avg)   =       2.19%
 GePol: Cavity surface area                          =    157.055 Ang**2
 GePol: Cavity volume                                =    143.908 Ang**3
 ------------------------------------------------------------------------------
 Atomic radii for non-electrostatic terms: SMD-CDS.
 ------------------------------------------------------------------------------
 PCM non-electrostatic energy =        -0.0012497857 Hartrees.
 Nuclear repulsion after PCM non-electrostatic terms =      253.9525748433 Hartrees.
 Leave Link  301 at Wed Jan  8 00:59:37 2020, MaxMem=  4294967296 cpu:               2.0 elap:               0.2
 (Enter /home/cwagen/sw/g16/g16/l302.exe)
 NPDir=0 NMtPBC=     1 NCelOv=     1 NCel=       1 NClECP=     1 NCelD=      1
         NCelK=      1 NCelE2=     1 NClLst=     1 CellRange=     0.0.
 One-electron integrals computed using PRISM.
 One-electron integral symmetry used in STVInt
 NBasis=   124 RedAO= T EigKep=  1.47D-05  NBF=   124
 NBsUse=   124 1.00D-06 EigRej= -1.00D+00 NBFU=   124
 Precomputing XC quadrature grid using
 IXCGrd= 4 IRadAn=           5 IRanWt=          -1 IRanGd=           0 AccXCQ= 0.00D+00.
 Generated NRdTot=       0 NPtTot=           0 NUsed=           0 NTot=          32
 NSgBfM=   124   124   124   124   124 MxSgAt=     9 MxSgA2=     9.
 Leave Link  302 at Wed Jan  8 00:59:39 2020, MaxMem=  4294967296 cpu:              22.3 elap:               1.8
 (Enter /home/cwagen/sw/g16/g16/l303.exe)
 DipDrv:  MaxL=1.
 Leave Link  303 at Wed Jan  8 00:59:39 2020, MaxMem=  4294967296 cpu:               2.3 elap:               0.4
 (Enter /home/cwagen/sw/g16/g16/l401.exe)
 ExpMin= 4.38D-02 ExpMax= 2.52D+04 ExpMxC= 3.78D+03 IAcc=3 IRadAn=         5 AccDes= 0.00D+00
 Harris functional with IExCor=  402 and IRadAn=       5 diagonalized for initial guess.
 HarFok:  IExCor=  402 AccDes= 0.00D+00 IRadAn=         5 IDoV= 1 UseB2=F ITyADJ=14
 ICtDFT=  3500011 ScaDFX=  1.000000  1.000000  1.000000  1.000000
 FoFCou: FMM=F IPFlag=           0 FMFlag=      100000 FMFlg1=           0
         NFxFlg=           0 DoJE=T BraDBF=F KetDBF=T FulRan=T
         wScrn=  0.000000 ICntrl=       500 IOpCl=  0 I1Cent=   200000004 NGrid=           0
         NMat0=    1 NMatS0=      1 NMatT0=    0 NMatD0=    1 NMtDS0=    0 NMtDT0=    0
 Petite list used in FoFCou.
 Harris En= -706.331044876685    
 JPrj=0 DoOrth=F DoCkMO=F.
 Leave Link  401 at Wed Jan  8 00:59:41 2020, MaxMem=  4294967296 cpu:              24.4 elap:               1.8
 (Enter /home/cwagen/sw/g16/g16/l502.exe)
 Keep R1 ints in memory in canonical form, NReq=45236517.
 FoFCou: FMM=F IPFlag=           0 FMFlag=           0 FMFlg1=           0
         NFxFlg=           0 DoJE=F BraDBF=F KetDBF=F FulRan=T
         wScrn=  0.000000 ICntrl=       600 IOpCl=  0 I1Cent=           0 NGrid=           0
         NMat0=    1 NMatS0=   7750 NMatT0=    0 NMatD0=    1 NMtDS0=    0 NMtDT0=    0
 Symmetry not used in FoFCou.
 Two-electron integral symmetry not used.
 Closed shell SCF:
 Using DIIS extrapolation, IDIIS=  1040.
 NGot=  4294967296 LenX=  4264898079 LenY=  4264882262
 Requested convergence on RMS density matrix=1.00D-08 within 128 cycles.
 Requested convergence on MAX density matrix=1.00D-06.
 Requested convergence on             energy=1.00D-06.
 No special actions if energy rises.

 Cycle   1  Pass 1  IDiag  1:
 Inv3:  Mode=1 IEnd=     3898800.
 Iteration    1 A*A^-1 deviation from unit magnitude is 5.11D-15 for   1137.
 Iteration    1 A*A^-1 deviation from orthogonality  is 1.58D-15 for   1137    991.
 Iteration    1 A^-1*A deviation from unit magnitude is 5.11D-15 for   1137.
 Iteration    1 A^-1*A deviation from orthogonality  is 1.22D-15 for   1140   1139.
 E= -706.142970386289    
 DIIS: error= 2.44D-02 at cycle   1 NSaved=   1.
 NSaved= 1 IEnMin= 1 EnMin= -706.142970386289     IErMin= 1 ErrMin= 2.44D-02
 ErrMax= 2.44D-02  0.00D+00 EMaxC= 1.00D-01 BMatC= 1.92D-01 BMatP= 1.92D-01
 IDIUse=3 WtCom= 7.56D-01 WtEn= 2.44D-01
 Coeff-Com:  0.100D+01
 Coeff-En:   0.100D+01
 Coeff:      0.100D+01
 Gap=     0.287 Goal=   None    Shift=    0.000
 GapD=    0.287 DampG=1.000 DampE=0.500 DampFc=0.5000 IDamp=-1.
 Damping current iteration by 5.00D-01
 RMSDP=2.37D-01 MaxDP=1.47D+01              OVMax= 4.92D-01

 Cycle   2  Pass 1  IDiag  1:
 E= -706.126261067599     Delta-E=        0.016709318690 Rises=F Damp=T
 DIIS: error= 2.05D-02 at cycle   2 NSaved=   2.
 NSaved= 2 IEnMin= 1 EnMin= -706.142970386289     IErMin= 2 ErrMin= 2.05D-02
 ErrMax= 2.05D-02  0.00D+00 EMaxC= 1.00D-01 BMatC= 8.37D-02 BMatP= 1.92D-01
 IDIUse=3 WtCom= 7.95D-01 WtEn= 2.05D-01
 Coeff-Com:  0.365D+00 0.635D+00
 Coeff-En:   0.531D+00 0.469D+00
 Coeff:      0.399D+00 0.601D+00
 Gap=     0.185 Goal=   None    Shift=    0.000
 RMSDP=1.20D-01 MaxDP=7.52D+00 DE= 1.67D-02 OVMax= 3.18D-01

 Cycle   3  Pass 1  IDiag  1:
 E= -706.281189216198     Delta-E=       -0.154928148599 Rises=F Damp=F
 DIIS: error= 1.77D-02 at cycle   3 NSaved=   3.
 NSaved= 3 IEnMin= 3 EnMin= -706.281189216198     IErMin= 3 ErrMin= 1.77D-02
 ErrMax= 1.77D-02  0.00D+00 EMaxC= 1.00D-01 BMatC= 6.09D-02 BMatP= 8.37D-02
 IDIUse=3 WtCom= 8.23D-01 WtEn= 1.77D-01
 Coeff-Com:  0.150D+00 0.427D+00 0.422D+00
 Coeff-En:   0.000D+00 0.285D-01 0.971D+00
 Coeff:      0.124D+00 0.357D+00 0.519D+00
 Gap=     0.169 Goal=   None    Shift=    0.000
 RMSDP=5.99D-03 MaxDP=1.39D-01 DE=-1.55D-01 OVMax= 1.17D-01

 Cycle   4  Pass 1  IDiag  1:
 E= -706.326606786406     Delta-E=       -0.045417570208 Rises=F Damp=F
 DIIS: error= 7.53D-03 at cycle   4 NSaved=   4.
 NSaved= 4 IEnMin= 4 EnMin= -706.326606786406     IErMin= 4 ErrMin= 7.53D-03
 ErrMax= 7.53D-03  0.00D+00 EMaxC= 1.00D-01 BMatC= 1.29D-02 BMatP= 6.09D-02
 IDIUse=3 WtCom= 9.25D-01 WtEn= 7.53D-02
 Coeff-Com:  0.306D-01 0.587D-01 0.312D+00 0.598D+00
 Coeff-En:   0.000D+00 0.000D+00 0.204D+00 0.796D+00
 Coeff:      0.283D-01 0.543D-01 0.304D+00 0.613D+00
 Gap=     0.158 Goal=   None    Shift=    0.000
 RMSDP=1.92D-03 MaxDP=4.49D-02 DE=-4.54D-02 OVMax= 4.71D-02

 Cycle   5  Pass 1  IDiag  1:
 E= -706.336336767716     Delta-E=       -0.009729981311 Rises=F Damp=F
 DIIS: error= 1.79D-03 at cycle   5 NSaved=   5.
 NSaved= 5 IEnMin= 5 EnMin= -706.336336767716     IErMin= 5 ErrMin= 1.79D-03
 ErrMax= 1.79D-03  0.00D+00 EMaxC= 1.00D-01 BMatC= 1.50D-03 BMatP= 1.29D-02
 IDIUse=3 WtCom= 9.82D-01 WtEn= 1.79D-02
 Coeff-Com:  0.814D-02-0.113D-02 0.168D+00 0.419D+00 0.406D+00
 Coeff-En:   0.000D+00 0.000D+00 0.000D+00 0.609D-01 0.939D+00
 Coeff:      0.799D-02-0.111D-02 0.165D+00 0.413D+00 0.416D+00
 Gap=     0.159 Goal=   None    Shift=    0.000
 RMSDP=4.12D-04 MaxDP=9.02D-03 DE=-9.73D-03 OVMax= 1.49D-02

 Cycle   6  Pass 1  IDiag  1:
 E= -706.337528445448     Delta-E=       -0.001191677732 Rises=F Damp=F
 DIIS: error= 6.14D-04 at cycle   6 NSaved=   6.
 NSaved= 6 IEnMin= 6 EnMin= -706.337528445448     IErMin= 6 ErrMin= 6.14D-04
 ErrMax= 6.14D-04  0.00D+00 EMaxC= 1.00D-01 BMatC= 1.76D-04 BMatP= 1.50D-03
 IDIUse=3 WtCom= 9.94D-01 WtEn= 6.14D-03
 Coeff-Com:  0.220D-02-0.124D-01 0.603D-01 0.170D+00 0.282D+00 0.499D+00
 Coeff-En:   0.000D+00 0.000D+00 0.000D+00 0.000D+00 0.112D+00 0.888D+00
 Coeff:      0.219D-02-0.124D-01 0.599D-01 0.169D+00 0.281D+00 0.501D+00
 Gap=     0.160 Goal=   None    Shift=    0.000
 RMSDP=3.68D-04 MaxDP=1.21D-02 DE=-1.19D-03 OVMax= 4.01D-03

 Cycle   7  Pass 1  IDiag  1:
 E= -706.337685445074     Delta-E=       -0.000156999626 Rises=F Damp=F
 DIIS: error= 1.77D-04 at cycle   7 NSaved=   7.
 NSaved= 7 IEnMin= 7 EnMin= -706.337685445074     IErMin= 7 ErrMin= 1.77D-04
 ErrMax= 1.77D-04  0.00D+00 EMaxC= 1.00D-01 BMatC= 9.01D-06 BMatP= 1.76D-04
 IDIUse=3 WtCom= 9.98D-01 WtEn= 1.77D-03
 Coeff-Com:  0.121D-02-0.548D-02 0.115D-01 0.293D-01 0.899D-01 0.238D+00
 Coeff-Com:  0.636D+00
 Coeff-En:   0.000D+00 0.000D+00 0.000D+00 0.000D+00 0.000D+00 0.000D+00
 Coeff-En:   0.100D+01
 Coeff:      0.120D-02-0.547D-02 0.115D-01 0.292D-01 0.897D-01 0.238D+00
 Coeff:      0.636D+00
 Gap=     0.160 Goal=   None    Shift=    0.000
 RMSDP=6.23D-05 MaxDP=2.56D-03 DE=-1.57D-04 OVMax= 1.18D-03

 Cycle   8  Pass 1  IDiag  1:
 E= -706.337693782364     Delta-E=       -0.000008337290 Rises=F Damp=F
 DIIS: error= 8.17D-05 at cycle   8 NSaved=   8.
 NSaved= 8 IEnMin= 8 EnMin= -706.337693782364     IErMin= 8 ErrMin= 8.17D-05
 ErrMax= 8.17D-05  0.00D+00 EMaxC= 1.00D-01 BMatC= 1.00D-06 BMatP= 9.01D-06
 IDIUse=1 WtCom= 1.00D+00 WtEn= 0.00D+00
 Coeff-Com:  0.762D-03-0.234D-02 0.139D-02 0.656D-03 0.198D-01 0.686D-01
 Coeff-Com:  0.285D+00 0.626D+00
 Coeff:      0.762D-03-0.234D-02 0.139D-02 0.656D-03 0.198D-01 0.686D-01
 Coeff:      0.285D+00 0.626D+00
 Gap=     0.160 Goal=   None    Shift=    0.000
 RMSDP=2.48D-05 MaxDP=9.82D-04 DE=-8.34D-06 OVMax= 3.47D-04

 Cycle   9  Pass 1  IDiag  1:
 E= -706.337694772684     Delta-E=       -0.000000990320 Rises=F Damp=F
 DIIS: error= 1.54D-05 at cycle   9 NSaved=   9.
 NSaved= 9 IEnMin= 9 EnMin= -706.337694772684     IErMin= 9 ErrMin= 1.54D-05
 ErrMax= 1.54D-05  0.00D+00 EMaxC= 1.00D-01 BMatC= 8.64D-08 BMatP= 1.00D-06
 IDIUse=1 WtCom= 1.00D+00 WtEn= 0.00D+00
 Coeff-Com:  0.331D-03-0.534D-03-0.379D-03-0.283D-02-0.253D-02 0.328D-03
 Coeff-Com:  0.418D-01 0.280D+00 0.684D+00
 Coeff:      0.331D-03-0.534D-03-0.379D-03-0.283D-02-0.253D-02 0.328D-03
 Coeff:      0.418D-01 0.280D+00 0.684D+00
 Gap=     0.160 Goal=   None    Shift=    0.000
 RMSDP=6.03D-06 MaxDP=1.64D-04 DE=-9.90D-07 OVMax= 8.78D-05

 Cycle  10  Pass 1  IDiag  1:
 E= -706.337694856565     Delta-E=       -0.000000083881 Rises=F Damp=F
 DIIS: error= 2.86D-06 at cycle  10 NSaved=  10.
 NSaved=10 IEnMin=10 EnMin= -706.337694856565     IErMin=10 ErrMin= 2.86D-06
 ErrMax= 2.86D-06  0.00D+00 EMaxC= 1.00D-01 BMatC= 1.67D-09 BMatP= 8.64D-08
 IDIUse=1 WtCom= 1.00D+00 WtEn= 0.00D+00
 Coeff-Com:  0.545D-04-0.474D-04-0.963D-04-0.561D-03-0.165D-02-0.234D-02
 Coeff-Com: -0.589D-02 0.341D-01 0.139D+00 0.838D+00
 Coeff:      0.545D-04-0.474D-04-0.963D-04-0.561D-03-0.165D-02-0.234D-02
 Coeff:     -0.589D-02 0.341D-01 0.139D+00 0.838D+00
 Gap=     0.160 Goal=   None    Shift=    0.000
 RMSDP=1.58D-06 MaxDP=6.70D-05 DE=-8.39D-08 OVMax= 2.91D-05

 Cycle  11  Pass 1  IDiag  1:
 E= -706.337694858293     Delta-E=       -0.000000001728 Rises=F Damp=F
 DIIS: error= 5.54D-07 at cycle  11 NSaved=  11.
 NSaved=11 IEnMin=11 EnMin= -706.337694858293     IErMin=11 ErrMin= 5.54D-07
 ErrMax= 5.54D-07  0.00D+00 EMaxC= 1.00D-01 BMatC= 1.34D-10 BMatP= 1.67D-09
 IDIUse=1 WtCom= 1.00D+00 WtEn= 0.00D+00
 Coeff-Com:  0.190D-05 0.923D-05 0.134D-05 0.524D-05-0.428D-03-0.616D-03
 Coeff-Com: -0.467D-02-0.336D-02 0.891D-02 0.308D+00 0.692D+00
 Coeff:      0.190D-05 0.923D-05 0.134D-05 0.524D-05-0.428D-03-0.616D-03
 Coeff:     -0.467D-02-0.336D-02 0.891D-02 0.308D+00 0.692D+00
 Gap=     0.160 Goal=   None    Shift=    0.000
 RMSDP=5.57D-07 MaxDP=1.69D-05 DE=-1.73D-09 OVMax= 7.46D-06

 Cycle  12  Pass 1  IDiag  1:
 E= -706.337694858450     Delta-E=       -0.000000000157 Rises=F Damp=F
 DIIS: error= 2.37D-07 at cycle  12 NSaved=  12.
 NSaved=12 IEnMin=12 EnMin= -706.337694858450     IErMin=12 ErrMin= 2.37D-07
 ErrMax= 2.37D-07  0.00D+00 EMaxC= 1.00D-01 BMatC= 1.20D-11 BMatP= 1.34D-10
 IDIUse=1 WtCom= 1.00D+00 WtEn= 0.00D+00
 Coeff-Com: -0.468D-05 0.891D-05 0.576D-05 0.430D-04-0.157D-04-0.138D-04
 Coeff-Com: -0.116D-02-0.371D-02-0.896D-02 0.392D-01 0.252D+00 0.722D+00
 Coeff:     -0.468D-05 0.891D-05 0.576D-05 0.430D-04-0.157D-04-0.138D-04
 Coeff:     -0.116D-02-0.371D-02-0.896D-02 0.392D-01 0.252D+00 0.722D+00
 Gap=     0.160 Goal=   None    Shift=    0.000
 RMSDP=1.35D-07 MaxDP=3.47D-06 DE=-1.57D-10 OVMax= 4.19D-06

 Cycle  13  Pass 1  IDiag  1:
 E= -706.337694858469     Delta-E=       -0.000000000019 Rises=F Damp=F
 DIIS: error= 4.97D-08 at cycle  13 NSaved=  13.
 NSaved=13 IEnMin=13 EnMin= -706.337694858469     IErMin=13 ErrMin= 4.97D-08
 ErrMax= 4.97D-08  0.00D+00 EMaxC= 1.00D-01 BMatC= 5.85D-13 BMatP= 1.20D-11
 IDIUse=1 WtCom= 1.00D+00 WtEn= 0.00D+00
 Coeff-Com: -0.749D-06 0.244D-06-0.134D-05-0.239D-06 0.353D-04 0.450D-04
 Coeff-Com:  0.385D-03 0.132D-03-0.150D-02-0.261D-01-0.688D-01 0.512D-01
 Coeff-Com:  0.104D+01
 Coeff:     -0.749D-06 0.244D-06-0.134D-05-0.239D-06 0.353D-04 0.450D-04
 Coeff:      0.385D-03 0.132D-03-0.150D-02-0.261D-01-0.688D-01 0.512D-01
 Coeff:      0.104D+01
 Gap=     0.160 Goal=   None    Shift=    0.000
 RMSDP=6.95D-08 MaxDP=3.39D-06 DE=-1.88D-11 OVMax= 2.41D-06

 Cycle  14  Pass 1  IDiag  1:
 E= -706.337694858472     Delta-E=       -0.000000000004 Rises=F Damp=F
 DIIS: error= 1.05D-08 at cycle  14 NSaved=  14.
 NSaved=14 IEnMin=14 EnMin= -706.337694858472     IErMin=14 ErrMin= 1.05D-08
 ErrMax= 1.05D-08  0.00D+00 EMaxC= 1.00D-01 BMatC= 2.40D-14 BMatP= 5.85D-13
 IDIUse=1 WtCom= 1.00D+00 WtEn= 0.00D+00
 Coeff-Com:  0.914D-07-0.249D-06-0.450D-06-0.989D-06 0.180D-05 0.303D-05
 Coeff-Com:  0.536D-04 0.121D-03 0.212D-03-0.254D-02-0.150D-01-0.261D-01
 Coeff-Com:  0.495D-01 0.994D+00
 Coeff:      0.914D-07-0.249D-06-0.450D-06-0.989D-06 0.180D-05 0.303D-05
 Coeff:      0.536D-04 0.121D-03 0.212D-03-0.254D-02-0.150D-01-0.261D-01
 Coeff:      0.495D-01 0.994D+00
 Gap=     0.160 Goal=   None    Shift=    0.000
 RMSDP=1.04D-08 MaxDP=4.80D-07 DE=-3.52D-12 OVMax= 4.05D-07

 Cycle  15  Pass 1  IDiag  1:
 E= -706.337694858471     Delta-E=        0.000000000001 Rises=F Damp=F
 DIIS: error= 2.53D-09 at cycle  15 NSaved=  15.
 NSaved=15 IEnMin=14 EnMin= -706.337694858472     IErMin=15 ErrMin= 2.53D-09
 ErrMax= 2.53D-09  0.00D+00 EMaxC= 1.00D-01 BMatC= 7.28D-16 BMatP= 2.40D-14
 IDIUse=1 WtCom= 1.00D+00 WtEn= 0.00D+00
 Coeff-Com:  0.381D-07-0.475D-07-0.579D-07-0.150D-06-0.811D-06-0.758D-06
 Coeff-Com: -0.434D-05 0.150D-04 0.981D-04 0.386D-03-0.490D-03-0.765D-02
 Coeff-Com: -0.284D-01 0.207D+00 0.829D+00
 Coeff:      0.381D-07-0.475D-07-0.579D-07-0.150D-06-0.811D-06-0.758D-06
 Coeff:     -0.434D-05 0.150D-04 0.981D-04 0.386D-03-0.490D-03-0.765D-02
 Coeff:     -0.284D-01 0.207D+00 0.829D+00
 Gap=     0.160 Goal=   None    Shift=    0.000
 RMSDP=2.18D-09 MaxDP=8.76D-08 DE= 9.09D-13 OVMax= 4.62D-08

 Error on total polarization charges =  0.02219
 SCF Done:  E(RB3LYP) =  -706.337694858     A.U. after   15 cycles
            NFock= 15  Conv=0.22D-08     -V/T= 2.0044
 KE= 7.032709684593D+02 PE=-2.186667866525D+03 EE= 5.231066283643D+02
 SMD-CDS (non-electrostatic) energy       (kcal/mol) =      -0.78
 (included in total energy above)
 Leave Link  502 at Wed Jan  8 01:00:15 2020, MaxMem=  4294967296 cpu:             454.6 elap:              34.1
 (Enter /home/cwagen/sw/g16/g16/l601.exe)
 Copying SCF densities to generalized density rwf, IOpCl= 0 IROHF=0.

 **********************************************************************

            Population analysis using the SCF density.

 **********************************************************************

 Orbital symmetries:
       Occupied  (A) (A) (A) (A) (A) (A) (A) (A) (A) (A) (A) (A)
                 (A) (A) (A) (A) (A) (A) (A) (A) (A) (A) (A) (A)
                 (A) (A) (A)
       Virtual   (A) (A) (A) (A) (A) (A) (A) (A) (A) (A) (A) (A)
                 (A) (A) (A) (A) (A) (A) (A) (A) (A) (A) (A) (A)
                 (A) (A) (A) (A) (A) (A) (A) (A) (A) (A) (A) (A)
                 (A) (A) (A) (A) (A) (A) (A) (A) (A) (A) (A) (A)
                 (A) (A) (A) (A) (A) (A) (A) (A) (A) (A) (A) (A)
                 (A) (A) (A) (A) (A) (A) (A) (A) (A) (A) (A) (A)
                 (A) (A) (A) (A) (A) (A) (A) (A) (A) (A) (A) (A)
                 (A) (A) (A) (A) (A) (A) (A) (A) (A) (A) (A) (A)
                 (A)
 The electronic state is 1-A.
 Alpha  occ. eigenvalues -- -101.46077 -19.11657 -14.32289 -10.26550 -10.20773
 Alpha  occ. eigenvalues --  -10.17493  -9.37451  -7.13513  -7.13079  -7.13071
 Alpha  occ. eigenvalues --   -1.01044  -0.89087  -0.77250  -0.71217  -0.66327
 Alpha  occ. eigenvalues --   -0.45770  -0.44660  -0.43525  -0.37842  -0.36631
 Alpha  occ. eigenvalues --   -0.36323  -0.30143  -0.29744  -0.25081  -0.24765
 Alpha  occ. eigenvalues --   -0.23940  -0.22948
 Alpha virt. eigenvalues --   -0.06936   0.02705   0.03845   0.05050   0.05584
 Alpha virt. eigenvalues --    0.06992   0.08250   0.09642   0.09956   0.10207
 Alpha virt. eigenvalues --    0.10683   0.11407   0.12370   0.13521   0.14099
 Alpha virt. eigenvalues --    0.14843   0.16652   0.17174   0.21225   0.22214
 Alpha virt. eigenvalues --    0.24486   0.25143   0.26271   0.26725   0.27714
 Alpha virt. eigenvalues --    0.28812   0.31036   0.33737   0.36197   0.37647
 Alpha virt. eigenvalues --    0.38156   0.41047   0.47956   0.55364   0.62648
 Alpha virt. eigenvalues --    0.66493   0.67823   0.69018   0.70695   0.72463
 Alpha virt. eigenvalues --    0.75536   0.77324   0.78199   0.82139   0.83831
 Alpha virt. eigenvalues --    0.87003   0.91937   0.94673   0.95009   0.96018
 Alpha virt. eigenvalues --    0.97064   1.01899   1.04337   1.04836   1.07265
 Alpha virt. eigenvalues --    1.11249   1.14610   1.15473   1.18476   1.25155
 Alpha virt. eigenvalues --    1.30376   1.33548   1.35923   1.42873   1.45365
 Alpha virt. eigenvalues --    1.50497   1.55826   1.61048   1.66367   1.71880
 Alpha virt. eigenvalues --    1.78978   1.83643   1.87378   1.92202   1.94281
 Alpha virt. eigenvalues --    1.98496   2.06513   2.11866   2.18395   2.23401
 Alpha virt. eigenvalues --    2.26045   2.35679   2.42272   2.53008   2.59946
 Alpha virt. eigenvalues --    2.76279   2.92851   3.00860   3.03714   3.22945
 Alpha virt. eigenvalues --    3.52149   4.16694   4.25378   4.37969   4.38876
 Alpha virt. eigenvalues --    4.56641   4.85533
          Condensed to atoms (all electrons):
               1          2          3          4          5          6
     1  C    9.095327   0.554947   0.001437  -0.155086  -0.144062   0.051548
     2  O    0.554947   8.356356  -0.176521   0.010225   0.004403  -0.011582
     3  C    0.001437  -0.176521   5.915055   0.374850   0.399712   0.366002
     4  H   -0.155086   0.010225   0.374850   0.483191  -0.020990  -0.029749
     5  H   -0.144062   0.004403   0.399712  -0.020990   0.476300  -0.022902
     6  H    0.051548  -0.011582   0.366002  -0.029749  -0.022902   0.465967
     7  Cl   0.002468  -0.044816  -0.122138   0.009032   0.001477   0.000771
     8  C   -3.707209  -0.152512  -0.064793   0.094669   0.073341  -0.065768
     9  N   -0.046503  -0.051112   0.025467  -0.001656  -0.000624  -0.001887
               7          8          9
     1  C    0.002468  -3.707209  -0.046503
     2  O   -0.044816  -0.152512  -0.051112
     3  C   -0.122138  -0.064793   0.025467
     4  H    0.009032   0.094669  -0.001656
     5  H    0.001477   0.073341  -0.000624
     6  H    0.000771  -0.065768  -0.001887
     7  Cl  17.662429   0.091491  -0.029745
     8  C    0.091491   9.136513   0.252984
     9  N   -0.029745   0.252984   7.478529
 Mulliken charges:
               1
     1  C    0.347134
     2  O   -0.489388
     3  C   -0.719069
     4  H    0.235515
     5  H    0.233347
     6  H    0.247599
     7  Cl  -0.570968
     8  C    0.341285
     9  N   -0.625453
 Sum of Mulliken charges =  -1.00000
 Mulliken charges with hydrogens summed into heavy atoms:
               1
     1  C    0.347134
     2  O   -0.489388
     3  C   -0.002608
     7  Cl  -0.570968
     8  C    0.341285
     9  N   -0.625453
 Electronic spatial extent (au):  <R**2>=            743.1484
 Charge=             -1.0000 electrons
 Dipole moment (field-independent basis, Debye):
    X=              2.2274    Y=              3.5214    Z=             -2.8892  Tot=              5.0704
 Quadrupole moment (field-independent basis, Debye-Ang):
   XX=            -62.9045   YY=            -52.0143   ZZ=            -50.7960
   XY=              5.0372   XZ=             -2.2938   YZ=             -4.2215
 Traceless Quadrupole moment (field-independent basis, Debye-Ang):
   XX=             -7.6662   YY=              3.2240   ZZ=              4.4423
   XY=              5.0372   XZ=             -2.2938   YZ=             -4.2215
 Octapole moment (field-independent basis, Debye-Ang**2):
  XXX=             15.5014  YYY=             18.1574  ZZZ=             -6.7347  XYY=            -10.7505
  XXY=             17.1434  XXZ=              2.3892  XZZ=             -2.6805  YZZ=             -0.8523
  YYZ=              1.6366  XYZ=             -4.8075
 Hexadecapole moment (field-independent basis, Debye-Ang**3):
 XXXX=           -654.2811 YYYY=           -308.5090 ZZZZ=           -191.9315 XXXY=             30.5745
 XXXZ=              3.3625 YYYX=             27.0457 YYYZ=             -7.2435 ZZZX=             -3.7900
 ZZZY=             -5.5905 XXYY=           -172.2555 XXZZ=           -136.6532 YYZZ=            -83.7825
 XXYZ=             -7.1637 YYXZ=              3.7732 ZZXY=              0.8058
 N-N= 2.539525748433D+02 E-N=-2.186667866603D+03  KE= 7.032709684593D+02
 No NMR shielding tensors so no spin-rotation constants.
 Leave Link  601 at Wed Jan  8 01:00:17 2020, MaxMem=  4294967296 cpu:              17.2 elap:               1.4
 (Enter /home/cwagen/sw/g16/g16/l701.exe)
 ... and contract with generalized density number  0.
 Compute integral first derivatives.
 D1PCM: PCM CHGder 1st derivatives, ID1Alg=3 FixD1E=F DoIter=F DoCFld=F I1PDM=0.
 GePol: Maximum number of non-zero 1st derivatives   =     375
 Leave Link  701 at Wed Jan  8 01:00:21 2020, MaxMem=  4294967296 cpu:              51.3 elap:               4.0
 (Enter /home/cwagen/sw/g16/g16/l702.exe)
 L702 exits ... SP integral derivatives will be done elsewhere.
 Leave Link  702 at Wed Jan  8 01:00:21 2020, MaxMem=  4294967296 cpu:               0.8 elap:               0.2
 (Enter /home/cwagen/sw/g16/g16/l703.exe)
 Integral derivatives from FoFJK, PRISM(SPDF).
 Compute integral first derivatives, UseDBF=F ICtDFT=           0.
 Calling FoFJK, ICntrl=      2127 FMM=F ISym2X=0 I1Cent= 0 IOpClX= 0 NMat=1 NMatS=1 NMatT=0.
 FoFJK:  IHMeth= 1 ICntrl=    2127 DoSepK=F KAlg= 0 I1Cent=           0 FoldK=F
 IRaf=         0 NMat=       1 IRICut=       1 DoRegI=T DoRafI=F ISym2E= 0 IDoP0=0 IntGTp=1.
 FoFCou: FMM=F IPFlag=           0 FMFlag=      100000 FMFlg1=         800
         NFxFlg=           0 DoJE=F BraDBF=F KetDBF=F FulRan=T
         wScrn=  0.000000 ICntrl=      2127 IOpCl=  0 I1Cent=           0 NGrid=           0
         NMat0=    1 NMatS0=      1 NMatT0=    0 NMatD0=    1 NMtDS0=    0 NMtDT0=    0
 Symmetry not used in FoFCou.
 Leave Link  703 at Wed Jan  8 01:00:23 2020, MaxMem=  4294967296 cpu:              31.4 elap:               2.3
 (Enter /home/cwagen/sw/g16/g16/l716.exe)
 Dipole        = 8.76310303D-01 1.38542782D+00-1.13668059D+00
 ***** Axes restored to original set *****
 -------------------------------------------------------------------
 Center     Atomic                   Forces (Hartrees/Bohr)
 Number     Number              X              Y              Z
 -------------------------------------------------------------------
      1        6          -0.250643696   -0.167010131   -0.078305678
      2        8          -0.034121318    0.014384751    0.007347616
      3        6          -0.043060905   -0.000330011    0.011544553
      4        1          -0.001102522    0.000404388   -0.001764177
      5        1           0.000399573   -0.003339833    0.003172299
      6        1           0.000507790    0.003401967   -0.002829754
      7       17           0.005294333   -0.008986268    0.000145430
      8        6           0.318493566    0.160484214    0.049592410
      9        7           0.004233179    0.000990923    0.011097301
 -------------------------------------------------------------------
 Cartesian Forces:  Max     0.318493566 RMS     0.092337651
 Leave Link  716 at Wed Jan  8 01:00:23 2020, MaxMem=  4294967296 cpu:               0.9 elap:               0.1
 (Enter /home/cwagen/sw/g16/g16/l103.exe)

 GradGradGradGradGradGradGradGradGradGradGradGradGradGradGradGradGradGrad
 Berny optimization.
 FormGI is forming the generalized inverse of G from B-inverse, IUseBI=4.
 Internal  Forces:  Max     0.363351829 RMS     0.067404441
 Search for a local minimum.
 Step number   1 out of a maximum of   41
 All quantities printed in internal units (Hartrees-Bohrs-Radians)
 RMS Force = .17341D-01 SwitMx=.10000D-02 MixMth= 1
 Mixed Optimization -- RFO/linear search
 Second derivative matrix not updated -- first step.
 ITU=  0
     Eigenvalues ---    0.00230   0.04746   0.04746   0.05330   0.05908
     Eigenvalues ---    0.07453   0.10176   0.16000   0.16000   0.16000
     Eigenvalues ---    0.25000   0.25000   0.25000   0.26946   0.33918
     Eigenvalues ---    0.33999   0.34275   0.67840   1.220341000.00000
     Eigenvalues --- 1000.000001000.000001000.000001000.000001000.00000
     Eigenvalues --- 1000.000001000.000001000.000001000.000001000.00000
     Eigenvalues --- 1000.00000
 RFO step:  Lambda=-4.97253169D-02 EMin= 2.30000000D-03
 Linear search not attempted -- first point.
 Maximum step size (   0.300) exceeded in Quadratic search.
    -- Step size scaled by   0.716
 Iteration  1 RMS(Cart)=  0.10541055 RMS(Int)=  0.00791483
 Iteration  2 RMS(Cart)=  0.00835024 RMS(Int)=  0.00434806
 Iteration  3 RMS(Cart)=  0.00006044 RMS(Int)=  0.00434796
 Iteration  4 RMS(Cart)=  0.00000050 RMS(Int)=  0.00434796
 Iteration  1 RMS(Cart)=  0.00000000 RMS(Int)=  0.00000000
 ITry= 1 IFail=0 DXMaxC= 3.14D-01 DCOld= 1.00D+10 DXMaxT= 3.00D-01 DXLimC= 3.00D+00 Rises=F
 Variable       Old X    -DE/DX   Delta X   Delta X   Delta X     New X
                                 (Linear)    (Quad)   (Total)
    R1        2.45227  -0.00957   0.00000  -0.00941  -0.00941   2.44286
    R2        2.94503   0.01051   0.00000   0.02358   0.02358   2.96861
    R3        4.53534  -0.00995   0.00000   0.00000   0.00000   4.53534
    R4        2.26767   0.36335   0.00000   0.00000   0.00000   2.26767
    R5        2.07331  -0.00171   0.00000  -0.00314  -0.00314   2.07017
    R6        2.07468   0.00061   0.00000   0.00113   0.00113   2.07581
    R7        2.06868  -0.00203   0.00000  -0.00371  -0.00371   2.06497
    R8        2.20923   0.00463   0.00000   0.00261   0.00261   2.21184
    A1        1.99667   0.01293   0.00000   0.03218   0.02111   2.01778
    A2        2.01908  -0.00942   0.00000  -0.06977  -0.07390   1.94517
    A3        1.89239   0.00133   0.00000   0.08565   0.07118   1.96357
    A4        1.92419  -0.02886   0.00000  -0.10630  -0.10570   1.81849
    A5        1.77194   0.05719   0.00000   0.17117   0.16404   1.93598
    A6        1.83479  -0.02655   0.00000  -0.08174  -0.07465   1.76013
    A7        1.97398  -0.00127   0.00000  -0.00472  -0.00484   1.96914
    A8        1.87942   0.00792   0.00000   0.02911   0.02918   1.90860
    A9        1.90140  -0.00656   0.00000  -0.02416  -0.02415   1.87725
   A10        1.90356  -0.00253   0.00000  -0.00549  -0.00555   1.89802
   A11        1.90837   0.00295   0.00000   0.00633   0.00616   1.91453
   A12        1.89554  -0.00043   0.00000  -0.00071  -0.00050   1.89504
   A13        3.10280  -0.00653   0.00000  -0.04814  -0.04814   3.05467
   A14        2.93645   0.02109   0.00000   0.15542   0.15542   3.09187
    D1        3.04510   0.02298   0.00000   0.12679   0.12912  -3.10896
    D2       -1.13357   0.02442   0.00000   0.13688   0.13925  -0.99432
    D3        0.91915   0.02476   0.00000   0.13914   0.14133   1.06048
    D4       -0.92685  -0.00612   0.00000  -0.04464  -0.04145  -0.96830
    D5        1.17766  -0.00467   0.00000  -0.03456  -0.03132   1.14634
    D6       -3.05280  -0.00434   0.00000  -0.03230  -0.02924  -3.08204
    D7        1.01121  -0.01930   0.00000  -0.09384  -0.09927   0.91194
    D8        3.11572  -0.01785   0.00000  -0.08375  -0.08914   3.02658
    D9       -1.11475  -0.01752   0.00000  -0.08149  -0.08706  -1.20180
         Item               Value     Threshold  Converged?
 Maximum Force            0.057186     0.000450     NO 
 RMS     Force            0.017341     0.000300     NO 
 Maximum Displacement     0.313897     0.001800     NO 
 RMS     Displacement     0.103628     0.001200     NO 
 Predicted change in Energy=-2.749799D-02
 Lowest energy point so far.  Saving SCF results.
 GradGradGradGradGradGradGradGradGradGradGradGradGradGradGradGradGradGrad

 Leave Link  103 at Wed Jan  8 01:00:28 2020, MaxMem=  4294967296 cpu:              55.3 elap:               4.4
 (Enter /home/cwagen/sw/g16/g16/l202.exe)
                          Input orientation:                          
 ---------------------------------------------------------------------
 Center     Atomic      Atomic             Coordinates (Angstroms)
 Number     Number       Type             X           Y           Z
 ---------------------------------------------------------------------
      1          6           0       -0.102835   -0.349446   -0.239391
      2          8           0       -0.309299   -0.685245   -1.470531
      3          6           0       -0.361975   -1.476010    0.824322
      4          1           0       -0.204908   -1.133437    1.852946
      5          1           0       -1.394333   -1.838414    0.726643
      6          1           0        0.319131   -2.301343    0.602992
      7         17           0       -1.550070    1.441921    0.436266
      8          6           0        0.973318    0.155504   -0.075320
      9          7           0        2.066352    0.543990    0.080646
 ---------------------------------------------------------------------
                    Distance matrix (angstroms):
                    1          2          3          4          5
     1  C    0.000000
     2  O    1.292707   0.000000
     3  C    1.570918   2.427845   0.000000
     4  H    2.236725   3.355186   1.095488   0.000000
     5  H    2.195043   2.708260   1.098473   1.783335   0.000000
     6  H    2.167387   2.702998   1.092733   1.789136   1.779200
     7  Cl   2.400000   3.114518   3.174347   3.232478   3.296843
     8  C    1.200000   2.073301   2.292204   2.601498   3.197597
     9  N    2.367705   3.092069   3.245031   3.333681   4.250824
                    6          7          8          9
     6  H    0.000000
     7  Cl   4.187330   0.000000
     8  C    2.631380   2.878208   0.000000
     9  N    3.379578   3.743161   1.170457   0.000000
 Stoichiometry    C3H3ClNO(1-)
 Framework group  C1[X(C3H3ClNO)]
 Deg. of freedom    21
 Full point group                 C1      NOp   1
 RotChk:  IX=0 Diff= 8.82D-02
 Largest Abelian subgroup         C1      NOp   1
 Largest concise Abelian subgroup C1      NOp   1
                         Standard orientation:                         
 ---------------------------------------------------------------------
 Center     Atomic      Atomic             Coordinates (Angstroms)
 Number     Number       Type             X           Y           Z
 ---------------------------------------------------------------------
      1          6           0        0.442947    0.319711    0.208013
      2          8           0        0.692607    0.720879    1.411270
      3          6           0        0.699757    1.375291   -0.926705
      4          1           0        0.442970    0.999129   -1.923026
      5          1           0        0.105864    2.277316   -0.725996
      6          1           0        1.759031    1.641798   -0.895425
      7         17           0       -1.866252   -0.278370   -0.056370
      8          6           0        0.977283   -0.723709   -0.048424
      9          7           0        1.593947   -1.682963   -0.312105
 ---------------------------------------------------------------------
 Rotational constants (GHZ):           3.6471610           2.1372096           1.8165377
 Leave Link  202 at Wed Jan  8 01:00:28 2020, MaxMem=  4294967296 cpu:               1.4 elap:               0.2
 (Enter /home/cwagen/sw/g16/g16/l301.exe)
 Standard basis: 6-31+G(d) (6D, 7F)
 Ernie: Thresh=  0.10000D-02 Tol=  0.10000D-05 Strict=F.
 There are   124 symmetry adapted cartesian basis functions of A   symmetry.
 There are   124 symmetry adapted basis functions of A   symmetry.
   124 basis functions,   228 primitive gaussians,   124 cartesian basis functions
    27 alpha electrons       27 beta electrons
       nuclear repulsion energy       254.1269777252 Hartrees.
 IExCor=  402 DFT=T Ex+Corr=B3LYP ExCW=0 ScaHFX=  0.200000
 ScaDFX=  0.800000  0.720000  1.000000  0.810000 ScalE2=  1.000000  1.000000
 IRadAn=      5 IRanWt=     -1 IRanGd=            0 ICorTp=0 IEmpDi=  4
 NAtoms=    9 NActive=    9 NUniq=    9 SFac= 1.00D+00 NAtFMM=   60 NAOKFM=F Big=F
 Integral buffers will be    131072 words long.
 Raffenetti 2 integral format.
 Two-electron integral symmetry is turned on.
 ------------------------------------------------------------------------------
 Polarizable Continuum Model (PCM)
 =================================
 Model                : PCM.
 Atomic radii         : SMD-Coulomb.
 Polarization charges : Total charges.
 Charge compensation  : None.
 Solution method      : On-the-fly selection.
 Cavity type          : VdW (van der Waals Surface) (Alpha=1.000).
 Cavity algorithm     : GePol (No added spheres)
                        Default sphere list used, NSphG=    9.
                        Lebedev-Laikov grids with approx.  5.0 points / Ang**2.
                        Smoothing algorithm: York/Karplus (Gamma=1.0000).
                        Polarization charges: spherical gaussians, with
                                              point-specific exponents (IZeta= 3).
                        Self-potential: point-specific (ISelfS= 7).
                        Self-field    : sphere-specific E.n sum rule (ISelfD= 2).
 1st derivatives      : Analytical E(r).r(x)/FMM algorithm (CHGder, D1EAlg=3).
                        Cavity 1st derivative terms included.
 Solvent              : TetraHydroFuran, Eps=   7.425700 Eps(inf)=   1.974025
 ------------------------------------------------------------------------------
 Spheres list:
 ISph  on   Nord     Re0    Alpha      Xe            Ye            Ze
    1   C      1    1.8500  1.000      0.442947      0.319711      0.208013
    2   O      2    2.2940  1.000      0.692607      0.720879      1.411270
    3   C      3    1.8500  1.000      0.699757      1.375291     -0.926705
    4   H      4    1.2000  1.000      0.442970      0.999129     -1.923026
    5   H      5    1.2000  1.000      0.105864      2.277316     -0.725996
    6   H      6    1.2000  1.000      1.759031      1.641798     -0.895425
    7  Cl      7    2.3800  1.000     -1.866252     -0.278370     -0.056370
    8   C      8    1.8500  1.000      0.977283     -0.723709     -0.048424
    9   N      9    1.8900  1.000      1.593947     -1.682963     -0.312105
 ------------------------------------------------------------------------------
 GePol: Number of generator spheres                  =       9
 GePol: Total number of spheres                      =       9
 GePol: Number of exposed spheres                    =       9 (100.00%)
 GePol: Number of points                             =    1148
 GePol: Average weight of points                     =       0.14
 GePol: Minimum weight of points                     =   0.13D-08
 GePol: Maximum weight of points                     =    0.18138
 GePol: Number of points with low weight             =      33
 GePol: Fraction of low-weight points (<1% of avg)   =       2.87%
 GePol: Cavity surface area                          =    156.883 Ang**2
 GePol: Cavity volume                                =    143.859 Ang**3
 ------------------------------------------------------------------------------
 Atomic radii for non-electrostatic terms: SMD-CDS.
 ------------------------------------------------------------------------------
 PCM non-electrostatic energy =        -0.0012723371 Hartrees.
 Nuclear repulsion after PCM non-electrostatic terms =      254.1257053882 Hartrees.
 Leave Link  301 at Wed Jan  8 01:00:28 2020, MaxMem=  4294967296 cpu:               2.0 elap:               0.2
 (Enter /home/cwagen/sw/g16/g16/l302.exe)
 NPDir=0 NMtPBC=     1 NCelOv=     1 NCel=       1 NClECP=     1 NCelD=      1
         NCelK=      1 NCelE2=     1 NClLst=     1 CellRange=     0.0.
 One-electron integrals computed using PRISM.
 One-electron integral symmetry used in STVInt
 NBasis=   124 RedAO= T EigKep=  1.42D-05  NBF=   124
 NBsUse=   124 1.00D-06 EigRej= -1.00D+00 NBFU=   124
 Precomputing XC quadrature grid using
 IXCGrd= 4 IRadAn=           5 IRanWt=          -1 IRanGd=           0 AccXCQ= 0.00D+00.
 Generated NRdTot=       0 NPtTot=           0 NUsed=           0 NTot=          32
 NSgBfM=   124   124   124   124   124 MxSgAt=     9 MxSgA2=     9.
 Leave Link  302 at Wed Jan  8 01:00:30 2020, MaxMem=  4294967296 cpu:              22.4 elap:               1.7
 (Enter /home/cwagen/sw/g16/g16/l303.exe)
 DipDrv:  MaxL=1.
 Leave Link  303 at Wed Jan  8 01:00:30 2020, MaxMem=  4294967296 cpu:               2.3 elap:               0.2
 (Enter /home/cwagen/sw/g16/g16/l401.exe)
 Initial guess from the checkpoint file:  "/scratch/users/cwagen/cwagen_scan_240_120/Gau-52369.chk"
 B after Tr=     0.000000    0.000000    0.000000
         Rot=    0.999685    0.021779   -0.006986   -0.010307 Ang=   2.88 deg.
 Guess basis will be translated and rotated to current coordinates.
 JPrj=2 DoOrth=T DoCkMO=T.
 Generating alternative initial guess.
 ExpMin= 4.38D-02 ExpMax= 2.52D+04 ExpMxC= 3.78D+03 IAcc=2 IRadAn=         4 AccDes= 0.00D+00
 Harris functional with IExCor=  402 and IRadAn=       4 diagonalized for initial guess.
 HarFok:  IExCor=  402 AccDes= 0.00D+00 IRadAn=         4 IDoV= 1 UseB2=F ITyADJ=14
 ICtDFT=  3500011 ScaDFX=  1.000000  1.000000  1.000000  1.000000
 FoFCou: FMM=F IPFlag=           0 FMFlag=      100000 FMFlg1=           0
         NFxFlg=           0 DoJE=T BraDBF=F KetDBF=T FulRan=T
         wScrn=  0.000000 ICntrl=       500 IOpCl=  0 I1Cent=   200000004 NGrid=           0
         NMat0=    1 NMatS0=      1 NMatT0=    0 NMatD0=    1 NMtDS0=    0 NMtDT0=    0
 Petite list used in FoFCou.
 Harris En= -706.352788429205    
 Leave Link  401 at Wed Jan  8 01:00:33 2020, MaxMem=  4294967296 cpu:              34.8 elap:               2.6
 (Enter /home/cwagen/sw/g16/g16/l502.exe)
 Keep R1 ints in memory in canonical form, NReq=45236517.
 FoFCou: FMM=F IPFlag=           0 FMFlag=           0 FMFlg1=           0
         NFxFlg=           0 DoJE=F BraDBF=F KetDBF=F FulRan=T
         wScrn=  0.000000 ICntrl=       600 IOpCl=  0 I1Cent=           0 NGrid=           0
         NMat0=    1 NMatS0=   7750 NMatT0=    0 NMatD0=    1 NMtDS0=    0 NMtDT0=    0
 Symmetry not used in FoFCou.
 Two-electron integral symmetry not used.
 Closed shell SCF:
 Using DIIS extrapolation, IDIIS=  1040.
 NGot=  4294967296 LenX=  4264898079 LenY=  4264882262
 Requested convergence on RMS density matrix=1.00D-08 within 128 cycles.
 Requested convergence on MAX density matrix=1.00D-06.
 Requested convergence on             energy=1.00D-06.
 No special actions if energy rises.

 Cycle   1  Pass 1  IDiag  1:
 Inv3:  Mode=1 IEnd=     3953712.
 Iteration    1 A*A^-1 deviation from unit magnitude is 3.44D-15 for   1146.
 Iteration    1 A*A^-1 deviation from orthogonality  is 1.20D-15 for   1145    981.
 Iteration    1 A^-1*A deviation from unit magnitude is 3.44D-15 for   1146.
 Iteration    1 A^-1*A deviation from orthogonality  is 1.69D-15 for    294     93.
 E= -706.332048010001    
 DIIS: error= 8.68D-03 at cycle   1 NSaved=   1.
 NSaved= 1 IEnMin= 1 EnMin= -706.332048010001     IErMin= 1 ErrMin= 8.68D-03
 ErrMax= 8.68D-03  0.00D+00 EMaxC= 1.00D-01 BMatC= 1.94D-02 BMatP= 1.94D-02
 IDIUse=3 WtCom= 9.13D-01 WtEn= 8.68D-02
 Coeff-Com:  0.100D+01
 Coeff-En:   0.100D+01
 Coeff:      0.100D+01
 Gap=     0.556 Goal=   None    Shift=    0.000
 GapD=    0.556 DampG=2.000 DampE=1.000 DampFc=2.0000 IDamp=-1.
 RMSDP=5.41D-03 MaxDP=1.28D-01              OVMax= 6.39D-02

 Cycle   2  Pass 1  IDiag  1:
 E= -706.361770175349     Delta-E=       -0.029722165348 Rises=F Damp=F
 DIIS: error= 1.12D-03 at cycle   2 NSaved=   2.
 NSaved= 2 IEnMin= 2 EnMin= -706.361770175349     IErMin= 2 ErrMin= 1.12D-03
 ErrMax= 1.12D-03  0.00D+00 EMaxC= 1.00D-01 BMatC= 4.78D-04 BMatP= 1.94D-02
 IDIUse=3 WtCom= 9.89D-01 WtEn= 1.12D-02
 Coeff-Com: -0.307D-01 0.103D+01
 Coeff-En:   0.000D+00 0.100D+01
 Coeff:     -0.304D-01 0.103D+01
 Gap=     0.165 Goal=   None    Shift=    0.000
 RMSDP=8.33D-04 MaxDP=1.99D-02 DE=-2.97D-02 OVMax= 1.69D-02

 Cycle   3  Pass 1  IDiag  1:
 E= -706.360924993042     Delta-E=        0.000845182307 Rises=F Damp=F
 DIIS: error= 1.95D-03 at cycle   3 NSaved=   3.
 NSaved= 3 IEnMin= 2 EnMin= -706.361770175349     IErMin= 2 ErrMin= 1.12D-03
 ErrMax= 1.95D-03  0.00D+00 EMaxC= 1.00D-01 BMatC= 1.62D-03 BMatP= 4.78D-04
 IDIUse=3 WtCom= 1.85D-01 WtEn= 8.15D-01
 Coeff-Com: -0.378D-01 0.703D+00 0.335D+00
 Coeff-En:   0.000D+00 0.717D+00 0.283D+00
 Coeff:     -0.698D-02 0.714D+00 0.293D+00
 Gap=     0.167 Goal=   None    Shift=    0.000
 RMSDP=4.88D-04 MaxDP=1.23D-02 DE= 8.45D-04 OVMax= 1.30D-02

 Cycle   4  Pass 1  IDiag  1:
 E= -706.362347472763     Delta-E=       -0.001422479721 Rises=F Damp=F
 DIIS: error= 2.82D-04 at cycle   4 NSaved=   4.
 NSaved= 4 IEnMin= 4 EnMin= -706.362347472763     IErMin= 4 ErrMin= 2.82D-04
 ErrMax= 2.82D-04  0.00D+00 EMaxC= 1.00D-01 BMatC= 2.38D-05 BMatP= 4.78D-04
 IDIUse=3 WtCom= 9.97D-01 WtEn= 2.82D-03
 Coeff-Com: -0.142D-01 0.175D+00 0.123D+00 0.716D+00
 Coeff-En:   0.000D+00 0.000D+00 0.000D+00 0.100D+01
 Coeff:     -0.141D-01 0.174D+00 0.123D+00 0.717D+00
 Gap=     0.166 Goal=   None    Shift=    0.000
 RMSDP=1.48D-04 MaxDP=3.84D-03 DE=-1.42D-03 OVMax= 1.86D-03

 Cycle   5  Pass 1  IDiag  1:
 E= -706.362360678393     Delta-E=       -0.000013205630 Rises=F Damp=F
 DIIS: error= 2.33D-04 at cycle   5 NSaved=   5.
 NSaved= 5 IEnMin= 5 EnMin= -706.362360678393     IErMin= 5 ErrMin= 2.33D-04
 ErrMax= 2.33D-04  0.00D+00 EMaxC= 1.00D-01 BMatC= 1.34D-05 BMatP= 2.38D-05
 IDIUse=3 WtCom= 9.98D-01 WtEn= 2.33D-03
 Coeff-Com: -0.622D-02 0.630D-01 0.580D-01 0.469D+00 0.416D+00
 Coeff-En:   0.000D+00 0.000D+00 0.000D+00 0.287D+00 0.713D+00
 Coeff:     -0.621D-02 0.628D-01 0.579D-01 0.469D+00 0.416D+00
 Gap=     0.166 Goal=   None    Shift=    0.000
 RMSDP=6.47D-05 MaxDP=1.89D-03 DE=-1.32D-05 OVMax= 1.46D-03

 Cycle   6  Pass 1  IDiag  1:
 E= -706.362369703772     Delta-E=       -0.000009025380 Rises=F Damp=F
 DIIS: error= 9.91D-05 at cycle   6 NSaved=   6.
 NSaved= 6 IEnMin= 6 EnMin= -706.362369703772     IErMin= 6 ErrMin= 9.91D-05
 ErrMax= 9.91D-05  0.00D+00 EMaxC= 1.00D-01 BMatC= 2.31D-06 BMatP= 1.34D-05
 IDIUse=1 WtCom= 1.00D+00 WtEn= 0.00D+00
 Coeff-Com: -0.529D-03-0.546D-02 0.820D-02 0.149D+00 0.304D+00 0.544D+00
 Coeff:     -0.529D-03-0.546D-02 0.820D-02 0.149D+00 0.304D+00 0.544D+00
 Gap=     0.166 Goal=   None    Shift=    0.000
 RMSDP=2.23D-05 MaxDP=4.33D-04 DE=-9.03D-06 OVMax= 6.22D-04

 Cycle   7  Pass 1  IDiag  1:
 E= -706.362371558718     Delta-E=       -0.000001854946 Rises=F Damp=F
 DIIS: error= 1.92D-05 at cycle   7 NSaved=   7.
 NSaved= 7 IEnMin= 7 EnMin= -706.362371558718     IErMin= 7 ErrMin= 1.92D-05
 ErrMax= 1.92D-05  0.00D+00 EMaxC= 1.00D-01 BMatC= 1.39D-07 BMatP= 2.31D-06
 IDIUse=1 WtCom= 1.00D+00 WtEn= 0.00D+00
 Coeff-Com:  0.446D-03-0.118D-01-0.259D-02 0.270D-01 0.117D+00 0.294D+00
 Coeff-Com:  0.577D+00
 Coeff:      0.446D-03-0.118D-01-0.259D-02 0.270D-01 0.117D+00 0.294D+00
 Coeff:      0.577D+00
 Gap=     0.166 Goal=   None    Shift=    0.000
 RMSDP=1.09D-05 MaxDP=3.48D-04 DE=-1.85D-06 OVMax= 1.76D-04

 Cycle   8  Pass 1  IDiag  1:
 E= -706.362371699963     Delta-E=       -0.000000141245 Rises=F Damp=F
 DIIS: error= 3.91D-06 at cycle   8 NSaved=   8.
 NSaved= 8 IEnMin= 8 EnMin= -706.362371699963     IErMin= 8 ErrMin= 3.91D-06
 ErrMax= 3.91D-06  0.00D+00 EMaxC= 1.00D-01 BMatC= 5.64D-09 BMatP= 1.39D-07
 IDIUse=1 WtCom= 1.00D+00 WtEn= 0.00D+00
 Coeff-Com:  0.223D-03-0.455D-02-0.140D-02 0.120D-02 0.285D-01 0.784D-01
 Coeff-Com:  0.230D+00 0.668D+00
 Coeff:      0.223D-03-0.455D-02-0.140D-02 0.120D-02 0.285D-01 0.784D-01
 Coeff:      0.230D+00 0.668D+00
 Gap=     0.166 Goal=   None    Shift=    0.000
 RMSDP=2.30D-06 MaxDP=4.63D-05 DE=-1.41D-07 OVMax= 7.46D-05

 Cycle   9  Pass 1  IDiag  1:
 E= -706.362371707397     Delta-E=       -0.000000007434 Rises=F Damp=F
 DIIS: error= 1.91D-06 at cycle   9 NSaved=   9.
 NSaved= 9 IEnMin= 9 EnMin= -706.362371707397     IErMin= 9 ErrMin= 1.91D-06
 ErrMax= 1.91D-06  0.00D+00 EMaxC= 1.00D-01 BMatC= 1.02D-09 BMatP= 5.64D-09
 IDIUse=1 WtCom= 1.00D+00 WtEn= 0.00D+00
 Coeff-Com:  0.338D-04-0.260D-03-0.154D-03-0.360D-02-0.455D-02-0.910D-02
 Coeff-Com:  0.182D-01 0.320D+00 0.679D+00
 Coeff:      0.338D-04-0.260D-03-0.154D-03-0.360D-02-0.455D-02-0.910D-02
 Coeff:      0.182D-01 0.320D+00 0.679D+00
 Gap=     0.166 Goal=   None    Shift=    0.000
 RMSDP=8.96D-07 MaxDP=2.15D-05 DE=-7.43D-09 OVMax= 2.46D-05

 Cycle  10  Pass 1  IDiag  1:
 E= -706.362371709020     Delta-E=       -0.000000001623 Rises=F Damp=F
 DIIS: error= 6.31D-07 at cycle  10 NSaved=  10.
 NSaved=10 IEnMin=10 EnMin= -706.362371709020     IErMin=10 ErrMin= 6.31D-07
 ErrMax= 6.31D-07  0.00D+00 EMaxC= 1.00D-01 BMatC= 8.70D-11 BMatP= 1.02D-09
 IDIUse=1 WtCom= 1.00D+00 WtEn= 0.00D+00
 Coeff-Com: -0.101D-04 0.397D-03 0.111D-03-0.151D-02-0.470D-02-0.118D-01
 Coeff-Com: -0.159D-01 0.514D-01 0.273D+00 0.709D+00
 Coeff:     -0.101D-04 0.397D-03 0.111D-03-0.151D-02-0.470D-02-0.118D-01
 Coeff:     -0.159D-01 0.514D-01 0.273D+00 0.709D+00
 Gap=     0.166 Goal=   None    Shift=    0.000
 RMSDP=3.52D-07 MaxDP=8.58D-06 DE=-1.62D-09 OVMax= 1.23D-05

 Cycle  11  Pass 1  IDiag  1:
 E= -706.362371709175     Delta-E=       -0.000000000155 Rises=F Damp=F
 DIIS: error= 1.59D-07 at cycle  11 NSaved=  11.
 NSaved=11 IEnMin=11 EnMin= -706.362371709175     IErMin=11 ErrMin= 1.59D-07
 ErrMax= 1.59D-07  0.00D+00 EMaxC= 1.00D-01 BMatC= 1.08D-11 BMatP= 8.70D-11
 IDIUse=1 WtCom= 1.00D+00 WtEn= 0.00D+00
 Coeff-Com: -0.738D-05 0.173D-03 0.566D-04-0.141D-03-0.120D-02-0.301D-02
 Coeff-Com: -0.749D-02-0.220D-01 0.192D-01 0.283D+00 0.731D+00
 Coeff:     -0.738D-05 0.173D-03 0.566D-04-0.141D-03-0.120D-02-0.301D-02
 Coeff:     -0.749D-02-0.220D-01 0.192D-01 0.283D+00 0.731D+00
 Gap=     0.166 Goal=   None    Shift=    0.000
 RMSDP=1.07D-07 MaxDP=2.99D-06 DE=-1.55D-10 OVMax= 3.36D-06

 Cycle  12  Pass 1  IDiag  1:
 E= -706.362371709195     Delta-E=       -0.000000000020 Rises=F Damp=F
 DIIS: error= 4.59D-08 at cycle  12 NSaved=  12.
 NSaved=12 IEnMin=12 EnMin= -706.362371709195     IErMin=12 ErrMin= 4.59D-08
 ErrMax= 4.59D-08  0.00D+00 EMaxC= 1.00D-01 BMatC= 7.74D-13 BMatP= 1.08D-11
 IDIUse=1 WtCom= 1.00D+00 WtEn= 0.00D+00
 Coeff-Com: -0.118D-05 0.106D-04 0.562D-05 0.871D-04 0.121D-03 0.258D-03
 Coeff-Com: -0.495D-03-0.127D-01-0.230D-01 0.179D-01 0.233D+00 0.784D+00
 Coeff:     -0.118D-05 0.106D-04 0.562D-05 0.871D-04 0.121D-03 0.258D-03
 Coeff:     -0.495D-03-0.127D-01-0.230D-01 0.179D-01 0.233D+00 0.784D+00
 Gap=     0.166 Goal=   None    Shift=    0.000
 RMSDP=5.01D-08 MaxDP=1.80D-06 DE=-1.98D-11 OVMax= 1.16D-06

 Cycle  13  Pass 1  IDiag  1:
 E= -706.362371709196     Delta-E=       -0.000000000001 Rises=F Damp=F
 DIIS: error= 1.47D-08 at cycle  13 NSaved=  13.
 NSaved=13 IEnMin=13 EnMin= -706.362371709196     IErMin=13 ErrMin= 1.47D-08
 ErrMax= 1.47D-08  0.00D+00 EMaxC= 1.00D-01 BMatC= 7.83D-14 BMatP= 7.74D-13
 IDIUse=1 WtCom= 1.00D+00 WtEn= 0.00D+00
 Coeff-Com:  0.134D-06-0.103D-04-0.248D-05 0.473D-04 0.160D-03 0.353D-03
 Coeff-Com:  0.466D-03-0.368D-02-0.116D-01-0.157D-01 0.379D-01 0.308D+00
 Coeff-Com:  0.684D+00
 Coeff:      0.134D-06-0.103D-04-0.248D-05 0.473D-04 0.160D-03 0.353D-03
 Coeff:      0.466D-03-0.368D-02-0.116D-01-0.157D-01 0.379D-01 0.308D+00
 Coeff:      0.684D+00
 Gap=     0.166 Goal=   None    Shift=    0.000
 RMSDP=8.48D-09 MaxDP=3.38D-07 DE=-1.36D-12 OVMax= 2.43D-07

 Error on total polarization charges =  0.02226
 SCF Done:  E(RB3LYP) =  -706.362371709     A.U. after   13 cycles
            NFock= 13  Conv=0.85D-08     -V/T= 2.0045
 KE= 7.032241220666D+02 PE=-2.187082986239D+03 EE= 5.233707870751D+02
 SMD-CDS (non-electrostatic) energy       (kcal/mol) =      -0.80
 (included in total energy above)
 Leave Link  502 at Wed Jan  8 01:01:04 2020, MaxMem=  4294967296 cpu:             417.4 elap:              31.1
 (Enter /home/cwagen/sw/g16/g16/l701.exe)
 ... and contract with generalized density number  0.
 Compute integral first derivatives.
 D1PCM: PCM CHGder 1st derivatives, ID1Alg=3 FixD1E=F DoIter=F DoCFld=F I1PDM=0.
 GePol: Maximum number of non-zero 1st derivatives   =     376
 Leave Link  701 at Wed Jan  8 01:01:08 2020, MaxMem=  4294967296 cpu:              50.6 elap:               4.1
 (Enter /home/cwagen/sw/g16/g16/l702.exe)
 L702 exits ... SP integral derivatives will be done elsewhere.
 Leave Link  702 at Wed Jan  8 01:01:08 2020, MaxMem=  4294967296 cpu:               0.7 elap:               0.2
 (Enter /home/cwagen/sw/g16/g16/l703.exe)
 Integral derivatives from FoFJK, PRISM(SPDF).
 Compute integral first derivatives, UseDBF=F ICtDFT=           0.
 Calling FoFJK, ICntrl=      2127 FMM=F ISym2X=0 I1Cent= 0 IOpClX= 0 NMat=1 NMatS=1 NMatT=0.
 FoFJK:  IHMeth= 1 ICntrl=    2127 DoSepK=F KAlg= 0 I1Cent=           0 FoldK=F
 IRaf=         0 NMat=       1 IRICut=       1 DoRegI=T DoRafI=F ISym2E= 0 IDoP0=0 IntGTp=1.
 FoFCou: FMM=F IPFlag=           0 FMFlag=      100000 FMFlg1=         800
         NFxFlg=           0 DoJE=F BraDBF=F KetDBF=F FulRan=T
         wScrn=  0.000000 ICntrl=      2127 IOpCl=  0 I1Cent=           0 NGrid=           0
         NMat0=    1 NMatS0=      1 NMatT0=    0 NMatD0=    1 NMtDS0=    0 NMtDT0=    0
 Symmetry not used in FoFCou.
 Leave Link  703 at Wed Jan  8 01:01:11 2020, MaxMem=  4294967296 cpu:              31.6 elap:               2.5
 (Enter /home/cwagen/sw/g16/g16/l716.exe)
 Dipole        = 1.09720671D+00 1.31581846D+00-1.14289096D+00
 ***** Axes restored to original set *****
 -------------------------------------------------------------------
 Center     Atomic                   Forces (Hartrees/Bohr)
 Number     Number              X              Y              Z
 -------------------------------------------------------------------
      1        6          -0.272198027   -0.194368980   -0.070107122
      2        8          -0.015545526    0.011264223    0.014971381
      3        6          -0.022115515    0.013418681    0.001838189
      4        1           0.000599459    0.000345096   -0.001076208
      5        1           0.002065665    0.000921370   -0.000432747
      6        1           0.002538408    0.000677895   -0.001750806
      7       17           0.000654715   -0.000999759    0.002122083
      8        6           0.306261936    0.169641256    0.054870729
      9        7          -0.002261114   -0.000899783   -0.000435499
 -------------------------------------------------------------------
 Cartesian Forces:  Max     0.306261936 RMS     0.094998163
 Leave Link  716 at Wed Jan  8 01:01:11 2020, MaxMem=  4294967296 cpu:               0.8 elap:               0.1
 (Enter /home/cwagen/sw/g16/g16/l103.exe)

 GradGradGradGradGradGradGradGradGradGradGradGradGradGradGradGradGradGrad
 Berny optimization.
 Using GEDIIS/GDIIS optimizer.
 FormGI is forming the generalized inverse of G from B-inverse, IUseBI=4.
 Internal  Forces:  Max     0.351061053 RMS     0.063578680
 Search for a local minimum.
 Step number   2 out of a maximum of   41
 All quantities printed in internal units (Hartrees-Bohrs-Radians)
 RMS Force = .84396D-02 SwitMx=.10000D-02 MixMth= 1
 Mixed Optimization -- RFO/linear search
 Update second derivatives using D2CorX and points    1    2
 DE= -2.47D-02 DEPred=-2.75D-02 R= 8.97D-01
 TightC=F SS=  1.41D+00  RLast= 4.10D-01 DXNew= 5.0454D-01 1.2306D+00
 Trust test= 8.97D-01 RLast= 4.10D-01 DXMaxT set to 5.05D-01
 ITU=  1  0
 Use linear search instead of GDIIS.
     Eigenvalues ---    0.00230   0.04746   0.04839   0.05358   0.05888
     Eigenvalues ---    0.08699   0.09740   0.15930   0.16000   0.16251
     Eigenvalues ---    0.23574   0.25000   0.25472   0.30323   0.33991
     Eigenvalues ---    0.34005   0.34429   0.67923   1.222331000.00000
     Eigenvalues --- 1000.000001000.000001000.000001000.000001000.00000
     Eigenvalues --- 1000.000001000.000001000.000001000.000001000.00000
     Eigenvalues --- 1000.00000
 RFO step:  Lambda=-1.22133443D-02 EMin= 2.30067141D-03
 Quartic linear search produced a step of  0.90195.
 Iteration  1 RMS(Cart)=  0.13379585 RMS(Int)=  0.01802669
 Iteration  2 RMS(Cart)=  0.01587903 RMS(Int)=  0.01359675
 Iteration  3 RMS(Cart)=  0.00010229 RMS(Int)=  0.01359647
 Iteration  4 RMS(Cart)=  0.00000344 RMS(Int)=  0.01359647
 Iteration  5 RMS(Cart)=  0.00000012 RMS(Int)=  0.01359647
 Iteration  1 RMS(Cart)=  0.00000000 RMS(Int)=  0.00000000
 ITry= 1 IFail=0 DXMaxC= 3.30D-01 DCOld= 1.00D+10 DXMaxT= 5.05D-01 DXLimC= 3.00D+00 Rises=F
 Variable       Old X    -DE/DX   Delta X   Delta X   Delta X     New X
                                 (Linear)    (Quad)   (Total)
    R1        2.44286  -0.01471  -0.00849  -0.03101  -0.03950   2.40336
    R2        2.96861  -0.00921   0.02126  -0.08778  -0.06652   2.90209
    R3        4.53534  -0.00052   0.00000   0.00000   0.00000   4.53534
    R4        2.26767   0.35106   0.00000   0.00000   0.00000   2.26767
    R5        2.07017  -0.00084  -0.00283  -0.00120  -0.00403   2.06614
    R6        2.07581  -0.00221   0.00102  -0.01320  -0.01219   2.06363
    R7        2.06497   0.00146  -0.00335   0.01175   0.00840   2.07337
    R8        2.21184  -0.00248   0.00236  -0.00644  -0.00409   2.20776
    A1        2.01778   0.00442   0.01904   0.02698   0.00680   2.02458
    A2        1.94517  -0.00335  -0.06666  -0.02938  -0.10492   1.84025
    A3        1.96357   0.00199   0.06420   0.09485   0.11714   2.08071
    A4        1.81849  -0.01575  -0.09533  -0.08108  -0.17011   1.64838
    A5        1.93598   0.01956   0.14795   0.02478   0.13862   2.07459
    A6        1.76013  -0.01059  -0.06733  -0.06402  -0.10992   1.65021
    A7        1.96914  -0.00041  -0.00436   0.00079  -0.00388   1.96525
    A8        1.90860   0.00013   0.02632  -0.02691  -0.00060   1.90800
    A9        1.87725  -0.00389  -0.02178  -0.02041  -0.04248   1.83477
   A10        1.89802   0.00093  -0.00500   0.02572   0.02065   1.91867
   A11        1.91453   0.00150   0.00556   0.00008   0.00503   1.91956
   A12        1.89504   0.00182  -0.00045   0.02110   0.02070   1.91575
   A13        3.05467  -0.00006  -0.04342   0.06884   0.02543   3.08009
   A14        3.09187  -0.00029   0.14018  -0.23735  -0.09717   2.99470
    D1       -3.10896   0.01220   0.11646   0.08613   0.20592  -2.90304
    D2       -0.99432   0.01319   0.12560   0.10043   0.22923  -0.76509
    D3        1.06048   0.01324   0.12747   0.09946   0.22993   1.29041
    D4       -0.96830  -0.00087  -0.03738   0.00608  -0.02235  -0.99065
    D5        1.14634   0.00012  -0.02825   0.02038   0.00096   1.14730
    D6       -3.08204   0.00017  -0.02637   0.01941   0.00166  -3.08038
    D7        0.91194  -0.01294  -0.08953  -0.09632  -0.19768   0.71426
    D8        3.02658  -0.01195  -0.08040  -0.08202  -0.17436   2.85222
    D9       -1.20180  -0.01190  -0.07852  -0.08299  -0.17367  -1.37547
         Item               Value     Threshold  Converged?
 Maximum Force            0.019561     0.000450     NO 
 RMS     Force            0.008440     0.000300     NO 
 Maximum Displacement     0.330149     0.001800     NO 
 RMS     Displacement     0.130732     0.001200     NO 
 Predicted change in Energy=-1.257291D-02
 Lowest energy point so far.  Saving SCF results.
 GradGradGradGradGradGradGradGradGradGradGradGradGradGradGradGradGradGrad

 Leave Link  103 at Wed Jan  8 01:01:17 2020, MaxMem=  4294967296 cpu:              87.1 elap:               6.5
 (Enter /home/cwagen/sw/g16/g16/l202.exe)
                          Input orientation:                          
 ---------------------------------------------------------------------
 Center     Atomic      Atomic             Coordinates (Angstroms)
 Number     Number       Type             X           Y           Z
 ---------------------------------------------------------------------
      1          6           0        0.024562   -0.454239   -0.252531
      2          8           0       -0.348275   -0.707831   -1.441719
      3          6           0       -0.400700   -1.470433    0.817485
      4          1           0       -0.265738   -1.091426    1.834128
      5          1           0       -1.445255   -1.746495    0.658711
      6          1           0        0.242818   -2.343998    0.654483
      7         17           0       -1.454711    1.267214    0.527439
      8          6           0        1.021575    0.189826   -0.076052
      9          7           0        2.061103    0.714903    0.016628
 ---------------------------------------------------------------------
                    Distance matrix (angstroms):
                    1          2          3          4          5
     1  C    0.000000
     2  O    1.271804   0.000000
     3  C    1.535718   2.385018   0.000000
     4  H    2.201006   3.299263   1.093355   0.000000
     5  H    2.158853   2.587275   1.092024   1.789409   0.000000
     6  H    2.107486   2.724059   1.097178   1.794193   1.790703
     7  Cl   2.400000   3.000431   2.947843   2.946910   3.016581
     8  C    1.200000   2.132446   2.361723   2.635824   3.220942
     9  N    2.363650   3.155322   3.387852   3.461260   4.331894
                    6          7          8          9
     6  H    0.000000
     7  Cl   3.992317   0.000000
     8  C    2.749619   2.767121   0.000000
     9  N    3.615231   3.595403   1.168295   0.000000
 Stoichiometry    C3H3ClNO(1-)
 Framework group  C1[X(C3H3ClNO)]
 Deg. of freedom    21
 Full point group                 C1      NOp   1
 RotChk:  IX=0 Diff= 2.17D-01
 Largest Abelian subgroup         C1      NOp   1
 Largest concise Abelian subgroup C1      NOp   1
                         Standard orientation:                         
 ---------------------------------------------------------------------
 Center     Atomic      Atomic             Coordinates (Angstroms)
 Number     Number       Type             X           Y           Z
 ---------------------------------------------------------------------
      1          6           0        0.528770    0.389952    0.171981
      2          8           0        0.631061    0.854072    1.351648
      3          6           0        0.360992    1.427702   -0.947553
      4          1           0        0.042653    0.978822   -1.892323
      5          1           0       -0.360570    2.184738   -0.633292
      6          1           0        1.351375    1.885115   -1.064671
      7         17           0       -1.719471   -0.432497    0.001713
      8          6           0        1.036329   -0.665860   -0.088106
      9          7           0        1.656075   -1.634225   -0.295708
 ---------------------------------------------------------------------
 Rotational constants (GHZ):           3.5352752           2.3614265           1.9088660
 Leave Link  202 at Wed Jan  8 01:01:17 2020, MaxMem=  4294967296 cpu:               1.2 elap:               0.1
 (Enter /home/cwagen/sw/g16/g16/l301.exe)
 Standard basis: 6-31+G(d) (6D, 7F)
 Ernie: Thresh=  0.10000D-02 Tol=  0.10000D-05 Strict=F.
 There are   124 symmetry adapted cartesian basis functions of A   symmetry.
 There are   124 symmetry adapted basis functions of A   symmetry.
   124 basis functions,   228 primitive gaussians,   124 cartesian basis functions
    27 alpha electrons       27 beta electrons
       nuclear repulsion energy       258.1340358537 Hartrees.
 IExCor=  402 DFT=T Ex+Corr=B3LYP ExCW=0 ScaHFX=  0.200000
 ScaDFX=  0.800000  0.720000  1.000000  0.810000 ScalE2=  1.000000  1.000000
 IRadAn=      5 IRanWt=     -1 IRanGd=            0 ICorTp=0 IEmpDi=  4
 NAtoms=    9 NActive=    9 NUniq=    9 SFac= 1.00D+00 NAtFMM=   60 NAOKFM=F Big=F
 Integral buffers will be    131072 words long.
 Raffenetti 2 integral format.
 Two-electron integral symmetry is turned on.
 ------------------------------------------------------------------------------
 Polarizable Continuum Model (PCM)
 =================================
 Model                : PCM.
 Atomic radii         : SMD-Coulomb.
 Polarization charges : Total charges.
 Charge compensation  : None.
 Solution method      : On-the-fly selection.
 Cavity type          : VdW (van der Waals Surface) (Alpha=1.000).
 Cavity algorithm     : GePol (No added spheres)
                        Default sphere list used, NSphG=    9.
                        Lebedev-Laikov grids with approx.  5.0 points / Ang**2.
                        Smoothing algorithm: York/Karplus (Gamma=1.0000).
                        Polarization charges: spherical gaussians, with
                                              point-specific exponents (IZeta= 3).
                        Self-potential: point-specific (ISelfS= 7).
                        Self-field    : sphere-specific E.n sum rule (ISelfD= 2).
 1st derivatives      : Analytical E(r).r(x)/FMM algorithm (CHGder, D1EAlg=3).
                        Cavity 1st derivative terms included.
 Solvent              : TetraHydroFuran, Eps=   7.425700 Eps(inf)=   1.974025
 ------------------------------------------------------------------------------
 Spheres list:
 ISph  on   Nord     Re0    Alpha      Xe            Ye            Ze
    1   C      1    1.8500  1.000      0.528770      0.389952      0.171981
    2   O      2    2.2940  1.000      0.631061      0.854072      1.351648
    3   C      3    1.8500  1.000      0.360992      1.427702     -0.947553
    4   H      4    1.2000  1.000      0.042653      0.978822     -1.892323
    5   H      5    1.2000  1.000     -0.360570      2.184738     -0.633292
    6   H      6    1.2000  1.000      1.351375      1.885115     -1.064671
    7  Cl      7    2.3800  1.000     -1.719471     -0.432497      0.001713
    8   C      8    1.8500  1.000      1.036329     -0.665860     -0.088106
    9   N      9    1.8900  1.000      1.656075     -1.634225     -0.295708
 ------------------------------------------------------------------------------
 GePol: Number of generator spheres                  =       9
 GePol: Total number of spheres                      =       9
 GePol: Number of exposed spheres                    =       9 (100.00%)
[...]
      5        1          -0.000011282    0.000009671   -0.000004982
      6        1           0.000000648   -0.000014882   -0.000044789
      7       17          -0.010417308    0.013119997    0.006153952
      8        6           0.284637834    0.196656984    0.055741136
      9        7          -0.000000178    0.000002171    0.000001799
 -------------------------------------------------------------------
 Cartesian Forces:  Max     0.284637834 RMS     0.095481868
 Leave Link  716 at Wed Jan  8 01:05:24 2020, MaxMem=  4294967296 cpu:               0.9 elap:               0.1
 (Enter /home/cwagen/sw/g16/g16/l103.exe)

 GradGradGradGradGradGradGradGradGradGradGradGradGradGradGradGradGradGrad
 Berny optimization.
 Using GEDIIS/GDIIS optimizer.
 FormGI is forming the generalized inverse of G from B-inverse, IUseBI=4.
 Internal  Forces:  Max     0.350436516 RMS     0.063021655
 Search for a local minimum.
 Step number   8 out of a maximum of   41
 All quantities printed in internal units (Hartrees-Bohrs-Radians)
 RMS Force = .19497D-04 SwitMx=.10000D-02 MixMth= 2
 Mixed Optimization -- En-DIIS/RFO-DIIS
 Swapping is turned off.
 Update second derivatives using D2CorX and points    3    4    5    6    7
                                                      8
 DE= -3.83D-07 DEPred=-5.98D-07 R= 6.40D-01
 Trust test= 6.40D-01 RLast= 3.11D-03 DXMaxT set to 8.49D-01
 ITU=  0  1  1  1  1  1  1  0
     Eigenvalues ---    0.00250   0.04692   0.05320   0.06013   0.06335
     Eigenvalues ---    0.07917   0.11952   0.14237   0.16291   0.17099
     Eigenvalues ---    0.22571   0.24940   0.25221   0.32292   0.33996
     Eigenvalues ---    0.34330   0.35063   0.68214   1.222081000.00000
     Eigenvalues --- 1000.000001000.000001000.000001000.000001000.00000
     Eigenvalues --- 1000.000001000.000001000.000001000.000001000.00000
     Eigenvalues --- 1000.00000
 En-DIIS/RFO-DIIS/Sim-DIIS IScMMF=       -3 using points:     8    7    6    5    4
 RFO step:  Lambda=-1.23177197D-04.
 NNeg= 0 NGDIIS= 5 SimSw=  2.50D-01 Rises=F DC= -3.83D-07 SmlDif=  1.00D-05
 NRisDI= 0 DoIntr=F SqrtH=F CThrHd= 10.0 CDAdj=  3.0
 RMS Error=  0.1403205950D-03 NUsed= 5 OKEnD=F EnDIS=F
 InvSVX:  RCond= 5.05D-07 Info=           0 Equed=N FErr=  2.29D-15 BErr=  8.33D-17
 DidBck=F Rises=F RFO-DIIS coefs:    0.96769    0.04517   -0.01036   -0.00008   -0.00242
 Iteration  1 RMS(Cart)=  0.00020655 RMS(Int)=  0.00000005
 Iteration  2 RMS(Cart)=  0.00000004 RMS(Int)=  0.00000003
 Iteration  1 RMS(Cart)=  0.00000000 RMS(Int)=  0.00000000
 ITry= 1 IFail=0 DXMaxC= 4.60D-04 DCOld= 1.00D+10 DXMaxT= 8.49D-01 DXLimC= 3.00D+00 Rises=F
 Variable       Old X    -DE/DX   Delta X   Delta X   Delta X     New X
                                 (Linear)    (Quad)   (Total)
    R1        2.39119  -0.00007  -0.00001  -0.00010  -0.00011   2.39108
    R2        2.90830   0.00003  -0.00003   0.00010   0.00008   2.90837
    R3        4.53534   0.01783   0.00000   0.00000   0.00000   4.53534
    R4        2.26767   0.35044   0.00000   0.00000   0.00000   2.26767
    R5        2.06461  -0.00002   0.00000  -0.00005  -0.00005   2.06456
    R6        2.06383   0.00001   0.00001   0.00001   0.00002   2.06385
    R7        2.07734   0.00000   0.00000   0.00001   0.00001   2.07734
    R8        2.20950   0.00000   0.00000  -0.00001   0.00000   2.20950
    A1        2.05911  -0.00001  -0.00001  -0.00006  -0.00008   2.05903
    A2        1.88090   0.00003   0.00005   0.00021   0.00026   1.88116
    A3        2.07367   0.00000   0.00003   0.00005   0.00008   2.07375
    A4        1.65847  -0.00004   0.00003  -0.00020  -0.00017   1.65829
    A5        2.05481   0.00001  -0.00001   0.00001   0.00000   2.05481
    A6        1.57943   0.00000  -0.00009  -0.00002  -0.00011   1.57932
    A7        1.97290  -0.00001  -0.00004   0.00001  -0.00003   1.97287
    A8        1.89882  -0.00002   0.00003  -0.00017  -0.00014   1.89868
    A9        1.86959   0.00001   0.00001   0.00002   0.00004   1.86963
   A10        1.91804   0.00001   0.00001   0.00001   0.00002   1.91806
   A11        1.90143   0.00000   0.00000   0.00002   0.00002   1.90145
   A12        1.90144   0.00001  -0.00002   0.00012   0.00010   1.90154
   A13        3.04056   0.00001   0.00007  -0.00005   0.00002   3.04057
   A14        3.01387   0.00004  -0.00002   0.00047   0.00045   3.01431
    D1       -2.92967   0.00000  -0.00007   0.00005  -0.00002  -2.92969
    D2       -0.79395  -0.00001  -0.00006  -0.00005  -0.00011  -0.79406
    D3        1.25897   0.00000  -0.00005   0.00001  -0.00004   1.25893
    D4       -0.95437   0.00001   0.00000   0.00016   0.00016  -0.95422
    D5        1.18136   0.00001   0.00001   0.00005   0.00006   1.18142
    D6       -3.04891   0.00001   0.00001   0.00012   0.00013  -3.04878
    D7        0.67245   0.00000  -0.00009   0.00003  -0.00006   0.67239
    D8        2.80818  -0.00001  -0.00008  -0.00007  -0.00015   2.80802
    D9       -1.42209  -0.00001  -0.00007  -0.00001  -0.00008  -1.42218
         Item               Value     Threshold  Converged?
 Maximum Force            0.000069     0.000450     YES
 RMS     Force            0.000019     0.000300     YES
 Maximum Displacement     0.000460     0.001800     YES
 RMS     Displacement     0.000207     0.001200     YES
 Predicted change in Energy=-2.682496D-08
 Optimization completed.
    -- Stationary point found.
                           ----------------------------
                           !   Optimized Parameters   !
                           ! (Angstroms and Degrees)  !
 --------------------------                            --------------------------
 ! Name  Definition              Value          Derivative Info.                !
 --------------------------------------------------------------------------------
 ! R1    R(1,2)                  1.2654         -DE/DX =   -0.0001              !
 ! R2    R(1,3)                  1.539          -DE/DX =    0.0                 !
 ! R3    R(1,7)                  2.4            -DE/DX =    0.0178              !
 ! R4    R(1,8)                  1.2            -DE/DX =    0.3504              !
 ! R5    R(3,4)                  1.0925         -DE/DX =    0.0                 !
 ! R6    R(3,5)                  1.0921         -DE/DX =    0.0                 !
 ! R7    R(3,6)                  1.0993         -DE/DX =    0.0                 !
 ! R8    R(8,9)                  1.1692         -DE/DX =    0.0                 !
 ! A1    A(2,1,3)              117.9781         -DE/DX =    0.0                 !
 ! A2    A(2,1,7)              107.7676         -DE/DX =    0.0                 !
 ! A3    A(2,1,8)              118.8124         -DE/DX =    0.0                 !
 ! A4    A(3,1,7)               95.023          -DE/DX =    0.0                 !
 ! A5    A(3,1,8)              117.7319         -DE/DX =    0.0                 !
 ! A6    A(7,1,8)               90.4944         -DE/DX =    0.0                 !
 ! A7    A(1,3,4)              113.0386         -DE/DX =    0.0                 !
 ! A8    A(1,3,5)              108.7945         -DE/DX =    0.0                 !
 ! A9    A(1,3,6)              107.1197         -DE/DX =    0.0                 !
 ! A10   A(4,3,5)              109.8956         -DE/DX =    0.0                 !
 ! A11   A(4,3,6)              108.9439         -DE/DX =    0.0                 !
 ! A12   A(5,3,6)              108.9445         -DE/DX =    0.0                 !
 ! A13   L(1,8,9,6,-1)         174.2111         -DE/DX =    0.0                 !
 ! A14   L(1,8,9,6,-2)         172.6818         -DE/DX =    0.0                 !
 ! D1    D(2,1,3,4)           -167.858          -DE/DX =    0.0                 !
 ! D2    D(2,1,3,5)            -45.4898         -DE/DX =    0.0                 !
 ! D3    D(2,1,3,6)             72.1338         -DE/DX =    0.0                 !
 ! D4    D(7,1,3,4)            -54.6815         -DE/DX =    0.0                 !
 ! D5    D(7,1,3,5)             67.6867         -DE/DX =    0.0                 !
 ! D6    D(7,1,3,6)           -174.6898         -DE/DX =    0.0                 !
 ! D7    D(8,1,3,4)             38.5284         -DE/DX =    0.0                 !
 ! D8    D(8,1,3,5)            160.8966         -DE/DX =    0.0                 !
 ! D9    D(8,1,3,6)            -81.4798         -DE/DX =    0.0                 !
 --------------------------------------------------------------------------------
 Lowest energy point so far.  Saving SCF results.
 Largest change from initial coordinates is atom    6       0.290 Angstoms.
 GradGradGradGradGradGradGradGradGradGradGradGradGradGradGradGradGradGrad

 Leave Link  103 at Wed Jan  8 01:05:27 2020, MaxMem=  4294967296 cpu:              40.0 elap:               2.7
 (Enter /home/cwagen/sw/g16/g16/l202.exe)
                          Input orientation:                          
 ---------------------------------------------------------------------
 Center     Atomic      Atomic             Coordinates (Angstroms)
 Number     Number       Type             X           Y           Z
 ---------------------------------------------------------------------
      1          6           0        0.008363   -0.468858   -0.279874
      2          8           0       -0.336746   -0.718071   -1.471485
      3          6           0       -0.392105   -1.475401    0.813301
      4          1           0       -0.244926   -1.089276    1.824686
      5          1           0       -1.438686   -1.752660    0.669969
      6          1           0        0.235343   -2.367694    0.677141
      7         17           0       -1.397264    1.297295    0.535550
      8          6           0        0.983032    0.204594   -0.088872
      9          7           0        2.018369    0.727591    0.058158
 ---------------------------------------------------------------------
                    Distance matrix (angstroms):
                    1          2          3          4          5
     1  C    0.000000
     2  O    1.265363   0.000000
     3  C    1.539004   2.407667   0.000000
     4  H    2.208675   3.318278   1.092545   0.000000
     5  H    2.155064   2.621159   1.092131   1.788439   0.000000
     6  H    2.138451   2.768598   1.099280   1.783780   1.783449
     7  Cl   2.400000   3.035554   2.962319   2.947113   3.053197
     8  C    1.200000   2.122438   2.351021   2.616043   3.204903
     9  N    2.363448   3.158531   3.351686   3.397666   4.298511
                    6          7          8          9
     6  H    0.000000
     7  Cl   4.014673   0.000000
     8  C    2.786122   2.692528   0.000000
     9  N    3.625343   3.495571   1.169217   0.000000
 Stoichiometry    C3H3ClNO(1-)
 Framework group  C1[X(C3H3ClNO)]
 Deg. of freedom    21
 Full point group                 C1      NOp   1
 RotChk:  IX=3 Diff= 1.79D-15
 Largest Abelian subgroup         C1      NOp   1
 Largest concise Abelian subgroup C1      NOp   1
                         Standard orientation:                         
 ---------------------------------------------------------------------
 Center     Atomic      Atomic             Coordinates (Angstroms)
 Number     Number       Type             X           Y           Z
 ---------------------------------------------------------------------
      1          6           0        0.565371    0.375279    0.183731
      2          8           0        0.748329    0.831084    1.349883
      3          6           0        0.491873    1.379100   -0.980518
      4          1           0        0.126267    0.932148   -1.907999
      5          1           0       -0.154010    2.209948   -0.688496
      6          1           0        1.510154    1.759297   -1.144747
      7         17           0       -1.728946   -0.308914    0.016429
      8          6           0        0.927358   -0.741675   -0.064021
      9          7           0        1.430776   -1.767819   -0.310324
 ---------------------------------------------------------------------
 Rotational constants (GHZ):           3.4696783           2.4209367           1.9437459
 Leave Link  202 at Wed Jan  8 01:05:27 2020, MaxMem=  4294967296 cpu:               1.3 elap:               0.1
 (Enter /home/cwagen/sw/g16/g16/l601.exe)
 Copying SCF densities to generalized density rwf, IOpCl= 0 IROHF=0.

 **********************************************************************

            Population analysis using the SCF density.

 **********************************************************************

 Orbital symmetries:
       Occupied  (A) (A) (A) (A) (A) (A) (A) (A) (A) (A) (A) (A)
                 (A) (A) (A) (A) (A) (A) (A) (A) (A) (A) (A) (A)
                 (A) (A) (A)
       Virtual   (A) (A) (A) (A) (A) (A) (A) (A) (A) (A) (A) (A)
                 (A) (A) (A) (A) (A) (A) (A) (A) (A) (A) (A) (A)
                 (A) (A) (A) (A) (A) (A) (A) (A) (A) (A) (A) (A)
                 (A) (A) (A) (A) (A) (A) (A) (A) (A) (A) (A) (A)
                 (A) (A) (A) (A) (A) (A) (A) (A) (A) (A) (A) (A)
                 (A) (A) (A) (A) (A) (A) (A) (A) (A) (A) (A) (A)
                 (A) (A) (A) (A) (A) (A) (A) (A) (A) (A) (A) (A)
                 (A) (A) (A) (A) (A) (A) (A) (A) (A) (A) (A) (A)
                 (A)
 The electronic state is 1-A.
 Alpha  occ. eigenvalues -- -101.43991 -19.11624 -14.33651 -10.26286 -10.21347
 Alpha  occ. eigenvalues --  -10.16845  -9.35508  -7.11475  -7.11168  -7.11156
 Alpha  occ. eigenvalues --   -1.01415  -0.90269  -0.77148  -0.69657  -0.67840
 Alpha  occ. eigenvalues --   -0.46256  -0.44314  -0.43631  -0.38107  -0.37018
 Alpha  occ. eigenvalues --   -0.36957  -0.31737  -0.30471  -0.23990  -0.23582
 Alpha  occ. eigenvalues --   -0.23296  -0.22793
 Alpha virt. eigenvalues --   -0.06126   0.02321   0.02779   0.05024   0.05944
 Alpha virt. eigenvalues --    0.07128   0.08811   0.09303   0.09564   0.10474
 Alpha virt. eigenvalues --    0.10683   0.12254   0.13715   0.13907   0.14460
 Alpha virt. eigenvalues --    0.15564   0.17034   0.17668   0.21244   0.22226
 Alpha virt. eigenvalues --    0.25135   0.25724   0.26370   0.27172   0.28361
 Alpha virt. eigenvalues --    0.29180   0.32132   0.32651   0.36380   0.37764
 Alpha virt. eigenvalues --    0.41379   0.45860   0.46997   0.59374   0.63451
 Alpha virt. eigenvalues --    0.64642   0.68509   0.69026   0.70508   0.72970
 Alpha virt. eigenvalues --    0.73466   0.76578   0.78792   0.80880   0.86237
 Alpha virt. eigenvalues --    0.87138   0.89622   0.95472   0.96860   0.97723
 Alpha virt. eigenvalues --    0.99147   1.02325   1.02901   1.05337   1.06752
 Alpha virt. eigenvalues --    1.09229   1.15133   1.15504   1.19796   1.27478
 Alpha virt. eigenvalues --    1.34787   1.36626   1.38206   1.44939   1.45973
 Alpha virt. eigenvalues --    1.49099   1.55620   1.58303   1.68830   1.72137
 Alpha virt. eigenvalues --    1.76356   1.84265   1.88199   1.89407   1.96795
 Alpha virt. eigenvalues --    1.98306   2.04997   2.08111   2.12454   2.26753
 Alpha virt. eigenvalues --    2.30520   2.35360   2.39045   2.49792   2.67056
 Alpha virt. eigenvalues --    2.78827   2.98605   3.02705   3.06996   3.31570
 Alpha virt. eigenvalues --    3.53709   4.21395   4.30373   4.37199   4.41324
 Alpha virt. eigenvalues --    4.55854   4.88348
          Condensed to atoms (all electrons):
               1          2          3          4          5          6
     1  C    9.678625   0.654977   0.341983  -0.154335  -0.088345   0.012756
     2  O    0.654977   8.311486  -0.190589   0.009791  -0.000412  -0.004462
     3  C    0.341983  -0.190589   5.955875   0.386091   0.402408   0.350184
     4  H   -0.154335   0.009791   0.386091   0.483631  -0.022624  -0.027440
     5  H   -0.088345  -0.000412   0.402408  -0.022624   0.460983  -0.024728
     6  H    0.012756  -0.004462   0.350184  -0.027440  -0.024728   0.491267
     7  Cl   0.128896  -0.078696  -0.139902   0.003839  -0.007882   0.006445
     8  C   -4.520088  -0.198671  -0.510889   0.086732   0.034557  -0.034699
     9  N    0.053828  -0.027950  -0.027284   0.001894  -0.000300  -0.001708
               7          8          9
     1  C    0.128896  -4.520088   0.053828
     2  O   -0.078696  -0.198671  -0.027950
     3  C   -0.139902  -0.510889  -0.027284
     4  H    0.003839   0.086732   0.001894
     5  H   -0.007882   0.034557  -0.000300
     6  H    0.006445  -0.034699  -0.001708
     7  Cl  17.806412  -0.065333  -0.022462
     8  C   -0.065333  10.361686   0.163051
     9  N   -0.022462   0.163051   7.472764
 Mulliken charges:
               1
     1  C   -0.108298
     2  O   -0.475473
     3  C   -0.567879
     4  H    0.232421
     5  H    0.246342
     6  H    0.232384
     7  Cl  -0.631318
     8  C    0.683654
     9  N   -0.611833
 Sum of Mulliken charges =  -1.00000
 Mulliken charges with hydrogens summed into heavy atoms:
               1
     1  C   -0.108298
     2  O   -0.475473
     3  C    0.143269
     7  Cl  -0.631318
     8  C    0.683654
     9  N   -0.611833
 Electronic spatial extent (au):  <R**2>=            695.3205
 Charge=             -1.0000 electrons
 Dipole moment (field-independent basis, Debye):
    X=              3.0476    Y=              3.4157    Z=             -3.0674  Tot=              5.5104
 Quadrupole moment (field-independent basis, Debye-Ang):
   XX=            -60.4357   YY=            -53.5059   ZZ=            -49.9773
   XY=              2.4012   XZ=             -1.7533   YZ=             -4.9329
 Traceless Quadrupole moment (field-independent basis, Debye-Ang):
   XX=             -5.7961   YY=              1.1337   ZZ=              4.6624
   XY=              2.4012   XZ=             -1.7533   YZ=             -4.9329
 Octapole moment (field-independent basis, Debye-Ang**2):
  XXX=             19.4829  YYY=             21.6075  ZZZ=             -5.7312  XYY=            -10.2405
  XXY=             14.3099  XXZ=              0.1044  XZZ=             -1.8832  YZZ=             -1.4034
  YYZ=              0.3473  XYZ=             -4.9832
 Hexadecapole moment (field-independent basis, Debye-Ang**3):
 XXXX=           -527.7025 YYYY=           -364.0896 ZZZZ=           -192.0212 XXXY=             14.8046
 XXXZ=              2.2796 YYYX=             24.2637 YYYZ=             -9.4135 ZZZX=             -2.4486
 ZZZY=             -4.4719 XXYY=           -157.5026 XXZZ=           -117.3335 YYZZ=            -92.3415
 XXYZ=             -6.1007 YYXZ=              2.6593 ZZXY=             -1.1849
 N-N= 2.588172030900D+02 E-N=-2.196738699210D+03  KE= 7.033827223783D+02
 No NMR shielding tensors so no spin-rotation constants.
 Leave Link  601 at Wed Jan  8 01:05:28 2020, MaxMem=  4294967296 cpu:              14.6 elap:               1.0
 (Enter /home/cwagen/sw/g16/g16/l9999.exe)
 1\1\GINC-NODE087\FOpt\RB3LYP\6-31+G(d)\C3H3Cl1N1O1(1-)\CWAGEN\08-Jan-2
 020\0\\#p opt=modredundant b3lyp/6-31+g(d) scrf=(smd, solvent=tetrahyd
 rofuran)\\title\\-1,1\C,0.0083625828,-0.4688584671,-0.2798743274\O,-0.
 3367462859,-0.7180711976,-1.4714850542\C,-0.39210475,-1.4754007112,0.8
 133007092\H,-0.244925566,-1.0892757778,1.8246859882\H,-1.4386860761,-1
 .7526603028,0.6699692438\H,0.2353432594,-2.3676936296,0.6771411706\Cl,
 -1.3972639505,1.2972949148,0.5355496582\C,0.9830318092,0.2045938078,-0
 .0888719019\N,2.0183693772,0.7275912037,0.0581579034\\Version=AS64L-G1
 6RevA.03\State=1-A\HF=-706.3746137\RMSD=3.575e-09\RMSF=9.548e-02\Dipol
 e=0.4284701,-1.9796883,0.7728167\Quadrupole=-4.3686194,2.4409606,1.927
 6588,0.9632348,0.7114572,-4.2627493\PG=C01 [X(C3H3Cl1N1O1)]\\@


 MORNING PEOPLE ARE USUALLY ADMIRED AS EARLY BIRDS.
 RECALL BEN FRANKLIN'S APHORISM THAT THE EARLY BIRD GETS THE WORM.
 I IDENTIFY WITH THE WORM. --  CRAIG JAGGER, MINNEAPOLIS, KS.
 Job cpu time:       0 days  1 hours 19 minutes 20.7 seconds.
 Elapsed time:       0 days  0 hours  5 minutes 51.0 seconds.
 File lengths (MBytes):  RWF=     38 Int=      0 D2E=      0 Chk=      4 Scr=      1
 Normal termination of Gaussian 16 at Wed Jan  8 01:05:28 2020.
