 Entering Gaussian System, Link 0=g16
 Input=scan_230_160.gjf
 Output=scan_230_160.out
 Initial command:
 /home/cwagen/sw/g16/g16/l1.exe "/scratch/users/cwagen/cwagen_scan_230_160/Gau-29885.inp" -scrdir="/scratch/users/cwagen/cwagen_scan_230_160/"
 Entering Link 1 = /home/cwagen/sw/g16/g16/l1.exe PID=     29886.
  
 Copyright (c) 1988,1990,1992,1993,1995,1998,2003,2009,2016,
            Gaussian, Inc.  All Rights Reserved.
  
 This is part of the Gaussian(R) 16 program.  It is based on
 the Gaussian(R) 09 system (copyright 2009, Gaussian, Inc.),
 the Gaussian(R) 03 system (copyright 2003, Gaussian, Inc.),
 the Gaussian(R) 98 system (copyright 1998, Gaussian, Inc.),
 the Gaussian(R) 94 system (copyright 1995, Gaussian, Inc.),
 the Gaussian 92(TM) system (copyright 1992, Gaussian, Inc.),
 the Gaussian 90(TM) system (copyright 1990, Gaussian, Inc.),
 the Gaussian 88(TM) system (copyright 1988, Gaussian, Inc.),
 the Gaussian 86(TM) system (copyright 1986, Carnegie Mellon
 University), and the Gaussian 82(TM) system (copyright 1983,
 Carnegie Mellon University). Gaussian is a federally registered
 trademark of Gaussian, Inc.
  
 This software contains proprietary and confidential information,
 including trade secrets, belonging to Gaussian, Inc.
  
 This software is provided under written license and may be
 used, copied, transmitted, or stored only in accord with that
 written license.
  
 The following legend is applicable only to US Government
 contracts under FAR:
  
                    RESTRICTED RIGHTS LEGEND
  
 Use, reproduction and disclosure by the US Government is
 subject to restrictions as set forth in subparagraphs (a)
 and (c) of the Commercial Computer Software - Restricted
 Rights clause in FAR 52.227-19.
  
 Gaussian, Inc.
 340 Quinnipiac St., Bldg. 40, Wallingford CT 06492
  
  
 ---------------------------------------------------------------
 Warning -- This program may not be used in any manner that
 competes with the business of Gaussian, Inc. or will provide
 assistance to any competitor of Gaussian, Inc.  The licensee
 of this program is prohibited from giving any competitor of
 Gaussian, Inc. access to this program.  By using this program,
 the user acknowledges that Gaussian, Inc. is engaged in the
 business of creating and licensing software in the field of
 computational chemistry and represents and warrants to the
 licensee that it is not a competitor of Gaussian, Inc. and that
 it will not use this program in any manner prohibited above.
 ---------------------------------------------------------------
  

 Cite this work as:
 Gaussian 16, Revision A.03,
 M. J. Frisch, G. W. Trucks, H. B. Schlegel, G. E. Scuseria, 
 M. A. Robb, J. R. Cheeseman, G. Scalmani, V. Barone, 
 G. A. Petersson, H. Nakatsuji, X. Li, M. Caricato, A. V. Marenich, 
 J. Bloino, B. G. Janesko, R. Gomperts, B. Mennucci, H. P. Hratchian, 
 J. V. Ortiz, A. F. Izmaylov, J. L. Sonnenberg, D. Williams-Young, 
 F. Ding, F. Lipparini, F. Egidi, J. Goings, B. Peng, A. Petrone, 
 T. Henderson, D. Ranasinghe, V. G. Zakrzewski, J. Gao, N. Rega, 
 G. Zheng, W. Liang, M. Hada, M. Ehara, K. Toyota, R. Fukuda, 
 J. Hasegawa, M. Ishida, T. Nakajima, Y. Honda, O. Kitao, H. Nakai, 
 T. Vreven, K. Throssell, J. A. Montgomery, Jr., J. E. Peralta, 
 F. Ogliaro, M. J. Bearpark, J. J. Heyd, E. N. Brothers, K. N. Kudin, 
 V. N. Staroverov, T. A. Keith, R. Kobayashi, J. Normand, 
 K. Raghavachari, A. P. Rendell, J. C. Burant, S. S. Iyengar, 
 J. Tomasi, M. Cossi, J. M. Millam, M. Klene, C. Adamo, R. Cammi, 
 J. W. Ochterski, R. L. Martin, K. Morokuma, O. Farkas, 
 J. B. Foresman, and D. J. Fox, Gaussian, Inc., Wallingford CT, 2016.
 
 ******************************************
 Gaussian 16:  AS64L-G16RevA.03 25-Dec-2016
                 8-Jan-2020 
 ******************************************
 %nprocshared=16
 Will use up to   16 processors via shared memory.
 %mem=32GB
 ----------------------------------------------------------------------
 #p opt=modredundant b3lyp/6-31+g(d) scrf=(smd, solvent=tetrahydrofuran
 )
 ----------------------------------------------------------------------
 1/18=120,19=15,26=3,38=1/1,3;
 2/9=110,12=2,17=6,18=5,40=1/2;
 3/5=1,6=6,7=11,11=2,25=1,30=1,70=32201,71=1,72=20,74=-5/1,2,3;
 4//1;
 5/5=2,38=5,53=20/2;
 6/7=2,8=2,9=2,10=2,28=1/1;
 7//1,2,3,16;
 1/18=20,19=15,26=3/3(2);
 2/9=110/2;
 99//99;
 2/9=110/2;
 3/5=1,6=6,7=11,11=2,25=1,30=1,70=32205,71=1,72=20,74=-5/1,2,3;
 4/5=5,16=3,69=1/1;
 5/5=2,38=5,53=20/2;
 7//1,2,3,16;
 1/18=20,19=15,26=3/3(-5);
 2/9=110/2;
 6/7=2,8=2,9=2,10=2,19=2,28=1/1;
 99/9=1/99;
 Leave Link    1 at Wed Jan  8 00:52:28 2020, MaxMem=  4294967296 cpu:              35.4 elap:               2.7
 (Enter /home/cwagen/sw/g16/g16/l101.exe)
 -----
 title
 -----
 Symbolic Z-matrix:
 Charge = -1 Multiplicity = 1
 6                    -0.19426  -0.292    -0.21291 
 8                    -0.25532  -0.66526  -1.45426 
 6                    -0.33095  -1.45422   0.81632 
 1                    -0.18039  -1.13044   1.85373 
 1                    -1.34067  -1.87301   0.71427 
 1                     0.39707  -2.23395   0.57058 
 17                   -1.57136   1.45497   0.37164 
 6                     1.28913   0.22745   0.08662 
 7                     2.4237    0.50774   0.11692 
 
 Add virtual bond connecting atoms Cl7        and C1         Dist= 4.35D+00.
 The following ModRedundant input section has been read:
 B       1       7 F                                                           
 B       1       8 F                                                           
 
 ITRead=  0  0  0  0  0  0  0  0  0
 MicOpt= -1 -1 -1 -1 -1 -1 -1 -1 -1
 NAtoms=      9 NQM=        9 NQMF=       0 NMMI=      0 NMMIF=      0
                NMic=       0 NMicF=      0.
                    Isotopes and Nuclear Properties:
 (Nuclear quadrupole moments (NQMom) in fm**2, nuclear magnetic moments (NMagM)
  in nuclear magnetons)

  Atom         1           2           3           4           5           6           7           8           9
 IAtWgt=          12          16          12           1           1           1          35          12          14
 AtmWgt=  12.0000000  15.9949146  12.0000000   1.0078250   1.0078250   1.0078250  34.9688527  12.0000000  14.0030740
 NucSpn=           0           0           0           1           1           1           3           0           2
 AtZEff=   0.0000000   0.0000000   0.0000000   0.0000000   0.0000000   0.0000000   0.0000000   0.0000000   0.0000000
 NQMom=    0.0000000   0.0000000   0.0000000   0.0000000   0.0000000   0.0000000  -8.1650000   0.0000000   2.0440000
 NMagM=    0.0000000   0.0000000   0.0000000   2.7928460   2.7928460   2.7928460   0.8218740   0.0000000   0.4037610
 AtZNuc=   6.0000000   8.0000000   6.0000000   1.0000000   1.0000000   1.0000000  17.0000000   6.0000000   7.0000000
 Leave Link  101 at Wed Jan  8 00:52:30 2020, MaxMem=  4294967296 cpu:               7.6 elap:               1.2
 (Enter /home/cwagen/sw/g16/g16/l103.exe)

 GradGradGradGradGradGradGradGradGradGradGradGradGradGradGradGradGradGrad
 Berny optimization.
 Initialization pass.
                           ----------------------------
                           !    Initial Parameters    !
                           ! (Angstroms and Degrees)  !
 --------------------------                            --------------------------
 ! Name  Definition              Value          Derivative Info.                !
 --------------------------------------------------------------------------------
 ! R1    R(1,2)                  1.2977         estimate D2E/DX2                !
 ! R2    R(1,3)                  1.5584         estimate D2E/DX2                !
 ! R3    R(1,7)                  2.3            Frozen                          !
 ! R4    R(1,8)                  1.6            Frozen                          !
 ! R5    R(3,4)                  1.0971         estimate D2E/DX2                !
 ! R6    R(3,5)                  1.0979         estimate D2E/DX2                !
 ! R7    R(3,6)                  1.0947         estimate D2E/DX2                !
 ! R8    R(8,9)                  1.1691         estimate D2E/DX2                !
 ! A1    A(2,1,3)              114.4006         estimate D2E/DX2                !
 ! A2    A(2,1,7)              115.6846         estimate D2E/DX2                !
 ! A3    A(2,1,8)              108.426          estimate D2E/DX2                !
 ! A4    A(3,1,7)              110.248          estimate D2E/DX2                !
 ! A5    A(3,1,8)              101.5248         estimate D2E/DX2                !
 ! A6    A(7,1,8)              105.1256         estimate D2E/DX2                !
 ! A7    A(1,3,4)              113.1005         estimate D2E/DX2                !
 ! A8    A(1,3,5)              107.683          estimate D2E/DX2                !
 ! A9    A(1,3,6)              108.9421         estimate D2E/DX2                !
 ! A10   A(4,3,5)              109.0662         estimate D2E/DX2                !
 ! A11   A(4,3,6)              109.3417         estimate D2E/DX2                !
 ! A12   A(5,3,6)              108.6067         estimate D2E/DX2                !
 ! A13   L(1,8,9,6,-1)         177.6054         estimate D2E/DX2                !
 ! A14   L(1,8,9,6,-2)         167.3449         estimate D2E/DX2                !
 ! D1    D(2,1,3,4)            174.4714         estimate D2E/DX2                !
 ! D2    D(2,1,3,5)            -64.9488         estimate D2E/DX2                !
 ! D3    D(2,1,3,6)             52.6633         estimate D2E/DX2                !
 ! D4    D(7,1,3,4)            -53.1046         estimate D2E/DX2                !
 ! D5    D(7,1,3,5)             67.4752         estimate D2E/DX2                !
 ! D6    D(7,1,3,6)           -174.9127         estimate D2E/DX2                !
 ! D7    D(8,1,3,4)             57.938          estimate D2E/DX2                !
 ! D8    D(8,1,3,5)            178.5177         estimate D2E/DX2                !
 ! D9    D(8,1,3,6)            -63.8702         estimate D2E/DX2                !
 --------------------------------------------------------------------------------
 Trust Radius=3.00D-01 FncErr=1.00D-07 GrdErr=1.00D-06 EigMax=2.50D+02 EigMin=1.00D-04
 Number of steps in this run=     41 maximum allowed number of steps=    100.
 GradGradGradGradGradGradGradGradGradGradGradGradGradGradGradGradGradGrad

 Leave Link  103 at Wed Jan  8 00:52:30 2020, MaxMem=  4294967296 cpu:               1.0 elap:               0.2
 (Enter /home/cwagen/sw/g16/g16/l202.exe)
                          Input orientation:                          
 ---------------------------------------------------------------------
 Center     Atomic      Atomic             Coordinates (Angstroms)
 Number     Number       Type             X           Y           Z
 ---------------------------------------------------------------------
      1          6           0       -0.194263   -0.291999   -0.212908
      2          8           0       -0.255321   -0.665256   -1.454255
      3          6           0       -0.330945   -1.454221    0.816316
      4          1           0       -0.180394   -1.130438    1.853734
      5          1           0       -1.340665   -1.873010    0.714272
      6          1           0        0.397068   -2.233949    0.570583
      7         17           0       -1.571363    1.454970    0.371640
      8          6           0        1.289132    0.227446    0.086618
      9          7           0        2.423703    0.507744    0.116921
 ---------------------------------------------------------------------
                    Distance matrix (angstroms):
                    1          2          3          4          5
     1  C    0.000000
     2  O    1.297687   0.000000
     3  C    1.558443   2.404928   0.000000
     4  H    2.230287   3.341377   1.097150   0.000000
     5  H    2.161827   2.709087   1.097876   1.787740   0.000000
     6  H    2.175937   2.643176   1.094698   1.788205   1.780629
     7  Cl   2.300000   3.092121   3.193707   3.288728   3.353516
     8  C    1.600000   2.357232   2.446449   2.669467   3.423696
     9  N    2.757195   3.319894   3.453483   3.532914   4.493916
                    6          7          8          9
     6  H    0.000000
     7  Cl   4.185979   0.000000
     8  C    2.662417   3.125777   0.000000
     9  N    3.439468   4.113717   1.169075   0.000000
 Stoichiometry    C3H3ClNO(1-)
 Framework group  C1[X(C3H3ClNO)]
 Deg. of freedom    21
 Full point group                 C1      NOp   1
 Largest Abelian subgroup         C1      NOp   1
 Largest concise Abelian subgroup C1      NOp   1
                         Standard orientation:                         
 ---------------------------------------------------------------------
 Center     Atomic      Atomic             Coordinates (Angstroms)
 Number     Number       Type             X           Y           Z
 ---------------------------------------------------------------------
      1          6           0        0.195643    0.442488    0.210642
      2          8           0        0.434477    0.903872    1.399791
      3          6           0        0.482615    1.452138   -0.941313
      4          1           0        0.366409    1.011104   -1.939171
      5          1           0       -0.220678    2.288407   -0.834708
      6          1           0        1.501666    1.836567   -0.831255
      7         17           0       -1.864805   -0.536267   -0.083624
      8          6           0        1.255877   -0.713278   -0.105757
      9          7           0        2.139095   -1.476944   -0.164718
 ---------------------------------------------------------------------
 Rotational constants (GHZ):           3.4825700           1.9367190           1.6264860
 Leave Link  202 at Wed Jan  8 00:52:30 2020, MaxMem=  4294967296 cpu:               2.4 elap:               0.2
 (Enter /home/cwagen/sw/g16/g16/l301.exe)
 Standard basis: 6-31+G(d) (6D, 7F)
 Ernie: Thresh=  0.10000D-02 Tol=  0.10000D-05 Strict=F.
 There are   124 symmetry adapted cartesian basis functions of A   symmetry.
 There are   124 symmetry adapted basis functions of A   symmetry.
   124 basis functions,   228 primitive gaussians,   124 cartesian basis functions
    27 alpha electrons       27 beta electrons
       nuclear repulsion energy       243.6658774535 Hartrees.
 IExCor=  402 DFT=T Ex+Corr=B3LYP ExCW=0 ScaHFX=  0.200000
 ScaDFX=  0.800000  0.720000  1.000000  0.810000 ScalE2=  1.000000  1.000000
 IRadAn=      5 IRanWt=     -1 IRanGd=            0 ICorTp=0 IEmpDi=  4
 NAtoms=    9 NActive=    9 NUniq=    9 SFac= 1.00D+00 NAtFMM=   60 NAOKFM=F Big=F
 Integral buffers will be    131072 words long.
 Raffenetti 2 integral format.
 Two-electron integral symmetry is turned on.
 ------------------------------------------------------------------------------
 Polarizable Continuum Model (PCM)
 =================================
 Model                : PCM.
 Atomic radii         : SMD-Coulomb.
 Polarization charges : Total charges.
 Charge compensation  : None.
 Solution method      : On-the-fly selection.
 Cavity type          : VdW (van der Waals Surface) (Alpha=1.000).
 Cavity algorithm     : GePol (No added spheres)
                        Default sphere list used, NSphG=    9.
                        Lebedev-Laikov grids with approx.  5.0 points / Ang**2.
                        Smoothing algorithm: York/Karplus (Gamma=1.0000).
                        Polarization charges: spherical gaussians, with
                                              point-specific exponents (IZeta= 3).
                        Self-potential: point-specific (ISelfS= 7).
                        Self-field    : sphere-specific E.n sum rule (ISelfD= 2).
 1st derivatives      : Analytical E(r).r(x)/FMM algorithm (CHGder, D1EAlg=3).
                        Cavity 1st derivative terms included.
 Solvent              : TetraHydroFuran, Eps=   7.425700 Eps(inf)=   1.974025
 ------------------------------------------------------------------------------
 Spheres list:
 ISph  on   Nord     Re0    Alpha      Xe            Ye            Ze
    1   C      1    1.8500  1.000      0.195643      0.442488      0.210642
    2   O      2    2.2940  1.000      0.434477      0.903872      1.399791
    3   C      3    1.8500  1.000      0.482615      1.452138     -0.941313
    4   H      4    1.2000  1.000      0.366409      1.011104     -1.939171
    5   H      5    1.2000  1.000     -0.220678      2.288407     -0.834708
    6   H      6    1.2000  1.000      1.501666      1.836567     -0.831255
    7  Cl      7    2.3800  1.000     -1.864805     -0.536267     -0.083624
    8   C      8    1.8500  1.000      1.255877     -0.713278     -0.105757
    9   N      9    1.8900  1.000      2.139095     -1.476944     -0.164718
 ------------------------------------------------------------------------------
 GePol: Number of generator spheres                  =       9
 GePol: Total number of spheres                      =       9
 GePol: Number of exposed spheres                    =       9 (100.00%)
 GePol: Number of points                             =    1170
 GePol: Average weight of points                     =       0.14
 GePol: Minimum weight of points                     =   0.15D-07
 GePol: Maximum weight of points                     =    0.18138
 GePol: Number of points with low weight             =      30
 GePol: Fraction of low-weight points (<1% of avg)   =       2.56%
 GePol: Cavity surface area                          =    160.314 Ang**2
 GePol: Cavity volume                                =    146.903 Ang**3
 ------------------------------------------------------------------------------
 Atomic radii for non-electrostatic terms: SMD-CDS.
 ------------------------------------------------------------------------------
 PCM non-electrostatic energy =        -0.0010852366 Hartrees.
 Nuclear repulsion after PCM non-electrostatic terms =      243.6647922169 Hartrees.
 Leave Link  301 at Wed Jan  8 00:52:30 2020, MaxMem=  4294967296 cpu:               2.5 elap:               0.2
 (Enter /home/cwagen/sw/g16/g16/l302.exe)
 NPDir=0 NMtPBC=     1 NCelOv=     1 NCel=       1 NClECP=     1 NCelD=      1
         NCelK=      1 NCelE2=     1 NClLst=     1 CellRange=     0.0.
 One-electron integrals computed using PRISM.
 One-electron integral symmetry used in STVInt
 NBasis=   124 RedAO= T EigKep=  5.19D-05  NBF=   124
 NBsUse=   124 1.00D-06 EigRej= -1.00D+00 NBFU=   124
 Precomputing XC quadrature grid using
 IXCGrd= 4 IRadAn=           5 IRanWt=          -1 IRanGd=           0 AccXCQ= 0.00D+00.
 Generated NRdTot=       0 NPtTot=           0 NUsed=           0 NTot=          32
 NSgBfM=   124   124   124   124   124 MxSgAt=     9 MxSgA2=     9.
 Leave Link  302 at Wed Jan  8 00:52:32 2020, MaxMem=  4294967296 cpu:              31.2 elap:               2.1
 (Enter /home/cwagen/sw/g16/g16/l303.exe)
 DipDrv:  MaxL=1.
 Leave Link  303 at Wed Jan  8 00:52:33 2020, MaxMem=  4294967296 cpu:               3.3 elap:               0.6
 (Enter /home/cwagen/sw/g16/g16/l401.exe)
 ExpMin= 4.38D-02 ExpMax= 2.52D+04 ExpMxC= 3.78D+03 IAcc=3 IRadAn=         5 AccDes= 0.00D+00
 Harris functional with IExCor=  402 and IRadAn=       5 diagonalized for initial guess.
 HarFok:  IExCor=  402 AccDes= 0.00D+00 IRadAn=         5 IDoV= 1 UseB2=F ITyADJ=14
 ICtDFT=  3500011 ScaDFX=  1.000000  1.000000  1.000000  1.000000
 FoFCou: FMM=F IPFlag=           0 FMFlag=      100000 FMFlg1=           0
         NFxFlg=           0 DoJE=T BraDBF=F KetDBF=T FulRan=T
         wScrn=  0.000000 ICntrl=       500 IOpCl=  0 I1Cent=   200000004 NGrid=           0
         NMat0=    1 NMatS0=      1 NMatT0=    0 NMatD0=    1 NMtDS0=    0 NMtDT0=    0
 Petite list used in FoFCou.
 Harris En= -706.407933918708    
 JPrj=0 DoOrth=F DoCkMO=F.
 Leave Link  401 at Wed Jan  8 00:52:34 2020, MaxMem=  4294967296 cpu:              11.8 elap:               0.8
 (Enter /home/cwagen/sw/g16/g16/l502.exe)
 Keep R1 ints in memory in canonical form, NReq=45236517.
 FoFCou: FMM=F IPFlag=           0 FMFlag=           0 FMFlg1=           0
         NFxFlg=           0 DoJE=F BraDBF=F KetDBF=F FulRan=T
         wScrn=  0.000000 ICntrl=       600 IOpCl=  0 I1Cent=           0 NGrid=           0
         NMat0=    1 NMatS0=   7750 NMatT0=    0 NMatD0=    1 NMtDS0=    0 NMtDT0=    0
 Symmetry not used in FoFCou.
 Two-electron integral symmetry not used.
 Closed shell SCF:
 Using DIIS extrapolation, IDIIS=  1040.
 NGot=  4294967296 LenX=  4264898079 LenY=  4264882262
 Requested convergence on RMS density matrix=1.00D-08 within 128 cycles.
 Requested convergence on MAX density matrix=1.00D-06.
 Requested convergence on             energy=1.00D-06.
 No special actions if energy rises.

 Cycle   1  Pass 1  IDiag  1:
 Inv3:  Mode=1 IEnd=     4106700.
 Iteration    1 A*A^-1 deviation from unit magnitude is 3.33D-15 for   1162.
 Iteration    1 A*A^-1 deviation from orthogonality  is 1.72D-15 for    248     17.
 Iteration    1 A^-1*A deviation from unit magnitude is 3.11D-15 for   1162.
 Iteration    1 A^-1*A deviation from orthogonality  is 1.35D-15 for   1163    937.
 E= -706.212842315964    
 DIIS: error= 2.56D-02 at cycle   1 NSaved=   1.
 NSaved= 1 IEnMin= 1 EnMin= -706.212842315964     IErMin= 1 ErrMin= 2.56D-02
 ErrMax= 2.56D-02  0.00D+00 EMaxC= 1.00D-01 BMatC= 2.28D-01 BMatP= 2.28D-01
 IDIUse=3 WtCom= 7.44D-01 WtEn= 2.56D-01
 Coeff-Com:  0.100D+01
 Coeff-En:   0.100D+01
 Coeff:      0.100D+01
 Gap=     0.257 Goal=   None    Shift=    0.000
 GapD=    0.257 DampG=1.000 DampE=0.500 DampFc=0.5000 IDamp=-1.
 Damping current iteration by 5.00D-01
 RMSDP=3.96D-02 MaxDP=1.94D+00              OVMax= 5.61D-01

 Cycle   2  Pass 1  IDiag  1:
 E= -706.149943950432     Delta-E=        0.062898365532 Rises=F Damp=T
 DIIS: error= 2.65D-02 at cycle   2 NSaved=   2.
 NSaved= 2 IEnMin= 1 EnMin= -706.212842315964     IErMin= 1 ErrMin= 2.56D-02
 ErrMax= 2.65D-02  0.00D+00 EMaxC= 1.00D-01 BMatC= 1.18D-01 BMatP= 2.28D-01
 IDIUse=3 WtCom= 7.35D-01 WtEn= 2.65D-01
 Coeff-Com:  0.400D+00 0.600D+00
 Coeff-En:   0.589D+00 0.411D+00
 Coeff:      0.450D+00 0.550D+00
 Gap=     0.152 Goal=   None    Shift=    0.000
 RMSDP=1.73D-02 MaxDP=8.95D-01 DE= 6.29D-02 OVMax= 3.19D-01

 Cycle   3  Pass 1  IDiag  1:
 E= -706.377646613521     Delta-E=       -0.227702663089 Rises=F Damp=F
 DIIS: error= 1.08D-02 at cycle   3 NSaved=   3.
 NSaved= 3 IEnMin= 3 EnMin= -706.377646613521     IErMin= 3 ErrMin= 1.08D-02
 ErrMax= 1.08D-02  0.00D+00 EMaxC= 1.00D-01 BMatC= 3.73D-02 BMatP= 1.18D-01
 IDIUse=3 WtCom= 8.92D-01 WtEn= 1.08D-01
 Coeff-Com:  0.180D+00 0.347D+00 0.472D+00
 Coeff-En:   0.000D+00 0.000D+00 0.100D+01
 Coeff:      0.161D+00 0.310D+00 0.529D+00
 Gap=     0.189 Goal=   None    Shift=    0.000
 RMSDP=2.91D-03 MaxDP=4.95D-02 DE=-2.28D-01 OVMax= 5.75D-02

 Cycle   4  Pass 1  IDiag  1:
 E= -706.410829405780     Delta-E=       -0.033182792259 Rises=F Damp=F
 DIIS: error= 3.00D-03 at cycle   4 NSaved=   4.
 NSaved= 4 IEnMin= 4 EnMin= -706.410829405780     IErMin= 4 ErrMin= 3.00D-03
 ErrMax= 3.00D-03  0.00D+00 EMaxC= 1.00D-01 BMatC= 4.57D-03 BMatP= 3.73D-02
 IDIUse=3 WtCom= 9.70D-01 WtEn= 3.00D-02
 Coeff-Com:  0.355D-01 0.970D-01 0.274D+00 0.594D+00
 Coeff-En:   0.000D+00 0.000D+00 0.410D-01 0.959D+00
 Coeff:      0.345D-01 0.941D-01 0.267D+00 0.605D+00
 Gap=     0.189 Goal=   None    Shift=    0.000
 RMSDP=8.50D-04 MaxDP=1.76D-02 DE=-3.32D-02 OVMax= 2.64D-02

 Cycle   5  Pass 1  IDiag  1:
 E= -706.413007382808     Delta-E=       -0.002177977027 Rises=F Damp=F
 DIIS: error= 2.35D-03 at cycle   5 NSaved=   5.
 NSaved= 5 IEnMin= 5 EnMin= -706.413007382808     IErMin= 5 ErrMin= 2.35D-03
 ErrMax= 2.35D-03  0.00D+00 EMaxC= 1.00D-01 BMatC= 1.97D-03 BMatP= 4.57D-03
 IDIUse=3 WtCom= 9.76D-01 WtEn= 2.35D-02
 Coeff-Com: -0.689D-03 0.195D-01 0.122D+00 0.450D+00 0.409D+00
 Coeff-En:   0.000D+00 0.000D+00 0.000D+00 0.328D+00 0.672D+00
 Coeff:     -0.673D-03 0.190D-01 0.119D+00 0.447D+00 0.415D+00
 Gap=     0.186 Goal=   None    Shift=    0.000
 RMSDP=4.44D-04 MaxDP=8.66D-03 DE=-2.18D-03 OVMax= 1.50D-02

 Cycle   6  Pass 1  IDiag  1:
 E= -706.414694134133     Delta-E=       -0.001686751325 Rises=F Damp=F
 DIIS: error= 4.44D-04 at cycle   6 NSaved=   6.
 NSaved= 6 IEnMin= 6 EnMin= -706.414694134133     IErMin= 6 ErrMin= 4.44D-04
 ErrMax= 4.44D-04  0.00D+00 EMaxC= 1.00D-01 BMatC= 7.58D-05 BMatP= 1.97D-03
 IDIUse=3 WtCom= 9.96D-01 WtEn= 4.44D-03
 Coeff-Com: -0.230D-02 0.244D-02 0.415D-01 0.182D+00 0.234D+00 0.542D+00
 Coeff-En:   0.000D+00 0.000D+00 0.000D+00 0.000D+00 0.000D+00 0.100D+01
 Coeff:     -0.229D-02 0.243D-02 0.413D-01 0.182D+00 0.233D+00 0.544D+00
 Gap=     0.187 Goal=   None    Shift=    0.000
 RMSDP=1.46D-04 MaxDP=3.12D-03 DE=-1.69D-03 OVMax= 2.27D-03

 Cycle   7  Pass 1  IDiag  1:
 E= -706.414766708959     Delta-E=       -0.000072574826 Rises=F Damp=F
 DIIS: error= 1.14D-04 at cycle   7 NSaved=   7.
 NSaved= 7 IEnMin= 7 EnMin= -706.414766708959     IErMin= 7 ErrMin= 1.14D-04
 ErrMax= 1.14D-04  0.00D+00 EMaxC= 1.00D-01 BMatC= 2.83D-06 BMatP= 7.58D-05
 IDIUse=3 WtCom= 9.99D-01 WtEn= 1.14D-03
 Coeff-Com: -0.582D-03-0.879D-03 0.809D-02 0.372D-01 0.667D-01 0.220D+00
 Coeff-Com:  0.669D+00
 Coeff-En:   0.000D+00 0.000D+00 0.000D+00 0.000D+00 0.000D+00 0.000D+00
 Coeff-En:   0.100D+01
 Coeff:     -0.582D-03-0.878D-03 0.808D-02 0.372D-01 0.667D-01 0.220D+00
 Coeff:      0.670D+00
 Gap=     0.187 Goal=   None    Shift=    0.000
 RMSDP=2.78D-05 MaxDP=9.50D-04 DE=-7.26D-05 OVMax= 8.49D-04

 Cycle   8  Pass 1  IDiag  1:
 E= -706.414769284437     Delta-E=       -0.000002575479 Rises=F Damp=F
 DIIS: error= 4.52D-05 at cycle   8 NSaved=   8.
 NSaved= 8 IEnMin= 8 EnMin= -706.414769284437     IErMin= 8 ErrMin= 4.52D-05
 ErrMax= 4.52D-05  0.00D+00 EMaxC= 1.00D-01 BMatC= 5.20D-07 BMatP= 2.83D-06
 IDIUse=1 WtCom= 1.00D+00 WtEn= 0.00D+00
 Coeff-Com: -0.708D-05-0.969D-03 0.130D-02 0.548D-02 0.193D-01 0.764D-01
 Coeff-Com:  0.365D+00 0.534D+00
 Coeff:     -0.708D-05-0.969D-03 0.130D-02 0.548D-02 0.193D-01 0.764D-01
 Coeff:      0.365D+00 0.534D+00
 Gap=     0.187 Goal=   None    Shift=    0.000
 RMSDP=1.68D-05 MaxDP=4.41D-04 DE=-2.58D-06 OVMax= 2.68D-04

 Cycle   9  Pass 1  IDiag  1:
 E= -706.414769857194     Delta-E=       -0.000000572757 Rises=F Damp=F
 DIIS: error= 1.15D-05 at cycle   9 NSaved=   9.
 NSaved= 9 IEnMin= 9 EnMin= -706.414769857194     IErMin= 9 ErrMin= 1.15D-05
 ErrMax= 1.15D-05  0.00D+00 EMaxC= 1.00D-01 BMatC= 3.58D-08 BMatP= 5.20D-07
 IDIUse=1 WtCom= 1.00D+00 WtEn= 0.00D+00
 Coeff-Com:  0.159D-03-0.353D-03-0.328D-03-0.257D-02-0.106D-02-0.254D-02
 Coeff-Com:  0.470D-01 0.213D+00 0.746D+00
 Coeff:      0.159D-03-0.353D-03-0.328D-03-0.257D-02-0.106D-02-0.254D-02
 Coeff:      0.470D-01 0.213D+00 0.746D+00
 Gap=     0.187 Goal=   None    Shift=    0.000
 RMSDP=3.31D-06 MaxDP=9.04D-05 DE=-5.73D-07 OVMax= 5.54D-05

 Cycle  10  Pass 1  IDiag  1:
 E= -706.414769893341     Delta-E=       -0.000000036147 Rises=F Damp=F
 DIIS: error= 2.80D-06 at cycle  10 NSaved=  10.
 NSaved=10 IEnMin=10 EnMin= -706.414769893341     IErMin=10 ErrMin= 2.80D-06
 ErrMax= 2.80D-06  0.00D+00 EMaxC= 1.00D-01 BMatC= 1.26D-09 BMatP= 3.58D-08
 IDIUse=1 WtCom= 1.00D+00 WtEn= 0.00D+00
 Coeff-Com:  0.478D-04-0.690D-04-0.576D-04-0.622D-03-0.862D-03-0.365D-02
 Coeff-Com: -0.798D-02 0.239D-01 0.163D+00 0.827D+00
 Coeff:      0.478D-04-0.690D-04-0.576D-04-0.622D-03-0.862D-03-0.365D-02
 Coeff:     -0.798D-02 0.239D-01 0.163D+00 0.827D+00
 Gap=     0.187 Goal=   None    Shift=    0.000
 RMSDP=1.22D-06 MaxDP=2.77D-05 DE=-3.61D-08 OVMax= 2.02D-05

 Cycle  11  Pass 1  IDiag  1:
 E= -706.414769894525     Delta-E=       -0.000000001184 Rises=F Damp=F
 DIIS: error= 7.74D-07 at cycle  11 NSaved=  11.
 NSaved=11 IEnMin=11 EnMin= -706.414769894525     IErMin=11 ErrMin= 7.74D-07
 ErrMax= 7.74D-07  0.00D+00 EMaxC= 1.00D-01 BMatC= 1.94D-10 BMatP= 1.26D-09
 IDIUse=1 WtCom= 1.00D+00 WtEn= 0.00D+00
 Coeff-Com:  0.156D-04-0.110D-04 0.857D-05-0.107D-03-0.317D-03-0.151D-02
 Coeff-Com: -0.739D-02-0.356D-02 0.227D-01 0.391D+00 0.599D+00
 Coeff:      0.156D-04-0.110D-04 0.857D-05-0.107D-03-0.317D-03-0.151D-02
 Coeff:     -0.739D-02-0.356D-02 0.227D-01 0.391D+00 0.599D+00
 Gap=     0.187 Goal=   None    Shift=    0.000
 RMSDP=1.98D-07 MaxDP=3.62D-06 DE=-1.18D-09 OVMax= 4.36D-06

 Cycle  12  Pass 1  IDiag  1:
 E= -706.414769894730     Delta-E=       -0.000000000205 Rises=F Damp=F
 DIIS: error= 1.82D-07 at cycle  12 NSaved=  12.
 NSaved=12 IEnMin=12 EnMin= -706.414769894730     IErMin=12 ErrMin= 1.82D-07
 ErrMax= 1.82D-07  0.00D+00 EMaxC= 1.00D-01 BMatC= 7.77D-12 BMatP= 1.94D-10
 IDIUse=1 WtCom= 1.00D+00 WtEn= 0.00D+00
 Coeff-Com:  0.898D-06 0.949D-06 0.132D-04 0.316D-04 0.759D-05-0.615D-04
 Coeff-Com: -0.149D-02-0.307D-02-0.830D-02 0.466D-01 0.174D+00 0.792D+00
 Coeff:      0.898D-06 0.949D-06 0.132D-04 0.316D-04 0.759D-05-0.615D-04
 Coeff:     -0.149D-02-0.307D-02-0.830D-02 0.466D-01 0.174D+00 0.792D+00
 Gap=     0.187 Goal=   None    Shift=    0.000
 RMSDP=7.19D-08 MaxDP=2.59D-06 DE=-2.05D-10 OVMax= 1.98D-06

 Cycle  13  Pass 1  IDiag  1:
 E= -706.414769894741     Delta-E=       -0.000000000011 Rises=F Damp=F
 DIIS: error= 4.55D-08 at cycle  13 NSaved=  13.
 NSaved=13 IEnMin=13 EnMin= -706.414769894741     IErMin=13 ErrMin= 4.55D-08
 ErrMax= 4.55D-08  0.00D+00 EMaxC= 1.00D-01 BMatC= 3.58D-13 BMatP= 7.77D-12
 IDIUse=1 WtCom= 1.00D+00 WtEn= 0.00D+00
 Coeff-Com: -0.514D-06 0.335D-06 0.100D-05 0.514D-05 0.186D-04 0.702D-04
 Coeff-Com:  0.260D-03-0.253D-03-0.197D-02-0.160D-01-0.209D-01 0.654D-01
 Coeff-Com:  0.973D+00
 Coeff:     -0.514D-06 0.335D-06 0.100D-05 0.514D-05 0.186D-04 0.702D-04
 Coeff:      0.260D-03-0.253D-03-0.197D-02-0.160D-01-0.209D-01 0.654D-01
 Coeff:      0.973D+00
 Gap=     0.187 Goal=   None    Shift=    0.000
 RMSDP=1.67D-08 MaxDP=3.78D-07 DE=-1.13D-11 OVMax= 8.18D-07

 Cycle  14  Pass 1  IDiag  1:
 E= -706.414769894741     Delta-E=        0.000000000000 Rises=F Damp=F
 DIIS: error= 4.56D-09 at cycle  14 NSaved=  14.
 NSaved=14 IEnMin=13 EnMin= -706.414769894741     IErMin=14 ErrMin= 4.56D-09
 ErrMax= 4.56D-09  0.00D+00 EMaxC= 1.00D-01 BMatC= 6.11D-15 BMatP= 3.58D-13
 IDIUse=1 WtCom= 1.00D+00 WtEn= 0.00D+00
 Coeff-Com: -0.107D-06 0.873D-07-0.394D-06-0.354D-06 0.133D-05 0.888D-05
 Coeff-Com:  0.615D-04 0.796D-04 0.545D-04-0.268D-02-0.700D-02-0.211D-01
 Coeff-Com:  0.743D-01 0.956D+00
 Coeff:     -0.107D-06 0.873D-07-0.394D-06-0.354D-06 0.133D-05 0.888D-05
 Coeff:      0.615D-04 0.796D-04 0.545D-04-0.268D-02-0.700D-02-0.211D-01
 Coeff:      0.743D-01 0.956D+00
 Gap=     0.187 Goal=   None    Shift=    0.000
 RMSDP=3.56D-09 MaxDP=1.21D-07 DE= 1.14D-13 OVMax= 1.43D-07

 Error on total polarization charges =  0.02226
 SCF Done:  E(RB3LYP) =  -706.414769895     A.U. after   14 cycles
            NFock= 14  Conv=0.36D-08     -V/T= 2.0059
 KE= 7.022674626002D+02 PE=-2.165470629803D+03 EE= 5.131236050909D+02
 SMD-CDS (non-electrostatic) energy       (kcal/mol) =      -0.68
 (included in total energy above)
 Leave Link  502 at Wed Jan  8 00:52:50 2020, MaxMem=  4294967296 cpu:             243.5 elap:              16.6
 (Enter /home/cwagen/sw/g16/g16/l601.exe)
 Copying SCF densities to generalized density rwf, IOpCl= 0 IROHF=0.

 **********************************************************************

            Population analysis using the SCF density.

 **********************************************************************

 Orbital symmetries:
       Occupied  (A) (A) (A) (A) (A) (A) (A) (A) (A) (A) (A) (A)
                 (A) (A) (A) (A) (A) (A) (A) (A) (A) (A) (A) (A)
                 (A) (A) (A)
       Virtual   (A) (A) (A) (A) (A) (A) (A) (A) (A) (A) (A) (A)
                 (A) (A) (A) (A) (A) (A) (A) (A) (A) (A) (A) (A)
                 (A) (A) (A) (A) (A) (A) (A) (A) (A) (A) (A) (A)
                 (A) (A) (A) (A) (A) (A) (A) (A) (A) (A) (A) (A)
                 (A) (A) (A) (A) (A) (A) (A) (A) (A) (A) (A) (A)
                 (A) (A) (A) (A) (A) (A) (A) (A) (A) (A) (A) (A)
                 (A) (A) (A) (A) (A) (A) (A) (A) (A) (A) (A) (A)
                 (A) (A) (A) (A) (A) (A) (A) (A) (A) (A) (A) (A)
                 (A)
 The electronic state is 1-A.
 Alpha  occ. eigenvalues -- -101.46739 -19.11004 -14.32752 -10.30538 -10.22004
 Alpha  occ. eigenvalues --  -10.17336  -9.38128  -7.14230  -7.13732  -7.13724
 Alpha  occ. eigenvalues --   -0.98143  -0.88798  -0.73516  -0.71051  -0.59165
 Alpha  occ. eigenvalues --   -0.45625  -0.41997  -0.40288  -0.38019  -0.35897
 Alpha  occ. eigenvalues --   -0.35009  -0.31891  -0.31640  -0.25495  -0.25287
 Alpha  occ. eigenvalues --   -0.23976  -0.22940
 Alpha virt. eigenvalues --   -0.04193   0.02394   0.03946   0.04374   0.05390
 Alpha virt. eigenvalues --    0.06734   0.07129   0.09123   0.09746   0.09880
 Alpha virt. eigenvalues --    0.10101   0.11138   0.11931   0.13567   0.14346
 Alpha virt. eigenvalues --    0.14460   0.15718   0.17178   0.18052   0.21509
 Alpha virt. eigenvalues --    0.24041   0.24794   0.25179   0.26348   0.26959
 Alpha virt. eigenvalues --    0.27849   0.29325   0.30913   0.34437   0.35204
 Alpha virt. eigenvalues --    0.37186   0.38264   0.43408   0.60456   0.62128
 Alpha virt. eigenvalues --    0.65677   0.67453   0.68128   0.69250   0.72448
 Alpha virt. eigenvalues --    0.73653   0.76906   0.78359   0.78882   0.81062
 Alpha virt. eigenvalues --    0.85561   0.91687   0.92989   0.94958   0.95400
 Alpha virt. eigenvalues --    0.96721   1.00085   1.01650   1.02049   1.04882
 Alpha virt. eigenvalues --    1.07576   1.10771   1.14108   1.16240   1.25373
 Alpha virt. eigenvalues --    1.31964   1.33236   1.34781   1.46331   1.47603
 Alpha virt. eigenvalues --    1.49633   1.55258   1.58591   1.63481   1.68139
 Alpha virt. eigenvalues --    1.71474   1.76117   1.82759   1.88465   1.92776
 Alpha virt. eigenvalues --    1.95691   1.98954   2.04503   2.06689   2.14232
 Alpha virt. eigenvalues --    2.20827   2.26494   2.32054   2.43226   2.50690
 Alpha virt. eigenvalues --    2.71129   2.74538   2.79330   2.87637   3.02503
 Alpha virt. eigenvalues --    3.20241   4.10638   4.17373   4.33165   4.34537
 Alpha virt. eigenvalues --    4.38554   4.68283
          Condensed to atoms (all electrons):
               1          2          3          4          5          6
     1  C    5.792591   0.599342   0.238200  -0.091978  -0.083964   0.001607
     2  O    0.599342   8.306140  -0.177463   0.009739   0.001931  -0.011759
     3  C    0.238200  -0.177463   5.774123   0.368049   0.388902   0.376007
     4  H   -0.091978   0.009739   0.368049   0.490329  -0.022338  -0.030778
     5  H   -0.083964   0.001931   0.388902  -0.022338   0.476043  -0.023542
     6  H    0.001607  -0.011759   0.376007  -0.030778  -0.023542   0.471482
     7  Cl   0.014782  -0.059312  -0.111066   0.008733  -0.000073   0.001839
     8  C   -0.812616  -0.183191  -0.148332   0.040987   0.032749  -0.028758
     9  N   -0.068831  -0.018237   0.008395  -0.001552   0.000133  -0.000978
               7          8          9
     1  C    0.014782  -0.812616  -0.068831
     2  O   -0.059312  -0.183191  -0.018237
     3  C   -0.111066  -0.148332   0.008395
     4  H    0.008733   0.040987  -0.001552
     5  H   -0.000073   0.032749   0.000133
     6  H    0.001839  -0.028758  -0.000978
     7  Cl  17.639251   0.053571  -0.021630
     8  C    0.053571   6.280660   0.575736
     9  N   -0.021630   0.575736   7.120766
 Mulliken charges:
               1
     1  C    0.410868
     2  O   -0.467191
     3  C   -0.716817
     4  H    0.228809
     5  H    0.230159
     6  H    0.244878
     7  Cl  -0.526096
     8  C    0.189193
     9  N   -0.593803
 Sum of Mulliken charges =  -1.00000
 Mulliken charges with hydrogens summed into heavy atoms:
               1
     1  C    0.410868
     2  O   -0.467191
     3  C   -0.012971
     7  Cl  -0.526096
     8  C    0.189193
     9  N   -0.593803
 Electronic spatial extent (au):  <R**2>=            790.0037
 Charge=             -1.0000 electrons
 Dipole moment (field-independent basis, Debye):
    X=              0.9164    Y=              3.4511    Z=             -3.2285  Tot=              4.8139
 Quadrupole moment (field-independent basis, Debye-Ang):
   XX=            -65.1023   YY=            -52.3625   ZZ=            -50.8845
   XY=              4.4020   XZ=             -1.4662   YZ=             -4.9039
 Traceless Quadrupole moment (field-independent basis, Debye-Ang):
   XX=             -8.9859   YY=              3.7539   ZZ=              5.2319
   XY=              4.4020   XZ=             -1.4662   YZ=             -4.9039
 Octapole moment (field-independent basis, Debye-Ang**2):
  XXX=             -6.6962  YYY=             15.5631  ZZZ=             -7.0071  XYY=            -11.2334
  XXY=             25.3706  XXZ=              3.0463  XZZ=             -1.8334  YZZ=             -2.7089
  YYZ=             -2.1988  XYZ=             -3.1972
 Hexadecapole moment (field-independent basis, Debye-Ang**3):
 XXXX=           -708.4246 YYYY=           -345.8466 ZZZZ=           -194.7743 XXXY=             46.7804
 XXXZ=              4.5304 YYYX=             25.6124 YYYZ=             -6.6544 ZZZX=             -2.3177
 ZZZY=             -6.1381 XXYY=           -188.3429 XXZZ=           -138.0986 YYZZ=            -92.4215
 XXYZ=             -5.0870 YYXZ=              1.3867 ZZXY=              0.4884
 N-N= 2.436647922169D+02 E-N=-2.165470630033D+03  KE= 7.022674626002D+02
 No NMR shielding tensors so no spin-rotation constants.
 Leave Link  601 at Wed Jan  8 00:52:51 2020, MaxMem=  4294967296 cpu:              13.0 elap:               1.0
 (Enter /home/cwagen/sw/g16/g16/l701.exe)
 ... and contract with generalized density number  0.
 Compute integral first derivatives.
 D1PCM: PCM CHGder 1st derivatives, ID1Alg=3 FixD1E=F DoIter=F DoCFld=F I1PDM=0.
 GePol: Maximum number of non-zero 1st derivatives   =     375
 Leave Link  701 at Wed Jan  8 00:52:53 2020, MaxMem=  4294967296 cpu:              26.0 elap:               1.8
 (Enter /home/cwagen/sw/g16/g16/l702.exe)
 L702 exits ... SP integral derivatives will be done elsewhere.
 Leave Link  702 at Wed Jan  8 00:52:53 2020, MaxMem=  4294967296 cpu:               1.2 elap:               0.1
 (Enter /home/cwagen/sw/g16/g16/l703.exe)
 Integral derivatives from FoFJK, PRISM(SPDF).
 Compute integral first derivatives, UseDBF=F ICtDFT=           0.
 Calling FoFJK, ICntrl=      2127 FMM=F ISym2X=0 I1Cent= 0 IOpClX= 0 NMat=1 NMatS=1 NMatT=0.
 FoFJK:  IHMeth= 1 ICntrl=    2127 DoSepK=F KAlg= 0 I1Cent=           0 FoldK=F
 IRaf=         0 NMat=       1 IRICut=       1 DoRegI=T DoRafI=F ISym2E= 0 IDoP0=0 IntGTp=1.
 FoFCou: FMM=F IPFlag=           0 FMFlag=      100000 FMFlg1=         800
         NFxFlg=           0 DoJE=F BraDBF=F KetDBF=F FulRan=T
         wScrn=  0.000000 ICntrl=      2127 IOpCl=  0 I1Cent=           0 NGrid=           0
         NMat0=    1 NMatS0=      1 NMatT0=    0 NMatD0=    1 NMtDS0=    0 NMtDT0=    0
 Symmetry not used in FoFCou.
 Leave Link  703 at Wed Jan  8 00:52:56 2020, MaxMem=  4294967296 cpu:              38.7 elap:               2.7
 (Enter /home/cwagen/sw/g16/g16/l716.exe)
 Dipole        = 3.60540755D-01 1.35777628D+00-1.27020495D+00
 ***** Axes restored to original set *****
 -------------------------------------------------------------------
 Center     Atomic                   Forces (Hartrees/Bohr)
 Number     Number              X              Y              Z
 -------------------------------------------------------------------
      1        6           0.064909171   -0.059142409   -0.044052420
      2        8          -0.015826550    0.034068822    0.049788747
      3        6          -0.029803526    0.017034552    0.004175583
      4        1          -0.000710856    0.000814824   -0.001611689
      5        1           0.001072871   -0.002171750    0.002348748
      6        1           0.001351088    0.003671385   -0.003151755
      7       17           0.008792362   -0.010489413   -0.000448175
      8        6          -0.021451283    0.020122706   -0.009932278
      9        7          -0.008333278   -0.003908717    0.002883241
 -------------------------------------------------------------------
 Cartesian Forces:  Max     0.064909171 RMS     0.024360164
 Leave Link  716 at Wed Jan  8 00:52:56 2020, MaxMem=  4294967296 cpu:               1.7 elap:               0.1
 (Enter /home/cwagen/sw/g16/g16/l103.exe)

 GradGradGradGradGradGradGradGradGradGradGradGradGradGradGradGradGradGrad
 Berny optimization.
 FormGI is forming the generalized inverse of G from B-inverse, IUseBI=4.
 Internal  Forces:  Max     0.056669746 RMS     0.017000467
 Search for a local minimum.
 Step number   1 out of a maximum of   41
 All quantities printed in internal units (Hartrees-Bohrs-Radians)
 RMS Force = .16841D-01 SwitMx=.10000D-02 MixMth= 1
 Mixed Optimization -- RFO/linear search
 Second derivative matrix not updated -- first step.
 ITU=  0
     Eigenvalues ---    0.00230   0.04746   0.04746   0.05330   0.05908
     Eigenvalues ---    0.07453   0.10176   0.16000   0.16000   0.16000
     Eigenvalues ---    0.25000   0.25000   0.25000   0.26946   0.33918
     Eigenvalues ---    0.33999   0.34275   0.67840   1.220341000.00000
     Eigenvalues --- 1000.000001000.000001000.000001000.000001000.00000
     Eigenvalues --- 1000.000001000.000001000.000001000.000001000.00000
     Eigenvalues --- 1000.00000
 RFO step:  Lambda=-3.12586704D-02 EMin= 2.30000000D-03
 Linear search not attempted -- first point.
 Maximum step size (   0.300) exceeded in Quadratic search.
    -- Step size scaled by   0.951
 Iteration  1 RMS(Cart)=  0.09849372 RMS(Int)=  0.00846211
 Iteration  2 RMS(Cart)=  0.00824271 RMS(Int)=  0.00603069
 Iteration  3 RMS(Cart)=  0.00001656 RMS(Int)=  0.00603067
 Iteration  4 RMS(Cart)=  0.00000020 RMS(Int)=  0.00603067
 Iteration  1 RMS(Cart)=  0.00000000 RMS(Int)=  0.00000000
 ITry= 1 IFail=0 DXMaxC= 2.30D-01 DCOld= 1.00D+10 DXMaxT= 3.00D-01 DXLimC= 3.00D+00 Rises=F
 Variable       Old X    -DE/DX   Delta X   Delta X   Delta X     New X
                                 (Linear)    (Quad)   (Total)
    R1        2.45227  -0.05667   0.00000  -0.07593  -0.07593   2.37634
    R2        2.94503  -0.01071   0.00000  -0.03385  -0.03385   2.91118
    R3        4.34637  -0.01336   0.00000   0.00000   0.00000   4.34637
    R4        3.02356  -0.02357   0.00000   0.00000   0.00000   3.02356
    R5        2.07331  -0.00137   0.00000  -0.00351  -0.00351   2.06980
    R6        2.07468  -0.00038   0.00000  -0.00097  -0.00097   2.07372
    R7        2.06868  -0.00128   0.00000  -0.00326  -0.00326   2.06542
    R8        2.20923  -0.00895   0.00000  -0.00680  -0.00680   2.20243
    A1        1.99667   0.02838   0.00000   0.10274   0.09018   2.08685
    A2        2.01908  -0.01232   0.00000  -0.08245  -0.08005   1.93903
    A3        1.89239  -0.00746   0.00000   0.06074   0.03903   1.93142
    A4        1.92419  -0.02428   0.00000  -0.11970  -0.11513   1.80906
    A5        1.77194   0.03870   0.00000   0.16117   0.14841   1.92035
    A6        1.83479  -0.01991   0.00000  -0.09990  -0.09230   1.74248
    A7        1.97398  -0.00146   0.00000  -0.00817  -0.00846   1.96552
    A8        1.87942   0.00644   0.00000   0.03617   0.03632   1.91574
    A9        1.90140  -0.00742   0.00000  -0.04024  -0.04030   1.86110
   A10        1.90356  -0.00156   0.00000  -0.00174  -0.00182   1.90174
   A11        1.90837   0.00336   0.00000   0.00929   0.00878   1.91716
   A12        1.89554   0.00074   0.00000   0.00553   0.00597   1.90152
   A13        3.09980  -0.00546   0.00000  -0.06592  -0.06592   3.03388
   A14        2.92072   0.00489   0.00000   0.05908   0.05908   2.97980
    D1        3.04510   0.01330   0.00000   0.11521   0.12079  -3.11729
    D2       -1.13357   0.01485   0.00000   0.13267   0.13828  -0.99529
    D3        0.91915   0.01530   0.00000   0.13758   0.14278   1.06193
    D4       -0.92685  -0.00147   0.00000  -0.02258  -0.02081  -0.94766
    D5        1.17766   0.00008   0.00000  -0.00512  -0.00332   1.17435
    D6       -3.05280   0.00053   0.00000  -0.00022   0.00118  -3.05163
    D7        1.01121  -0.01429   0.00000  -0.10179  -0.10879   0.90241
    D8        3.11572  -0.01275   0.00000  -0.08432  -0.09130   3.02442
    D9       -1.11475  -0.01230   0.00000  -0.07942  -0.08681  -1.20155
         Item               Value     Threshold  Converged?
 Maximum Force            0.056670     0.000450     NO 
 RMS     Force            0.016841     0.000300     NO 
 Maximum Displacement     0.229625     0.001800     NO 
 RMS     Displacement     0.096241     0.001200     NO 
 Predicted change in Energy=-1.910308D-02
 Lowest energy point so far.  Saving SCF results.
 GradGradGradGradGradGradGradGradGradGradGradGradGradGradGradGradGradGrad

 Leave Link  103 at Wed Jan  8 00:53:04 2020, MaxMem=  4294967296 cpu:             101.2 elap:               7.3
 (Enter /home/cwagen/sw/g16/g16/l202.exe)
                          Input orientation:                          
 ---------------------------------------------------------------------
 Center     Atomic      Atomic             Coordinates (Angstroms)
 Number     Number       Type             X           Y           Z
 ---------------------------------------------------------------------
      1          6           0       -0.108474   -0.378009   -0.233202
      2          8           0       -0.265218   -0.641486   -1.452763
      3          6           0       -0.371383   -1.470658    0.820469
      4          1           0       -0.224023   -1.112105    1.844866
      5          1           0       -1.397600   -1.845634    0.718087
      6          1           0        0.326672   -2.284437    0.608172
      7         17           0       -1.477491    1.349695    0.423175
      8          6           0        1.321023    0.294663    0.019879
      9          7           0        2.433444    0.629257    0.114239
 ---------------------------------------------------------------------
                    Distance matrix (angstroms):
                    1          2          3          4          5
     1  C    0.000000
     2  O    1.257504   0.000000
     3  C    1.540528   2.422061   0.000000
     4  H    2.206947   3.331296   1.095292   0.000000
     5  H    2.172722   2.728525   1.097365   1.784651   0.000000
     6  H    2.128786   2.701309   1.092971   1.790821   1.782622
     7  Cl   2.300000   2.992249   3.055439   3.106903   3.209904
     8  C    1.600000   2.358222   2.573235   2.774300   3.529770
     9  N    2.756202   3.369430   3.574277   3.617947   4.600719
                    6          7          8          9
     6  H    0.000000
     7  Cl   4.061544   0.000000
     8  C    2.826054   3.017850   0.000000
     9  N    3.629335   3.988720   1.165477   0.000000
 Stoichiometry    C3H3ClNO(1-)
 Framework group  C1[X(C3H3ClNO)]
 Deg. of freedom    21
 Full point group                 C1      NOp   1
 RotChk:  IX=0 Diff= 1.61D-01
 Largest Abelian subgroup         C1      NOp   1
 Largest concise Abelian subgroup C1      NOp   1
                         Standard orientation:                         
 ---------------------------------------------------------------------
 Center     Atomic      Atomic             Coordinates (Angstroms)
 Number     Number       Type             X           Y           Z
 ---------------------------------------------------------------------
      1          6           0        0.230279    0.508571    0.217740
      2          8           0        0.339303    0.922923    1.400001
      3          6           0        0.216113    1.520153   -0.944038
      4          1           0        0.092305    1.038868   -1.920101
      5          1           0       -0.596660    2.242657   -0.797070
      6          1           0        1.171852    2.049282   -0.909814
      7         17           0       -1.721518   -0.674058   -0.068406
      8          6           0        1.296212   -0.648009   -0.075706
      9          7           0        2.204037   -1.362785   -0.228300
 ---------------------------------------------------------------------
 Rotational constants (GHZ):           3.3673856           2.0664370           1.6922485
 Leave Link  202 at Wed Jan  8 00:53:04 2020, MaxMem=  4294967296 cpu:               1.4 elap:               0.6
 (Enter /home/cwagen/sw/g16/g16/l301.exe)
 Standard basis: 6-31+G(d) (6D, 7F)
 Ernie: Thresh=  0.10000D-02 Tol=  0.10000D-05 Strict=F.
 There are   124 symmetry adapted cartesian basis functions of A   symmetry.
 There are   124 symmetry adapted basis functions of A   symmetry.
   124 basis functions,   228 primitive gaussians,   124 cartesian basis functions
    27 alpha electrons       27 beta electrons
       nuclear repulsion energy       246.4351588782 Hartrees.
 IExCor=  402 DFT=T Ex+Corr=B3LYP ExCW=0 ScaHFX=  0.200000
 ScaDFX=  0.800000  0.720000  1.000000  0.810000 ScalE2=  1.000000  1.000000
 IRadAn=      5 IRanWt=     -1 IRanGd=            0 ICorTp=0 IEmpDi=  4
 NAtoms=    9 NActive=    9 NUniq=    9 SFac= 1.00D+00 NAtFMM=   60 NAOKFM=F Big=F
 Integral buffers will be    131072 words long.
 Raffenetti 2 integral format.
 Two-electron integral symmetry is turned on.
 ------------------------------------------------------------------------------
 Polarizable Continuum Model (PCM)
 =================================
 Model                : PCM.
 Atomic radii         : SMD-Coulomb.
 Polarization charges : Total charges.
 Charge compensation  : None.
 Solution method      : On-the-fly selection.
 Cavity type          : VdW (van der Waals Surface) (Alpha=1.000).
 Cavity algorithm     : GePol (No added spheres)
                        Default sphere list used, NSphG=    9.
                        Lebedev-Laikov grids with approx.  5.0 points / Ang**2.
                        Smoothing algorithm: York/Karplus (Gamma=1.0000).
                        Polarization charges: spherical gaussians, with
                                              point-specific exponents (IZeta= 3).
                        Self-potential: point-specific (ISelfS= 7).
                        Self-field    : sphere-specific E.n sum rule (ISelfD= 2).
 1st derivatives      : Analytical E(r).r(x)/FMM algorithm (CHGder, D1EAlg=3).
                        Cavity 1st derivative terms included.
 Solvent              : TetraHydroFuran, Eps=   7.425700 Eps(inf)=   1.974025
 ------------------------------------------------------------------------------
 Spheres list:
 ISph  on   Nord     Re0    Alpha      Xe            Ye            Ze
    1   C      1    1.8500  1.000      0.230279      0.508571      0.217740
    2   O      2    2.2940  1.000      0.339303      0.922923      1.400001
    3   C      3    1.8500  1.000      0.216113      1.520153     -0.944038
    4   H      4    1.2000  1.000      0.092305      1.038868     -1.920101
    5   H      5    1.2000  1.000     -0.596660      2.242657     -0.797070
    6   H      6    1.2000  1.000      1.171852      2.049282     -0.909814
    7  Cl      7    2.3800  1.000     -1.721518     -0.674058     -0.068406
    8   C      8    1.8500  1.000      1.296212     -0.648009     -0.075706
    9   N      9    1.8900  1.000      2.204037     -1.362785     -0.228300
 ------------------------------------------------------------------------------
 GePol: Number of generator spheres                  =       9
 GePol: Total number of spheres                      =       9
 GePol: Number of exposed spheres                    =       9 (100.00%)
 GePol: Number of points                             =    1166
 GePol: Average weight of points                     =       0.14
 GePol: Minimum weight of points                     =   0.11D-09
 GePol: Maximum weight of points                     =    0.18138
 GePol: Number of points with low weight             =      34
 GePol: Fraction of low-weight points (<1% of avg)   =       2.92%
 GePol: Cavity surface area                          =    158.303 Ang**2
 GePol: Cavity volume                                =    145.452 Ang**3
 ------------------------------------------------------------------------------
 Atomic radii for non-electrostatic terms: SMD-CDS.
 ------------------------------------------------------------------------------
 PCM non-electrostatic energy =        -0.0011356956 Hartrees.
 Nuclear repulsion after PCM non-electrostatic terms =      246.4340231826 Hartrees.
 Leave Link  301 at Wed Jan  8 00:53:04 2020, MaxMem=  4294967296 cpu:               2.5 elap:               0.2
 (Enter /home/cwagen/sw/g16/g16/l302.exe)
 NPDir=0 NMtPBC=     1 NCelOv=     1 NCel=       1 NClECP=     1 NCelD=      1
         NCelK=      1 NCelE2=     1 NClLst=     1 CellRange=     0.0.
 One-electron integrals computed using PRISM.
 One-electron integral symmetry used in STVInt
 NBasis=   124 RedAO= T EigKep=  4.71D-05  NBF=   124
 NBsUse=   124 1.00D-06 EigRej= -1.00D+00 NBFU=   124
 Precomputing XC quadrature grid using
 IXCGrd= 4 IRadAn=           5 IRanWt=          -1 IRanGd=           0 AccXCQ= 0.00D+00.
 Generated NRdTot=       0 NPtTot=           0 NUsed=           0 NTot=          32
 NSgBfM=   124   124   124   124   124 MxSgAt=     9 MxSgA2=     9.
 Leave Link  302 at Wed Jan  8 00:53:07 2020, MaxMem=  4294967296 cpu:              31.9 elap:               2.3
 (Enter /home/cwagen/sw/g16/g16/l303.exe)
 DipDrv:  MaxL=1.
 Leave Link  303 at Wed Jan  8 00:53:08 2020, MaxMem=  4294967296 cpu:               3.0 elap:               0.2
 (Enter /home/cwagen/sw/g16/g16/l401.exe)
 Initial guess from the checkpoint file:  "/scratch/users/cwagen/cwagen_scan_230_160/Gau-29886.chk"
 B after Tr=     0.000000    0.000000    0.000000
         Rot=    0.998925   -0.003730   -0.010223   -0.045053 Ang=  -5.31 deg.
 Guess basis will be translated and rotated to current coordinates.
 JPrj=2 DoOrth=T DoCkMO=T.
 Generating alternative initial guess.
 ExpMin= 4.38D-02 ExpMax= 2.52D+04 ExpMxC= 3.78D+03 IAcc=2 IRadAn=         4 AccDes= 0.00D+00
 Harris functional with IExCor=  402 and IRadAn=       4 diagonalized for initial guess.
 HarFok:  IExCor=  402 AccDes= 0.00D+00 IRadAn=         4 IDoV= 1 UseB2=F ITyADJ=14
 ICtDFT=  3500011 ScaDFX=  1.000000  1.000000  1.000000  1.000000
 FoFCou: FMM=F IPFlag=           0 FMFlag=      100000 FMFlg1=           0
         NFxFlg=           0 DoJE=T BraDBF=F KetDBF=T FulRan=T
         wScrn=  0.000000 ICntrl=       500 IOpCl=  0 I1Cent=   200000004 NGrid=           0
         NMat0=    1 NMatS0=      1 NMatT0=    0 NMatD0=    1 NMtDS0=    0 NMtDT0=    0
 Petite list used in FoFCou.
 Harris En= -706.425066178002    
 Leave Link  401 at Wed Jan  8 00:53:12 2020, MaxMem=  4294967296 cpu:              55.7 elap:               3.9
 (Enter /home/cwagen/sw/g16/g16/l502.exe)
 Keep R1 ints in memory in canonical form, NReq=45236517.
 FoFCou: FMM=F IPFlag=           0 FMFlag=           0 FMFlg1=           0
         NFxFlg=           0 DoJE=F BraDBF=F KetDBF=F FulRan=T
         wScrn=  0.000000 ICntrl=       600 IOpCl=  0 I1Cent=           0 NGrid=           0
         NMat0=    1 NMatS0=   7750 NMatT0=    0 NMatD0=    1 NMtDS0=    0 NMtDT0=    0
 Symmetry not used in FoFCou.
 Two-electron integral symmetry not used.
 Closed shell SCF:
 Using DIIS extrapolation, IDIIS=  1040.
 NGot=  4294967296 LenX=  4264898079 LenY=  4264882262
 Requested convergence on RMS density matrix=1.00D-08 within 128 cycles.
 Requested convergence on MAX density matrix=1.00D-06.
 Requested convergence on             energy=1.00D-06.
 No special actions if energy rises.

 Cycle   1  Pass 1  IDiag  1:
 Inv3:  Mode=1 IEnd=     4078668.
 Iteration    1 A*A^-1 deviation from unit magnitude is 4.22D-15 for   1165.
 Iteration    1 A*A^-1 deviation from orthogonality  is 1.78D-15 for   1164    934.
 Iteration    1 A^-1*A deviation from unit magnitude is 4.44D-15 for   1165.
 Iteration    1 A^-1*A deviation from orthogonality  is 2.05D-15 for   1164    934.
 E= -706.416894731557    
 DIIS: error= 5.73D-03 at cycle   1 NSaved=   1.
 NSaved= 1 IEnMin= 1 EnMin= -706.416894731557     IErMin= 1 ErrMin= 5.73D-03
 ErrMax= 5.73D-03  0.00D+00 EMaxC= 1.00D-01 BMatC= 1.09D-02 BMatP= 1.09D-02
 IDIUse=3 WtCom= 9.43D-01 WtEn= 5.73D-02
 Coeff-Com:  0.100D+01
 Coeff-En:   0.100D+01
 Coeff:      0.100D+01
 Gap=     0.576 Goal=   None    Shift=    0.000
 GapD=    0.576 DampG=2.000 DampE=1.000 DampFc=2.0000 IDamp=-1.
 RMSDP=2.91D-03 MaxDP=4.89D-02              OVMax= 3.98D-02

 Cycle   2  Pass 1  IDiag  1:
 E= -706.434039410695     Delta-E=       -0.017144679138 Rises=F Damp=F
 DIIS: error= 1.17D-03 at cycle   2 NSaved=   2.
 NSaved= 2 IEnMin= 2 EnMin= -706.434039410695     IErMin= 2 ErrMin= 1.17D-03
 ErrMax= 1.17D-03  0.00D+00 EMaxC= 1.00D-01 BMatC= 4.61D-04 BMatP= 1.09D-02
 IDIUse=3 WtCom= 9.88D-01 WtEn= 1.17D-02
 Coeff-Com:  0.114D-01 0.989D+00
 Coeff-En:   0.000D+00 0.100D+01
 Coeff:      0.113D-01 0.989D+00
 Gap=     0.210 Goal=   None    Shift=    0.000
 RMSDP=6.53D-04 MaxDP=1.29D-02 DE=-1.71D-02 OVMax= 1.81D-02

 Cycle   3  Pass 1  IDiag  1:
 E= -706.433438539511     Delta-E=        0.000600871184 Rises=F Damp=F
 DIIS: error= 1.99D-03 at cycle   3 NSaved=   3.
 NSaved= 3 IEnMin= 2 EnMin= -706.434039410695     IErMin= 2 ErrMin= 1.17D-03
 ErrMax= 1.99D-03  0.00D+00 EMaxC= 1.00D-01 BMatC= 1.19D-03 BMatP= 4.61D-04
 IDIUse=3 WtCom= 1.83D-01 WtEn= 8.17D-01
 Coeff-Com: -0.343D-01 0.646D+00 0.388D+00
 Coeff-En:   0.000D+00 0.675D+00 0.325D+00
 Coeff:     -0.627D-02 0.669D+00 0.337D+00
 Gap=     0.210 Goal=   None    Shift=    0.000
 RMSDP=4.82D-04 MaxDP=1.12D-02 DE= 6.01D-04 OVMax= 1.22D-02

 Cycle   4  Pass 1  IDiag  1:
 E= -706.434550609232     Delta-E=       -0.001112069721 Rises=F Damp=F
 DIIS: error= 4.19D-04 at cycle   4 NSaved=   4.
 NSaved= 4 IEnMin= 4 EnMin= -706.434550609232     IErMin= 4 ErrMin= 4.19D-04
 ErrMax= 4.19D-04  0.00D+00 EMaxC= 1.00D-01 BMatC= 3.52D-05 BMatP= 4.61D-04
 IDIUse=3 WtCom= 9.96D-01 WtEn= 4.19D-03
 Coeff-Com: -0.211D-01 0.274D+00 0.183D+00 0.564D+00
 Coeff-En:   0.000D+00 0.000D+00 0.000D+00 0.100D+01
 Coeff:     -0.210D-01 0.273D+00 0.182D+00 0.566D+00
 Gap=     0.208 Goal=   None    Shift=    0.000
 RMSDP=9.30D-05 MaxDP=2.63D-03 DE=-1.11D-03 OVMax= 1.82D-03

 Cycle   5  Pass 1  IDiag  1:
 E= -706.434575865918     Delta-E=       -0.000025256686 Rises=F Damp=F
 DIIS: error= 1.22D-04 at cycle   5 NSaved=   5.
 NSaved= 5 IEnMin= 5 EnMin= -706.434575865918     IErMin= 5 ErrMin= 1.22D-04
 ErrMax= 1.22D-04  0.00D+00 EMaxC= 1.00D-01 BMatC= 6.89D-06 BMatP= 3.52D-05
 IDIUse=3 WtCom= 9.99D-01 WtEn= 1.22D-03
 Coeff-Com: -0.535D-02 0.520D-01 0.488D-01 0.317D+00 0.588D+00
 Coeff-En:   0.000D+00 0.000D+00 0.000D+00 0.159D+00 0.841D+00
 Coeff:     -0.534D-02 0.520D-01 0.487D-01 0.317D+00 0.588D+00
 Gap=     0.208 Goal=   None    Shift=    0.000
 RMSDP=4.98D-05 MaxDP=1.21D-03 DE=-2.53D-05 OVMax= 7.31D-04

 Cycle   6  Pass 1  IDiag  1:
 E= -706.434582667425     Delta-E=       -0.000006801507 Rises=F Damp=F
 DIIS: error= 2.77D-05 at cycle   6 NSaved=   6.
 NSaved= 6 IEnMin= 6 EnMin= -706.434582667425     IErMin= 6 ErrMin= 2.77D-05
 ErrMax= 2.77D-05  0.00D+00 EMaxC= 1.00D-01 BMatC= 2.10D-07 BMatP= 6.89D-06
 IDIUse=1 WtCom= 1.00D+00 WtEn= 0.00D+00
 Coeff-Com: -0.236D-03-0.602D-02 0.314D-03 0.683D-01 0.211D+00 0.727D+00
 Coeff:     -0.236D-03-0.602D-02 0.314D-03 0.683D-01 0.211D+00 0.727D+00
 Gap=     0.208 Goal=   None    Shift=    0.000
 RMSDP=1.23D-05 MaxDP=3.00D-04 DE=-6.80D-06 OVMax= 2.49D-04

 Cycle   7  Pass 1  IDiag  1:
 E= -706.434582852482     Delta-E=       -0.000000185057 Rises=F Damp=F
 DIIS: error= 1.56D-05 at cycle   7 NSaved=   7.
 NSaved= 7 IEnMin= 7 EnMin= -706.434582852482     IErMin= 7 ErrMin= 1.56D-05
 ErrMax= 1.56D-05  0.00D+00 EMaxC= 1.00D-01 BMatC= 7.34D-08 BMatP= 2.10D-07
 IDIUse=1 WtCom= 1.00D+00 WtEn= 0.00D+00
 Coeff-Com:  0.271D-03-0.831D-02-0.392D-02 0.200D-01 0.914D-01 0.450D+00
 Coeff-Com:  0.450D+00
 Coeff:      0.271D-03-0.831D-02-0.392D-02 0.200D-01 0.914D-01 0.450D+00
 Coeff:      0.450D+00
 Gap=     0.208 Goal=   None    Shift=    0.000
 RMSDP=3.77D-06 MaxDP=7.00D-05 DE=-1.85D-07 OVMax= 9.78D-05

 Cycle   8  Pass 1  IDiag  1:
 E= -706.434582916056     Delta-E=       -0.000000063574 Rises=F Damp=F
 DIIS: error= 7.60D-06 at cycle   8 NSaved=   8.
 NSaved= 8 IEnMin= 8 EnMin= -706.434582916056     IErMin= 8 ErrMin= 7.60D-06
 ErrMax= 7.60D-06  0.00D+00 EMaxC= 1.00D-01 BMatC= 1.32D-08 BMatP= 7.34D-08
 IDIUse=1 WtCom= 1.00D+00 WtEn= 0.00D+00
 Coeff-Com:  0.235D-03-0.513D-02-0.304D-02 0.435D-02 0.351D-01 0.216D+00
 Coeff-Com:  0.315D+00 0.438D+00
 Coeff:      0.235D-03-0.513D-02-0.304D-02 0.435D-02 0.351D-01 0.216D+00
 Coeff:      0.315D+00 0.438D+00
 Gap=     0.208 Goal=   None    Shift=    0.000
 RMSDP=1.17D-06 MaxDP=1.95D-05 DE=-6.36D-08 OVMax= 2.77D-05

 Cycle   9  Pass 1  IDiag  1:
 E= -706.434582926300     Delta-E=       -0.000000010244 Rises=F Damp=F
 DIIS: error= 1.18D-06 at cycle   9 NSaved=   9.
 NSaved= 9 IEnMin= 9 EnMin= -706.434582926300     IErMin= 9 ErrMin= 1.18D-06
 ErrMax= 1.18D-06  0.00D+00 EMaxC= 1.00D-01 BMatC= 4.64D-10 BMatP= 1.32D-08
 IDIUse=1 WtCom= 1.00D+00 WtEn= 0.00D+00
 Coeff-Com:  0.434D-04-0.524D-03-0.653D-03-0.162D-02-0.226D-02 0.605D-03
 Coeff-Com:  0.499D-01 0.170D+00 0.784D+00
 Coeff:      0.434D-04-0.524D-03-0.653D-03-0.162D-02-0.226D-02 0.605D-03
 Coeff:      0.499D-01 0.170D+00 0.784D+00
 Gap=     0.208 Goal=   None    Shift=    0.000
 RMSDP=3.68D-07 MaxDP=8.49D-06 DE=-1.02D-08 OVMax= 1.14D-05

 Cycle  10  Pass 1  IDiag  1:
 E= -706.434582926889     Delta-E=       -0.000000000589 Rises=F Damp=F
 DIIS: error= 2.20D-07 at cycle  10 NSaved=  10.
 NSaved=10 IEnMin=10 EnMin= -706.434582926889     IErMin=10 ErrMin= 2.20D-07
 ErrMax= 2.20D-07  0.00D+00 EMaxC= 1.00D-01 BMatC= 1.98D-11 BMatP= 4.64D-10
 IDIUse=1 WtCom= 1.00D+00 WtEn= 0.00D+00
 Coeff-Com:  0.799D-06 0.134D-03-0.185D-04-0.714D-03-0.254D-02-0.118D-01
 Coeff-Com: -0.948D-03 0.248D-01 0.255D+00 0.736D+00
 Coeff:      0.799D-06 0.134D-03-0.185D-04-0.714D-03-0.254D-02-0.118D-01
 Coeff:     -0.948D-03 0.248D-01 0.255D+00 0.736D+00
 Gap=     0.208 Goal=   None    Shift=    0.000
 RMSDP=1.02D-07 MaxDP=2.35D-06 DE=-5.89D-10 OVMax= 2.27D-06

 Cycle  11  Pass 1  IDiag  1:
 E= -706.434582926912     Delta-E=       -0.000000000023 Rises=F Damp=F
 DIIS: error= 7.39D-08 at cycle  11 NSaved=  11.
 NSaved=11 IEnMin=11 EnMin= -706.434582926912     IErMin=11 ErrMin= 7.39D-08
 ErrMax= 7.39D-08  0.00D+00 EMaxC= 1.00D-01 BMatC= 1.25D-12 BMatP= 1.98D-11
 IDIUse=1 WtCom= 1.00D+00 WtEn= 0.00D+00
 Coeff-Com: -0.242D-05 0.749D-04 0.426D-04-0.140D-03-0.669D-03-0.365D-02
 Coeff-Com: -0.344D-02-0.248D-02 0.331D-01 0.224D+00 0.753D+00
 Coeff:     -0.242D-05 0.749D-04 0.426D-04-0.140D-03-0.669D-03-0.365D-02
 Coeff:     -0.344D-02-0.248D-02 0.331D-01 0.224D+00 0.753D+00
 Gap=     0.208 Goal=   None    Shift=    0.000
 RMSDP=2.81D-08 MaxDP=7.57D-07 DE=-2.27D-11 OVMax= 6.96D-07

 Cycle  12  Pass 1  IDiag  1:
 E= -706.434582926914     Delta-E=       -0.000000000002 Rises=F Damp=F
 DIIS: error= 1.61D-08 at cycle  12 NSaved=  12.
 NSaved=12 IEnMin=12 EnMin= -706.434582926914     IErMin=12 ErrMin= 1.61D-08
 ErrMax= 1.61D-08  0.00D+00 EMaxC= 1.00D-01 BMatC= 6.71D-14 BMatP= 1.25D-12
 IDIUse=1 WtCom= 1.00D+00 WtEn= 0.00D+00
 Coeff-Com: -0.420D-06 0.357D-05 0.989D-05 0.168D-04 0.381D-04 0.162D-03
 Coeff-Com: -0.601D-03-0.243D-02-0.108D-01-0.661D-02 0.176D+00 0.844D+00
 Coeff:     -0.420D-06 0.357D-05 0.989D-05 0.168D-04 0.381D-04 0.162D-03
 Coeff:     -0.601D-03-0.243D-02-0.108D-01-0.661D-02 0.176D+00 0.844D+00
 Gap=     0.208 Goal=   None    Shift=    0.000
 RMSDP=1.19D-08 MaxDP=4.10D-07 DE=-1.82D-12 OVMax= 2.36D-07

 Cycle  13  Pass 1  IDiag  1:
 E= -706.434582926918     Delta-E=       -0.000000000005 Rises=F Damp=F
 DIIS: error= 4.68D-09 at cycle  13 NSaved=  13.
 NSaved=13 IEnMin=13 EnMin= -706.434582926918     IErMin=13 ErrMin= 4.68D-09
 ErrMax= 4.68D-09  0.00D+00 EMaxC= 1.00D-01 BMatC= 7.39D-15 BMatP= 6.71D-14
 IDIUse=1 WtCom= 1.00D+00 WtEn= 0.00D+00
 Coeff-Com:  0.103D-07-0.387D-05-0.516D-07 0.172D-04 0.615D-04 0.316D-03
 Coeff-Com:  0.340D-04-0.716D-03-0.642D-02-0.195D-01 0.379D-02 0.277D+00
 Coeff-Com:  0.745D+00
 Coeff:      0.103D-07-0.387D-05-0.516D-07 0.172D-04 0.615D-04 0.316D-03
 Coeff:      0.340D-04-0.716D-03-0.642D-02-0.195D-01 0.379D-02 0.277D+00
 Coeff:      0.745D+00
 Gap=     0.208 Goal=   None    Shift=    0.000
 RMSDP=2.26D-09 MaxDP=5.65D-08 DE=-4.55D-12 OVMax= 6.72D-08

 Error on total polarization charges =  0.02278
 SCF Done:  E(RB3LYP) =  -706.434582927     A.U. after   13 cycles
            NFock= 13  Conv=0.23D-08     -V/T= 2.0057
 KE= 7.024127903408D+02 PE=-2.171236811121D+03 EE= 5.159554146706D+02
 SMD-CDS (non-electrostatic) energy       (kcal/mol) =      -0.71
 (included in total energy above)
 Leave Link  502 at Wed Jan  8 00:53:43 2020, MaxMem=  4294967296 cpu:             436.9 elap:              30.9
 (Enter /home/cwagen/sw/g16/g16/l701.exe)
 ... and contract with generalized density number  0.
 Compute integral first derivatives.
 D1PCM: PCM CHGder 1st derivatives, ID1Alg=3 FixD1E=F DoIter=F DoCFld=F I1PDM=0.
 GePol: Maximum number of non-zero 1st derivatives   =     361
 Leave Link  701 at Wed Jan  8 00:53:48 2020, MaxMem=  4294967296 cpu:              60.3 elap:               4.6
 (Enter /home/cwagen/sw/g16/g16/l702.exe)
 L702 exits ... SP integral derivatives will be done elsewhere.
 Leave Link  702 at Wed Jan  8 00:53:48 2020, MaxMem=  4294967296 cpu:               0.8 elap:               0.2
 (Enter /home/cwagen/sw/g16/g16/l703.exe)
 Integral derivatives from FoFJK, PRISM(SPDF).
 Compute integral first derivatives, UseDBF=F ICtDFT=           0.
 Calling FoFJK, ICntrl=      2127 FMM=F ISym2X=0 I1Cent= 0 IOpClX= 0 NMat=1 NMatS=1 NMatT=0.
 FoFJK:  IHMeth= 1 ICntrl=    2127 DoSepK=F KAlg= 0 I1Cent=           0 FoldK=F
 IRaf=         0 NMat=       1 IRICut=       1 DoRegI=T DoRafI=F ISym2E= 0 IDoP0=0 IntGTp=1.
 FoFCou: FMM=F IPFlag=           0 FMFlag=      100000 FMFlg1=         800
         NFxFlg=           0 DoJE=F BraDBF=F KetDBF=F FulRan=T
         wScrn=  0.000000 ICntrl=      2127 IOpCl=  0 I1Cent=           0 NGrid=           0
         NMat0=    1 NMatS0=      1 NMatT0=    0 NMatD0=    1 NMtDS0=    0 NMtDT0=    0
 Symmetry not used in FoFCou.
 Leave Link  703 at Wed Jan  8 00:53:51 2020, MaxMem=  4294967296 cpu:              39.1 elap:               2.7
 (Enter /home/cwagen/sw/g16/g16/l716.exe)
 Dipole        = 4.50151390D-01 1.61472535D+00-1.19005083D+00
 ***** Axes restored to original set *****
 -------------------------------------------------------------------
 Center     Atomic                   Forces (Hartrees/Bohr)
 Number     Number              X              Y              Z
 -------------------------------------------------------------------
      1        6           0.041010029   -0.023968778   -0.029662730
      2        8          -0.007394161    0.011695937    0.025596618
      3        6          -0.009735422    0.015637059    0.001023754
      4        1           0.000602068   -0.000197288   -0.001200640
      5        1           0.001939513    0.001189013   -0.001122532
      6        1           0.001950257   -0.001279919   -0.000142447
      7       17           0.001048386    0.000651826    0.002745645
      8        6          -0.026955203   -0.004380009    0.003670336
      9        7          -0.002465467    0.000652158   -0.000908004
 -------------------------------------------------------------------
 Cartesian Forces:  Max     0.041010029 RMS     0.013760615
 Leave Link  716 at Wed Jan  8 00:53:53 2020, MaxMem=  4294967296 cpu:               1.4 elap:               0.2
 (Enter /home/cwagen/sw/g16/g16/l103.exe)

 GradGradGradGradGradGradGradGradGradGradGradGradGradGradGradGradGradGrad
 Berny optimization.
 Using GEDIIS/GDIIS optimizer.
 FormGI is forming the generalized inverse of G from B-inverse, IUseBI=4.
 Internal  Forces:  Max     0.027411587 RMS     0.008480193
 Search for a local minimum.
 Step number   2 out of a maximum of   41
 All quantities printed in internal units (Hartrees-Bohrs-Radians)
 RMS Force = .71378D-02 SwitMx=.10000D-02 MixMth= 1
 Mixed Optimization -- RFO/linear search
 Update second derivatives using D2CorX and points    1    2
 DE= -1.98D-02 DEPred=-1.91D-02 R= 1.04D+00
 TightC=F SS=  1.41D+00  RLast= 4.00D-01 DXNew= 5.0454D-01 1.2002D+00
 Trust test= 1.04D+00 RLast= 4.00D-01 DXMaxT set to 5.05D-01
 ITU=  1  0
 Use linear search instead of GDIIS.
     Eigenvalues ---    0.00230   0.04680   0.04771   0.05380   0.05951
     Eigenvalues ---    0.06651   0.09305   0.15979   0.16000   0.16301
     Eigenvalues ---    0.24511   0.25000   0.25819   0.29799   0.33960
     Eigenvalues ---    0.33996   0.34457   0.60159   1.219561000.00000
     Eigenvalues --- 1000.000001000.000001000.000001000.000001000.00000
     Eigenvalues --- 1000.000001000.000001000.000001000.000001000.00000
     Eigenvalues --- 1000.00000
 RFO step:  Lambda=-6.27769733D-03 EMin= 2.30442703D-03
 Quartic linear search produced a step of  0.60790.
 Iteration  1 RMS(Cart)=  0.10778801 RMS(Int)=  0.01055905
 Iteration  2 RMS(Cart)=  0.00972003 RMS(Int)=  0.00753490
 Iteration  3 RMS(Cart)=  0.00003420 RMS(Int)=  0.00753483
 Iteration  4 RMS(Cart)=  0.00000083 RMS(Int)=  0.00753483
 Iteration  1 RMS(Cart)=  0.00000000 RMS(Int)=  0.00000000
 ITry= 1 IFail=0 DXMaxC= 3.04D-01 DCOld= 1.00D+10 DXMaxT= 5.05D-01 DXLimC= 3.00D+00 Rises=F
 Variable       Old X    -DE/DX   Delta X   Delta X   Delta X     New X
                                 (Linear)    (Quad)   (Total)
    R1        2.37634  -0.02635  -0.04616  -0.02570  -0.07186   2.30447
    R2        2.91118  -0.01103  -0.02058  -0.04770  -0.06828   2.84290
    R3        4.34637   0.00065   0.00000   0.00000   0.00000   4.34637
    R4        3.02356  -0.02741   0.00000   0.00000   0.00000   3.02356
    R5        2.06980  -0.00112  -0.00213  -0.00347  -0.00561   2.06419
    R6        2.07372  -0.00212  -0.00059  -0.00950  -0.01009   2.06363
    R7        2.06542   0.00231  -0.00198   0.01243   0.01045   2.07586
    R8        2.20243  -0.00224  -0.00413   0.00028  -0.00386   2.19858
    A1        2.08685   0.00828   0.05482   0.02571   0.06137   2.14822
    A2        1.93903  -0.00163  -0.04866  -0.00096  -0.04481   1.89422
    A3        1.93142   0.00341   0.02372   0.08952   0.08746   2.01887
    A4        1.80906  -0.00998  -0.06999  -0.04892  -0.11354   1.69552
    A5        1.92035   0.00286   0.09022  -0.03192   0.03736   1.95771
    A6        1.74248  -0.00657  -0.05611  -0.05831  -0.10831   1.63417
    A7        1.96552  -0.00014  -0.00514   0.00332  -0.00200   1.96351
    A8        1.91574  -0.00165   0.02208  -0.03514  -0.01299   1.90275
    A9        1.86110  -0.00019  -0.02450   0.01904  -0.00553   1.85557
   A10        1.90174   0.00126  -0.00111   0.01542   0.01426   1.91600
   A11        1.91716  -0.00006   0.00534  -0.00673  -0.00172   1.91544
   A12        1.90152   0.00078   0.00363   0.00385   0.00770   1.90921
   A13        3.03388   0.00335  -0.04007   0.14853   0.10846   3.14235
   A14        2.97980  -0.00043   0.03591  -0.05528  -0.01937   2.96043
    D1       -3.11729   0.00688   0.07343   0.05392   0.13286  -2.98443
    D2       -0.99529   0.00721   0.08406   0.05093   0.14051  -0.85478
    D3        1.06193   0.00716   0.08679   0.04769   0.13977   1.20170
    D4       -0.94766   0.00184  -0.01265   0.02843   0.01648  -0.93119
    D5        1.17435   0.00217  -0.00202   0.02545   0.02412   1.19847
    D6       -3.05163   0.00212   0.00072   0.02220   0.02338  -3.02824
    D7        0.90241  -0.00899  -0.06614  -0.07039  -0.14251   0.75991
    D8        3.02442  -0.00866  -0.05550  -0.07338  -0.13486   2.88956
    D9       -1.20155  -0.00871  -0.05277  -0.07662  -0.13560  -1.33715
         Item               Value     Threshold  Converged?
 Maximum Force            0.026355     0.000450     NO 
 RMS     Force            0.007138     0.000300     NO 
 Maximum Displacement     0.303794     0.001800     NO 
 RMS     Displacement     0.108031     0.001200     NO 
 Predicted change in Energy=-6.800869D-03
 Lowest energy point so far.  Saving SCF results.
 GradGradGradGradGradGradGradGradGradGradGradGradGradGradGradGradGradGrad

 Leave Link  103 at Wed Jan  8 00:54:00 2020, MaxMem=  4294967296 cpu:              90.7 elap:               6.5
 (Enter /home/cwagen/sw/g16/g16/l202.exe)
                          Input orientation:                          
 ---------------------------------------------------------------------
 Center     Atomic      Atomic             Coordinates (Angstroms)
 Number     Number       Type             X           Y           Z
 ---------------------------------------------------------------------
      1          6           0       -0.040357   -0.479900   -0.273627
      2          8           0       -0.294111   -0.663446   -1.452202
      3          6           0       -0.389915   -1.468340    0.805263
      4          1           0       -0.228681   -1.066839    1.808245
      5          1           0       -1.434113   -1.766493    0.690026
      6          1           0        0.258188   -2.340896    0.646170
      7         17           0       -1.343235    1.253407    0.493284
      8          6           0        1.332663    0.283776    0.029050
      9          7           0        2.376511    0.790017    0.116713
 ---------------------------------------------------------------------
                    Distance matrix (angstroms):
                    1          2          3          4          5
     1  C    0.000000
     2  O    1.219475   0.000000
     3  C    1.504396   2.398579   0.000000
     4  H    2.171211   3.285959   1.092325   0.000000
     5  H    2.127559   2.665607   1.092028   1.786896   0.000000
     6  H    2.097251   2.742634   1.098500   1.791837   1.787665
     7  Cl   2.300000   2.925731   2.900699   2.890484   3.027667
     8  C    1.600000   2.395356   2.576760   2.725342   3.506501
     9  N    2.757954   3.421443   3.636948   3.618870   4.624424
                    6          7          8          9
     6  H    0.000000
     7  Cl   3.937886   0.000000
     8  C    2.902454   2.883770   0.000000
     9  N    3.817098   3.767367   1.163436   0.000000
 Stoichiometry    C3H3ClNO(1-)
 Framework group  C1[X(C3H3ClNO)]
 Deg. of freedom    21
 Full point group                 C1      NOp   1
 RotChk:  IX=0 Diff= 1.98D-01
 Largest Abelian subgroup         C1      NOp   1
 Largest concise Abelian subgroup C1      NOp   1
                         Standard orientation:                         
 ---------------------------------------------------------------------
 Center     Atomic      Atomic             Coordinates (Angstroms)
 Number     Number       Type             X           Y           Z
 ---------------------------------------------------------------------
      1          6           0        0.237173    0.620222    0.210556
      2          8           0        0.233160    1.061598    1.347345
      3          6           0       -0.058307    1.464325   -0.999150
      4          1           0       -0.162423    0.868955   -1.909022
      5          1           0       -0.974348    2.031791   -0.822013
      6          1           0        0.786258    2.158790   -1.104653
      7         17           0       -1.531252   -0.832884   -0.015625
      8          6           0        1.332889   -0.505779   -0.091981
      9          7           0        2.206569   -1.266557   -0.199142
 ---------------------------------------------------------------------
 Rotational constants (GHZ):           3.2588962           2.2786083           1.7876794
 Leave Link  202 at Wed Jan  8 00:54:00 2020, MaxMem=  4294967296 cpu:               2.4 elap:               0.2
 (Enter /home/cwagen/sw/g16/g16/l301.exe)
 Standard basis: 6-31+G(d) (6D, 7F)
 Ernie: Thresh=  0.10000D-02 Tol=  0.10000D-05 Strict=F.
 There are   124 symmetry adapted cartesian basis functions of A   symmetry.
 There are   124 symmetry adapted basis functions of A   symmetry.
   124 basis functions,   228 primitive gaussians,   124 cartesian basis functions
    27 alpha electrons       27 beta electrons
       nuclear repulsion energy       250.8345988825 Hartrees.
 IExCor=  402 DFT=T Ex+Corr=B3LYP ExCW=0 ScaHFX=  0.200000
 ScaDFX=  0.800000  0.720000  1.000000  0.810000 ScalE2=  1.000000  1.000000
 IRadAn=      5 IRanWt=     -1 IRanGd=            0 ICorTp=0 IEmpDi=  4
 NAtoms=    9 NActive=    9 NUniq=    9 SFac= 1.00D+00 NAtFMM=   60 NAOKFM=F Big=F
 Integral buffers will be    131072 words long.
 Raffenetti 2 integral format.
 Two-electron integral symmetry is turned on.
 ------------------------------------------------------------------------------
 Polarizable Continuum Model (PCM)
 =================================
 Model                : PCM.
 Atomic radii         : SMD-Coulomb.
 Polarization charges : Total charges.
 Charge compensation  : None.
 Solution method      : On-the-fly selection.
 Cavity type          : VdW (van der Waals Surface) (Alpha=1.000).
 Cavity algorithm     : GePol (No added spheres)
                        Default sphere list used, NSphG=    9.
                        Lebedev-Laikov grids with approx.  5.0 points / Ang**2.
                        Smoothing algorithm: York/Karplus (Gamma=1.0000).
                        Polarization charges: spherical gaussians, with
                                              point-specific exponents (IZeta= 3).
                        Self-potential: point-specific (ISelfS= 7).
                        Self-field    : sphere-specific E.n sum rule (ISelfD= 2).
 1st derivatives      : Analytical E(r).r(x)/FMM algorithm (CHGder, D1EAlg=3).
                        Cavity 1st derivative terms included.
 Solvent              : TetraHydroFuran, Eps=   7.425700 Eps(inf)=   1.974025
 ------------------------------------------------------------------------------
 Spheres list:
 ISph  on   Nord     Re0    Alpha      Xe            Ye            Ze
    1   C      1    1.8500  1.000      0.237173      0.620222      0.210556
    2   O      2    2.2940  1.000      0.233160      1.061598      1.347345
    3   C      3    1.8500  1.000     -0.058307      1.464325     -0.999150
    4   H      4    1.2000  1.000     -0.162423      0.868955     -1.909022
    5   H      5    1.2000  1.000     -0.974348      2.031791     -0.822013
    6   H      6    1.2000  1.000      0.786258      2.158790     -1.104653
    7  Cl      7    2.3800  1.000     -1.531252     -0.832884     -0.015625
    8   C      8    1.8500  1.000      1.332889     -0.505779     -0.091981
    9   N      9    1.8900  1.000      2.206569     -1.266557     -0.199142
 ------------------------------------------------------------------------------
 GePol: Number of generator spheres                  =       9
 GePol: Total number of spheres                      =       9
 GePol: Number of exposed spheres                    =       9 (100.00%)
 GePol: Number of points                             =    1148
 GePol: Average weight of points                     =       0.14
 GePol: Minimum weight of points                     =   0.52D-07
 GePol: Maximum weight of points                     =    0.18138
 GePol: Number of points with low weight             =      38
 GePol: Fraction of low-weight points (<1% of avg)   =       3.31%
 GePol: Cavity surface area                          =    155.805 Ang**2
 GePol: Cavity volume                                =    143.771 Ang**3
 ------------------------------------------------------------------------------
 Atomic radii for non-electrostatic terms: SMD-CDS.
 ------------------------------------------------------------------------------
 PCM non-electrostatic energy =        -0.0011312404 Hartrees.
 Nuclear repulsion after PCM non-electrostatic terms =      250.8334676421 Hartrees.
[...]
      2        8           0.000003201   -0.000101994    0.000023904
      3        6           0.000036126   -0.000046191    0.000075821
      4        1          -0.000047616   -0.000028805    0.000020623
      5        1           0.000028265    0.000032666   -0.000004748
      6        1           0.000027451    0.000008953   -0.000005349
      7       17          -0.008313483    0.011596059    0.005076105
      8        6          -0.022506568   -0.012938357   -0.005047528
      9        7          -0.000027303   -0.000007694    0.000003310
 -------------------------------------------------------------------
 Cartesian Forces:  Max     0.030799926 RMS     0.008343689
 Leave Link  716 at Wed Jan  8 00:56:11 2020, MaxMem=  4294967296 cpu:               1.3 elap:               0.1
 (Enter /home/cwagen/sw/g16/g16/l103.exe)

 GradGradGradGradGradGradGradGradGradGradGradGradGradGradGradGradGradGrad
 Berny optimization.
 Using GEDIIS/GDIIS optimizer.
 FormGI is forming the generalized inverse of G from B-inverse, IUseBI=4.
 Internal  Forces:  Max     0.026474462 RMS     0.005478737
 Search for a local minimum.
 Step number   6 out of a maximum of   41
 All quantities printed in internal units (Hartrees-Bohrs-Radians)
 RMS Force = .40811D-04 SwitMx=.10000D-02 MixMth= 2
 Mixed Optimization -- En-DIIS/RFO-DIIS
 Swapping is turned off.
 Update second derivatives using D2CorX and points    2    3    4    5    6
 DE= -4.79D-06 DEPred=-3.10D-06 R= 1.54D+00
 TightC=F SS=  1.41D+00  RLast= 7.96D-03 DXNew= 1.4270D+00 2.3889D-02
 Trust test= 1.54D+00 RLast= 7.96D-03 DXMaxT set to 8.49D-01
 ITU=  1  1  1  1  1  0
     Eigenvalues ---    0.00231   0.04589   0.05062   0.05395   0.05821
     Eigenvalues ---    0.05947   0.07299   0.16147   0.16440   0.16750
     Eigenvalues ---    0.21654   0.25105   0.28496   0.30633   0.34016
     Eigenvalues ---    0.34123   0.34480   0.73199   1.220181000.00000
     Eigenvalues --- 1000.000001000.000001000.000001000.000001000.00000
     Eigenvalues --- 1000.000001000.000001000.000001000.000001000.00000
     Eigenvalues --- 1000.00000
 En-DIIS/RFO-DIIS/Sim-DIIS IScMMF=       -3 using points:     6    5    4
 RFO step:  Lambda=-1.25742231D-06.
 NNeg= 0 NGDIIS= 3 SimSw=  2.50D-01 Rises=F DC= -4.79D-06 SmlDif=  1.00D-05
 NRisDI= 0 DoIntr=F SqrtH=F CThrHd= 10.0 CDAdj=  3.0
 RMS Error=  0.3821809310D-03 NUsed= 3 OKEnD=F EnDIS=F
 InvSVX:  RCond= 3.26D-06 Info=           0 Equed=N FErr=  2.54D-15 BErr=  7.32D-17
 DidBck=F Rises=F RFO-DIIS coefs:    1.00024    0.04823   -0.04847
 Iteration  1 RMS(Cart)=  0.00046861 RMS(Int)=  0.00000026
 Iteration  2 RMS(Cart)=  0.00000022 RMS(Int)=  0.00000014
 Iteration  1 RMS(Cart)=  0.00000000 RMS(Int)=  0.00000000
 ITry= 1 IFail=0 DXMaxC= 1.24D-03 DCOld= 1.00D+10 DXMaxT= 8.49D-01 DXLimC= 3.00D+00 Rises=F
 Variable       Old X    -DE/DX   Delta X   Delta X   Delta X     New X
                                 (Linear)    (Quad)   (Total)
    R1        2.31954  -0.00001  -0.00017   0.00013  -0.00003   2.31951
    R2        2.86256   0.00007  -0.00018   0.00037   0.00019   2.86275
    R3        4.34637   0.01515   0.00000   0.00000   0.00000   4.34637
    R4        3.02356  -0.02647   0.00000   0.00000   0.00000   3.02356
    R5        2.06273   0.00000  -0.00002   0.00002   0.00000   2.06273
    R6        2.06639  -0.00003   0.00005  -0.00011  -0.00006   2.06633
    R7        2.07809   0.00001   0.00000  -0.00001  -0.00001   2.07809
    R8        2.20102  -0.00003   0.00001  -0.00003  -0.00002   2.20100
    A1        2.15571  -0.00009  -0.00013  -0.00037  -0.00050   2.15521
    A2        1.90363   0.00005   0.00028   0.00022   0.00049   1.90413
    A3        2.02135   0.00010   0.00004   0.00035   0.00039   2.02174
    A4        1.70755   0.00001   0.00021   0.00004   0.00025   1.70780
    A5        1.95382  -0.00004   0.00001  -0.00020  -0.00019   1.95364
    A6        1.59653   0.00000  -0.00039   0.00013  -0.00027   1.59626
    A7        1.96307   0.00009  -0.00021   0.00078   0.00057   1.96364
    A8        1.90801  -0.00006   0.00012  -0.00047  -0.00035   1.90766
    A9        1.87410  -0.00004   0.00006  -0.00031  -0.00025   1.87385
   A10        1.91697  -0.00003   0.00008  -0.00032  -0.00024   1.91673
   A11        1.90352  -0.00001   0.00000   0.00016   0.00016   1.90368
   A12        1.89668   0.00003  -0.00006   0.00015   0.00009   1.89678
   A13        3.11221  -0.00004  -0.00010  -0.00085  -0.00094   3.11127
   A14        2.98364  -0.00001   0.00052  -0.00050   0.00001   2.98365
    D1       -3.00009  -0.00001  -0.00035  -0.00010  -0.00045  -3.00054
    D2       -0.86579  -0.00002  -0.00029  -0.00032  -0.00061  -0.86640
    D3        1.18887  -0.00003  -0.00026  -0.00056  -0.00082   1.18805
    D4       -0.92100   0.00002   0.00012   0.00003   0.00014  -0.92085
    D5        1.21331   0.00001   0.00017  -0.00019  -0.00002   1.21329
    D6       -3.01522   0.00000   0.00020  -0.00043  -0.00023  -3.01545
    D7        0.73334   0.00002  -0.00023   0.00015  -0.00008   0.73327
    D8        2.86765   0.00001  -0.00017  -0.00007  -0.00024   2.86741
    D9       -1.36088  -0.00001  -0.00014  -0.00031  -0.00045  -1.36133
         Item               Value     Threshold  Converged?
 Maximum Force            0.000100     0.000450     YES
 RMS     Force            0.000041     0.000300     YES
 Maximum Displacement     0.001237     0.001800     YES
 RMS     Displacement     0.000469     0.001200     YES
 Predicted change in Energy=-1.624504D-07
 Optimization completed.
    -- Stationary point found.
                           ----------------------------
                           !   Optimized Parameters   !
                           ! (Angstroms and Degrees)  !
 --------------------------                            --------------------------
 ! Name  Definition              Value          Derivative Info.                !
 --------------------------------------------------------------------------------
 ! R1    R(1,2)                  1.2274         -DE/DX =    0.0                 !
 ! R2    R(1,3)                  1.5148         -DE/DX =    0.0001              !
 ! R3    R(1,7)                  2.3            -DE/DX =    0.0152              !
 ! R4    R(1,8)                  1.6            -DE/DX =   -0.0265              !
 ! R5    R(3,4)                  1.0916         -DE/DX =    0.0                 !
 ! R6    R(3,5)                  1.0935         -DE/DX =    0.0                 !
 ! R7    R(3,6)                  1.0997         -DE/DX =    0.0                 !
 ! R8    R(8,9)                  1.1647         -DE/DX =    0.0                 !
 ! A1    A(2,1,3)              123.513          -DE/DX =   -0.0001              !
 ! A2    A(2,1,7)              109.0701         -DE/DX =    0.0001              !
 ! A3    A(2,1,8)              115.815          -DE/DX =    0.0001              !
 ! A4    A(3,1,7)               97.8355         -DE/DX =    0.0                 !
 ! A5    A(3,1,8)              111.9457         -DE/DX =    0.0                 !
 ! A6    A(7,1,8)               91.4742         -DE/DX =    0.0                 !
 ! A7    A(1,3,4)              112.4758         -DE/DX =    0.0001              !
 ! A8    A(1,3,5)              109.3208         -DE/DX =   -0.0001              !
 ! A9    A(1,3,6)              107.3778         -DE/DX =    0.0                 !
 ! A10   A(4,3,5)              109.8341         -DE/DX =    0.0                 !
 ! A11   A(4,3,6)              109.0637         -DE/DX =    0.0                 !
 ! A12   A(5,3,6)              108.6719         -DE/DX =    0.0                 !
 ! A13   L(1,8,9,6,-1)         178.3162         -DE/DX =    0.0                 !
 ! A14   L(1,8,9,6,-2)         170.9497         -DE/DX =    0.0                 !
 ! D1    D(2,1,3,4)           -171.8927         -DE/DX =    0.0                 !
 ! D2    D(2,1,3,5)            -49.6061         -DE/DX =    0.0                 !
 ! D3    D(2,1,3,6)             68.1173         -DE/DX =    0.0                 !
 ! D4    D(7,1,3,4)            -52.7693         -DE/DX =    0.0                 !
 ! D5    D(7,1,3,5)             69.5173         -DE/DX =    0.0                 !
 ! D6    D(7,1,3,6)           -172.7593         -DE/DX =    0.0                 !
 ! D7    D(8,1,3,4)             42.0174         -DE/DX =    0.0                 !
 ! D8    D(8,1,3,5)            164.304          -DE/DX =    0.0                 !
 ! D9    D(8,1,3,6)            -77.9726         -DE/DX =    0.0                 !
 --------------------------------------------------------------------------------
 Lowest energy point so far.  Saving SCF results.
 Largest change from initial coordinates is atom    6       0.170 Angstoms.
 GradGradGradGradGradGradGradGradGradGradGradGradGradGradGradGradGradGrad

 Leave Link  103 at Wed Jan  8 00:56:15 2020, MaxMem=  4294967296 cpu:              47.9 elap:               3.5
 (Enter /home/cwagen/sw/g16/g16/l202.exe)
                          Input orientation:                          
 ---------------------------------------------------------------------
 Center     Atomic      Atomic             Coordinates (Angstroms)
 Number     Number       Type             X           Y           Z
 ---------------------------------------------------------------------
      1          6           0       -0.046506   -0.483173   -0.287088
      2          8           0       -0.300238   -0.667681   -1.473768
      3          6           0       -0.387319   -1.475816    0.805215
      4          1           0       -0.211436   -1.073379    1.804511
      5          1           0       -1.433482   -1.778107    0.705815
      6          1           0        0.250128   -2.359476    0.656553
      7         17           0       -1.307014    1.278581    0.485792
      8          6           0        1.313639    0.301170    0.020823
      9          7           0        2.359179    0.799166    0.145071
 ---------------------------------------------------------------------
                    Distance matrix (angstroms):
                    1          2          3          4          5
     1  C    0.000000
     2  O    1.227450   0.000000
     3  C    1.514800   2.419593   0.000000
     4  H    2.179525   3.304480   1.091550   0.000000
     5  H    2.141591   2.695900   1.093489   1.788063   0.000000
     6  H    2.121076   2.775490   1.099679   1.784627   1.781842
     7  Cl   2.300000   2.939627   2.921399   2.910503   3.067205
     8  C    1.600000   2.403554   2.581901   2.719703   3.512732
     9  N    2.760159   3.441624   3.626925   3.587231   4.619637
                    6          7          8          9
     6  H    0.000000
     7  Cl   3.960973   0.000000
     8  C    2.935004   2.835375   0.000000
     9  N    3.832327   3.713071   1.164728   0.000000
 Stoichiometry    C3H3ClNO(1-)
 Framework group  C1[X(C3H3ClNO)]
 Deg. of freedom    21
 Full point group                 C1      NOp   1
 RotChk:  IX=0 Diff= 2.99D-15
 Largest Abelian subgroup         C1      NOp   1
 Largest concise Abelian subgroup C1      NOp   1
                         Standard orientation:                         
 ---------------------------------------------------------------------
 Center     Atomic      Atomic             Coordinates (Angstroms)
 Number     Number       Type             X           Y           Z
 ---------------------------------------------------------------------
      1          6           0        0.240627    0.633503    0.215305
      2          8           0        0.238460    1.086672    1.356035
      3          6           0       -0.021992    1.472356   -1.018379
      4          1           0       -0.116682    0.867355   -1.921977
      5          1           0       -0.931434    2.060815   -0.868885
      6          1           0        0.827669    2.160758   -1.134449
      7         17           0       -1.521804   -0.825926   -0.016863
      8          6           0        1.297945   -0.533250   -0.068893
      9          7           0        2.154852   -1.311031   -0.200641
 ---------------------------------------------------------------------
 Rotational constants (GHZ):           3.1761854           2.3234382           1.8019929
 Leave Link  202 at Wed Jan  8 00:56:15 2020, MaxMem=  4294967296 cpu:               1.5 elap:               0.3
 (Enter /home/cwagen/sw/g16/g16/l601.exe)
 Copying SCF densities to generalized density rwf, IOpCl= 0 IROHF=0.

 **********************************************************************

            Population analysis using the SCF density.

 **********************************************************************

 Orbital symmetries:
       Occupied  (A) (A) (A) (A) (A) (A) (A) (A) (A) (A) (A) (A)
                 (A) (A) (A) (A) (A) (A) (A) (A) (A) (A) (A) (A)
                 (A) (A) (A)
       Virtual   (A) (A) (A) (A) (A) (A) (A) (A) (A) (A) (A) (A)
                 (A) (A) (A) (A) (A) (A) (A) (A) (A) (A) (A) (A)
                 (A) (A) (A) (A) (A) (A) (A) (A) (A) (A) (A) (A)
                 (A) (A) (A) (A) (A) (A) (A) (A) (A) (A) (A) (A)
                 (A) (A) (A) (A) (A) (A) (A) (A) (A) (A) (A) (A)
                 (A) (A) (A) (A) (A) (A) (A) (A) (A) (A) (A) (A)
                 (A) (A) (A) (A) (A) (A) (A) (A) (A) (A) (A) (A)
                 (A) (A) (A) (A) (A) (A) (A) (A) (A) (A) (A) (A)
                 (A)
 The electronic state is 1-A.
 Alpha  occ. eigenvalues -- -101.44322 -19.11659 -14.32728 -10.30089 -10.21952
 Alpha  occ. eigenvalues --  -10.17105  -9.35853  -7.11833  -7.11507  -7.11490
 Alpha  occ. eigenvalues --   -1.01984  -0.89056  -0.74084  -0.69866  -0.59588
 Alpha  occ. eigenvalues --   -0.46540  -0.42736  -0.41821  -0.38506  -0.36211
 Alpha  occ. eigenvalues --   -0.35560  -0.32563  -0.32184  -0.24839  -0.23942
 Alpha  occ. eigenvalues --   -0.23427  -0.22934
 Alpha virt. eigenvalues --   -0.01537   0.02571   0.04026   0.04353   0.05696
 Alpha virt. eigenvalues --    0.07052   0.07195   0.08768   0.09768   0.10305
 Alpha virt. eigenvalues --    0.10596   0.11148   0.12753   0.13764   0.14324
 Alpha virt. eigenvalues --    0.14490   0.15570   0.17616   0.18357   0.21964
 Alpha virt. eigenvalues --    0.24491   0.25218   0.25667   0.25786   0.27726
 Alpha virt. eigenvalues --    0.28748   0.29736   0.31200   0.34037   0.35834
 Alpha virt. eigenvalues --    0.38681   0.41635   0.45768   0.61548   0.62991
 Alpha virt. eigenvalues --    0.66017   0.67358   0.69047   0.70529   0.72726
 Alpha virt. eigenvalues --    0.73726   0.77618   0.78227   0.80002   0.81794
 Alpha virt. eigenvalues --    0.84950   0.89434   0.94786   0.96876   0.97418
 Alpha virt. eigenvalues --    0.98412   0.99589   1.01793   1.02539   1.05419
 Alpha virt. eigenvalues --    1.06951   1.12030   1.15394   1.18274   1.30054
 Alpha virt. eigenvalues --    1.33523   1.33865   1.36766   1.45512   1.47423
 Alpha virt. eigenvalues --    1.49558   1.55351   1.56999   1.64768   1.67656
 Alpha virt. eigenvalues --    1.73196   1.77241   1.84038   1.89121   1.95443
 Alpha virt. eigenvalues --    1.96782   1.97826   2.00822   2.07562   2.19855
 Alpha virt. eigenvalues --    2.26690   2.28812   2.34128   2.46393   2.55566
 Alpha virt. eigenvalues --    2.71496   2.79736   2.86843   2.95021   3.10983
 Alpha virt. eigenvalues --    3.23783   4.15231   4.19733   4.34471   4.36591
 Alpha virt. eigenvalues --    4.41998   4.70021
          Condensed to atoms (all electrons):
               1          2          3          4          5          6
     1  C    6.104290   0.646609   0.189250  -0.099544  -0.074507   0.000103
     2  O    0.646609   8.221866  -0.164749   0.009010  -0.000358  -0.005855
     3  C    0.189250  -0.164749   5.792848   0.388975   0.393486   0.350564
     4  H   -0.099544   0.009010   0.388975   0.475260  -0.022100  -0.027755
     5  H   -0.074507  -0.000358   0.393486  -0.022100   0.462285  -0.024612
     6  H    0.000103  -0.005855   0.350564  -0.027755  -0.024612   0.488428
     7  Cl   0.123672  -0.094239  -0.143377   0.002446  -0.006482   0.007131
     8  C   -1.033272  -0.186585  -0.175473   0.035396   0.026393  -0.023274
     9  N   -0.039930  -0.009943  -0.018721   0.000712   0.000201  -0.001230
               7          8          9
     1  C    0.123672  -1.033272  -0.039930
     2  O   -0.094239  -0.186585  -0.009943
     3  C   -0.143377  -0.175473  -0.018721
     4  H    0.002446   0.035396   0.000712
     5  H   -0.006482   0.026393   0.000201
     6  H    0.007131  -0.023274  -0.001230
     7  Cl  17.768047  -0.030035  -0.024880
     8  C   -0.030035   6.473879   0.566764
     9  N   -0.024880   0.566764   7.145520
 Mulliken charges:
               1
     1  C    0.183329
     2  O   -0.415755
     3  C   -0.612803
     4  H    0.237600
     5  H    0.245694
     6  H    0.236500
     7  Cl  -0.602282
     8  C    0.346208
     9  N   -0.618491
 Sum of Mulliken charges =  -1.00000
 Mulliken charges with hydrogens summed into heavy atoms:
               1
     1  C    0.183329
     2  O   -0.415755
     3  C    0.106992
     7  Cl  -0.602282
     8  C    0.346208
     9  N   -0.618491
 Electronic spatial extent (au):  <R**2>=            736.0880
 Charge=             -1.0000 electrons
 Dipole moment (field-independent basis, Debye):
    X=              1.0134    Y=              4.6108    Z=             -3.0740  Tot=              5.6335
 Quadrupole moment (field-independent basis, Debye-Ang):
   XX=            -63.4447   YY=            -53.2113   ZZ=            -49.7545
   XY=              1.8210   XZ=              0.2479   YZ=             -5.3321
 Traceless Quadrupole moment (field-independent basis, Debye-Ang):
   XX=             -7.9746   YY=              2.2588   ZZ=              5.7157
   XY=              1.8210   XZ=              0.2479   YZ=             -5.3321
 Octapole moment (field-independent basis, Debye-Ang**2):
  XXX=            -11.6204  YYY=             16.6978  ZZZ=             -5.5322  XYY=             -6.8056
  XXY=             26.6978  XXZ=              3.4700  XZZ=             -0.8523  YZZ=             -1.9310
  YYZ=             -3.6626  XYZ=             -2.5079
 Hexadecapole moment (field-independent basis, Debye-Ang**3):
 XXXX=           -598.1802 YYYY=           -376.1488 ZZZZ=           -192.6527 XXXY=             32.6064
 XXXZ=              7.5593 YYYX=             14.3353 YYYZ=             -8.3707 ZZZX=             -0.1429
 ZZZY=             -5.5367 XXYY=           -172.5249 XXZZ=           -119.4928 YYZZ=            -98.6264
 XXYZ=             -4.9061 YYXZ=              1.8308 ZZXY=             -0.4622
 N-N= 2.505655540117D+02 E-N=-2.179736097981D+03  KE= 7.025782343159D+02
 No NMR shielding tensors so no spin-rotation constants.
 Leave Link  601 at Wed Jan  8 00:56:16 2020, MaxMem=  4294967296 cpu:              12.4 elap:               0.9
 (Enter /home/cwagen/sw/g16/g16/l9999.exe)
 1\1\GINC-NODE082\FOpt\RB3LYP\6-31+G(d)\C3H3Cl1N1O1(1-)\CWAGEN\08-Jan-2
 020\0\\#p opt=modredundant b3lyp/6-31+g(d) scrf=(smd, solvent=tetrahyd
 rofuran)\\title\\-1,1\C,-0.0465063334,-0.4831728061,-0.2870882856\O,-0
 .300237739,-0.6676805013,-1.4737684044\C,-0.3873191013,-1.4758157423,0
 .8052150898\H,-0.2114358353,-1.0733788832,1.80451054\H,-1.4334821128,-
 1.7781070626,0.7058150797\H,0.2501280723,-2.359475729,0.6565528083\Cl,
 -1.30701368,1.2785814475,0.485791519\C,1.3136394583,0.3011704658,0.020
 8225194\N,2.3591790414,0.7991661711,0.1450706338\\Version=AS64L-G16Rev
 A.03\State=1-A\HF=-706.4408903\RMSD=8.249e-09\RMSF=8.344e-03\Dipole=0.
 0227493,-2.0715236,0.7877781\Quadrupole=-6.2229216,3.5500271,2.6728945
 ,0.4344287,0.0141405,-4.021573\PG=C01 [X(C3H3Cl1N1O1)]\\@


 LIFE IS SO UNCERTAIN - EAT DESSERT FIRST.
 Job cpu time:       0 days  0 hours 52 minutes  4.6 seconds.
 Elapsed time:       0 days  0 hours  3 minutes 45.9 seconds.
 File lengths (MBytes):  RWF=     34 Int=      0 D2E=      0 Chk=      3 Scr=      1
 Normal termination of Gaussian 16 at Wed Jan  8 00:56:17 2020.
