 Entering Gaussian System, Link 0=g16
 Input=scan_250_190.gjf
 Output=scan_250_190.out
 Initial command:
 /home/cwagen/sw/g16/g16/l1.exe "/scratch/users/cwagen/cwagen_scan_250_190/Gau-23307.inp" -scrdir="/scratch/users/cwagen/cwagen_scan_250_190/"
 Entering Link 1 = /home/cwagen/sw/g16/g16/l1.exe PID=     23308.
  
 Copyright (c) 1988,1990,1992,1993,1995,1998,2003,2009,2016,
            Gaussian, Inc.  All Rights Reserved.
  
 This is part of the Gaussian(R) 16 program.  It is based on
 the Gaussian(R) 09 system (copyright 2009, Gaussian, Inc.),
 the Gaussian(R) 03 system (copyright 2003, Gaussian, Inc.),
 the Gaussian(R) 98 system (copyright 1998, Gaussian, Inc.),
 the Gaussian(R) 94 system (copyright 1995, Gaussian, Inc.),
 the Gaussian 92(TM) system (copyright 1992, Gaussian, Inc.),
 the Gaussian 90(TM) system (copyright 1990, Gaussian, Inc.),
 the Gaussian 88(TM) system (copyright 1988, Gaussian, Inc.),
 the Gaussian 86(TM) system (copyright 1986, Carnegie Mellon
 University), and the Gaussian 82(TM) system (copyright 1983,
 Carnegie Mellon University). Gaussian is a federally registered
 trademark of Gaussian, Inc.
  
 This software contains proprietary and confidential information,
 including trade secrets, belonging to Gaussian, Inc.
  
 This software is provided under written license and may be
 used, copied, transmitted, or stored only in accord with that
 written license.
  
 The following legend is applicable only to US Government
 contracts under FAR:
  
                    RESTRICTED RIGHTS LEGEND
  
 Use, reproduction and disclosure by the US Government is
 subject to restrictions as set forth in subparagraphs (a)
 and (c) of the Commercial Computer Software - Restricted
 Rights clause in FAR 52.227-19.
  
 Gaussian, Inc.
 340 Quinnipiac St., Bldg. 40, Wallingford CT 06492
  
  
 ---------------------------------------------------------------
 Warning -- This program may not be used in any manner that
 competes with the business of Gaussian, Inc. or will provide
 assistance to any competitor of Gaussian, Inc.  The licensee
 of this program is prohibited from giving any competitor of
 Gaussian, Inc. access to this program.  By using this program,
 the user acknowledges that Gaussian, Inc. is engaged in the
 business of creating and licensing software in the field of
 computational chemistry and represents and warrants to the
 licensee that it is not a competitor of Gaussian, Inc. and that
 it will not use this program in any manner prohibited above.
 ---------------------------------------------------------------
  

 Cite this work as:
 Gaussian 16, Revision A.03,
 M. J. Frisch, G. W. Trucks, H. B. Schlegel, G. E. Scuseria, 
 M. A. Robb, J. R. Cheeseman, G. Scalmani, V. Barone, 
 G. A. Petersson, H. Nakatsuji, X. Li, M. Caricato, A. V. Marenich, 
 J. Bloino, B. G. Janesko, R. Gomperts, B. Mennucci, H. P. Hratchian, 
 J. V. Ortiz, A. F. Izmaylov, J. L. Sonnenberg, D. Williams-Young, 
 F. Ding, F. Lipparini, F. Egidi, J. Goings, B. Peng, A. Petrone, 
 T. Henderson, D. Ranasinghe, V. G. Zakrzewski, J. Gao, N. Rega, 
 G. Zheng, W. Liang, M. Hada, M. Ehara, K. Toyota, R. Fukuda, 
 J. Hasegawa, M. Ishida, T. Nakajima, Y. Honda, O. Kitao, H. Nakai, 
 T. Vreven, K. Throssell, J. A. Montgomery, Jr., J. E. Peralta, 
 F. Ogliaro, M. J. Bearpark, J. J. Heyd, E. N. Brothers, K. N. Kudin, 
 V. N. Staroverov, T. A. Keith, R. Kobayashi, J. Normand, 
 K. Raghavachari, A. P. Rendell, J. C. Burant, S. S. Iyengar, 
 J. Tomasi, M. Cossi, J. M. Millam, M. Klene, C. Adamo, R. Cammi, 
 J. W. Ochterski, R. L. Martin, K. Morokuma, O. Farkas, 
 J. B. Foresman, and D. J. Fox, Gaussian, Inc., Wallingford CT, 2016.
 
 ******************************************
 Gaussian 16:  AS64L-G16RevA.03 25-Dec-2016
                 8-Jan-2020 
 ******************************************
 %nprocshared=16
 Will use up to   16 processors via shared memory.
 %mem=32GB
 ----------------------------------------------------------------------
 #p opt=modredundant b3lyp/6-31+g(d) scrf=(smd, solvent=tetrahydrofuran
 )
 ----------------------------------------------------------------------
 1/18=120,19=15,26=3,38=1/1,3;
 2/9=110,12=2,17=6,18=5,40=1/2;
 3/5=1,6=6,7=11,11=2,25=1,30=1,70=32201,71=1,72=20,74=-5/1,2,3;
 4//1;
 5/5=2,38=5,53=20/2;
 6/7=2,8=2,9=2,10=2,28=1/1;
 7//1,2,3,16;
 1/18=20,19=15,26=3/3(2);
 2/9=110/2;
 99//99;
 2/9=110/2;
 3/5=1,6=6,7=11,11=2,25=1,30=1,70=32205,71=1,72=20,74=-5/1,2,3;
 4/5=5,16=3,69=1/1;
 5/5=2,38=5,53=20/2;
 7//1,2,3,16;
 1/18=20,19=15,26=3/3(-5);
 2/9=110/2;
 6/7=2,8=2,9=2,10=2,19=2,28=1/1;
 99/9=1/99;
 Leave Link    1 at Wed Jan  8 01:14:50 2020, MaxMem=  4294967296 cpu:               2.2 elap:               0.2
 (Enter /home/cwagen/sw/g16/g16/l101.exe)
 -----
 title
 -----
 Symbolic Z-matrix:
 Charge = -1 Multiplicity = 1
 6                    -0.19426  -0.292    -0.21291 
 8                    -0.25532  -0.66526  -1.45426 
 6                    -0.33095  -1.45422   0.81632 
 1                    -0.18039  -1.13044   1.85373 
 1                    -1.34067  -1.87301   0.71427 
 1                     0.39707  -2.23395   0.57058 
 17                   -1.69111   1.60688   0.42247 
 6                     1.56727   0.32484   0.14278 
 7                     2.70184   0.60514   0.17308 
 
 Add virtual bond connecting atoms C8         and C1         Dist= 3.59D+00.
 Add virtual bond connecting atoms Cl7        and C1         Dist= 4.72D+00.
 The following ModRedundant input section has been read:
 B       1       7 F                                                           
 B       1       8 F                                                           
 
 ITRead=  0  0  0  0  0  0  0  0  0
 MicOpt= -1 -1 -1 -1 -1 -1 -1 -1 -1
 NAtoms=      9 NQM=        9 NQMF=       0 NMMI=      0 NMMIF=      0
                NMic=       0 NMicF=      0.
                    Isotopes and Nuclear Properties:
 (Nuclear quadrupole moments (NQMom) in fm**2, nuclear magnetic moments (NMagM)
  in nuclear magnetons)

  Atom         1           2           3           4           5           6           7           8           9
 IAtWgt=          12          16          12           1           1           1          35          12          14
 AtmWgt=  12.0000000  15.9949146  12.0000000   1.0078250   1.0078250   1.0078250  34.9688527  12.0000000  14.0030740
 NucSpn=           0           0           0           1           1           1           3           0           2
 AtZEff=   0.0000000   0.0000000   0.0000000   0.0000000   0.0000000   0.0000000   0.0000000   0.0000000   0.0000000
 NQMom=    0.0000000   0.0000000   0.0000000   0.0000000   0.0000000   0.0000000  -8.1650000   0.0000000   2.0440000
 NMagM=    0.0000000   0.0000000   0.0000000   2.7928460   2.7928460   2.7928460   0.8218740   0.0000000   0.4037610
 AtZNuc=   6.0000000   8.0000000   6.0000000   1.0000000   1.0000000   1.0000000  17.0000000   6.0000000   7.0000000
 Leave Link  101 at Wed Jan  8 01:14:51 2020, MaxMem=  4294967296 cpu:               7.5 elap:               0.6
 (Enter /home/cwagen/sw/g16/g16/l103.exe)

 GradGradGradGradGradGradGradGradGradGradGradGradGradGradGradGradGradGrad
 Berny optimization.
 Initialization pass.
                           ----------------------------
                           !    Initial Parameters    !
                           ! (Angstroms and Degrees)  !
 --------------------------                            --------------------------
 ! Name  Definition              Value          Derivative Info.                !
 --------------------------------------------------------------------------------
 ! R1    R(1,2)                  1.2977         estimate D2E/DX2                !
 ! R2    R(1,3)                  1.5584         estimate D2E/DX2                !
 ! R3    R(1,7)                  2.5            Frozen                          !
 ! R4    R(1,8)                  1.9            Frozen                          !
 ! R5    R(3,4)                  1.0971         estimate D2E/DX2                !
 ! R6    R(3,5)                  1.0979         estimate D2E/DX2                !
 ! R7    R(3,6)                  1.0947         estimate D2E/DX2                !
 ! R8    R(8,9)                  1.1691         estimate D2E/DX2                !
 ! A1    A(2,1,3)              114.4006         estimate D2E/DX2                !
 ! A2    A(2,1,7)              115.6846         estimate D2E/DX2                !
 ! A3    A(2,1,8)              108.426          estimate D2E/DX2                !
 ! A4    A(3,1,7)              110.248          estimate D2E/DX2                !
 ! A5    A(3,1,8)              101.5248         estimate D2E/DX2                !
 ! A6    A(7,1,8)              105.1256         estimate D2E/DX2                !
 ! A7    A(1,3,4)              113.1005         estimate D2E/DX2                !
 ! A8    A(1,3,5)              107.683          estimate D2E/DX2                !
 ! A9    A(1,3,6)              108.9421         estimate D2E/DX2                !
 ! A10   A(4,3,5)              109.0662         estimate D2E/DX2                !
 ! A11   A(4,3,6)              109.3417         estimate D2E/DX2                !
 ! A12   A(5,3,6)              108.6067         estimate D2E/DX2                !
 ! A13   L(1,8,9,6,-1)         177.4781         estimate D2E/DX2                !
 ! A14   L(1,8,9,6,-2)         166.5566         estimate D2E/DX2                !
 ! D1    D(2,1,3,4)            174.4714         estimate D2E/DX2                !
 ! D2    D(2,1,3,5)            -64.9488         estimate D2E/DX2                !
 ! D3    D(2,1,3,6)             52.6633         estimate D2E/DX2                !
 ! D4    D(7,1,3,4)            -53.1046         estimate D2E/DX2                !
 ! D5    D(7,1,3,5)             67.4752         estimate D2E/DX2                !
 ! D6    D(7,1,3,6)           -174.9127         estimate D2E/DX2                !
 ! D7    D(8,1,3,4)             57.938          estimate D2E/DX2                !
 ! D8    D(8,1,3,5)            178.5177         estimate D2E/DX2                !
 ! D9    D(8,1,3,6)            -63.8702         estimate D2E/DX2                !
 --------------------------------------------------------------------------------
 Trust Radius=3.00D-01 FncErr=1.00D-07 GrdErr=1.00D-06 EigMax=2.50D+02 EigMin=1.00D-04
 Number of steps in this run=     41 maximum allowed number of steps=    100.
 GradGradGradGradGradGradGradGradGradGradGradGradGradGradGradGradGradGrad

 Leave Link  103 at Wed Jan  8 01:14:51 2020, MaxMem=  4294967296 cpu:               0.9 elap:               0.2
 (Enter /home/cwagen/sw/g16/g16/l202.exe)
                          Input orientation:                          
 ---------------------------------------------------------------------
 Center     Atomic      Atomic             Coordinates (Angstroms)
 Number     Number       Type             X           Y           Z
 ---------------------------------------------------------------------
      1          6           0       -0.194263   -0.291999   -0.212908
      2          8           0       -0.255321   -0.665256   -1.454255
      3          6           0       -0.330945   -1.454221    0.816316
      4          1           0       -0.180394   -1.130438    1.853734
      5          1           0       -1.340665   -1.873010    0.714272
      6          1           0        0.397068   -2.233949    0.570583
      7         17           0       -1.691111    1.606880    0.422470
      8          6           0        1.567268    0.324842    0.142780
      9          7           0        2.701839    0.605140    0.173083
 ---------------------------------------------------------------------
                    Distance matrix (angstroms):
                    1          2          3          4          5
     1  C    0.000000
     2  O    1.297687   0.000000
     3  C    1.558443   2.404928   0.000000
     4  H    2.230287   3.341377   1.097150   0.000000
     5  H    2.161827   2.709087   1.097876   1.787740   0.000000
     6  H    2.175937   2.643176   1.094698   1.788205   1.780629
     7  Cl   2.500000   3.278138   3.372759   3.438560   3.509643
     8  C    1.900000   2.617756   2.687365   2.845967   3.689612
     9  N    3.056347   3.606513   3.721895   3.760863   4.772416
                    6          7          8          9
     6  H    0.000000
     7  Cl   4.374288   0.000000
     8  C    2.846014   3.512675   0.000000
     9  N    3.678370   4.512614   1.169075   0.000000
 Stoichiometry    C3H3ClNO(1-)
 Framework group  C1[X(C3H3ClNO)]
 Deg. of freedom    21
 Full point group                 C1      NOp   1
 Largest Abelian subgroup         C1      NOp   1
 Largest concise Abelian subgroup C1      NOp   1
                         Standard orientation:                         
 ---------------------------------------------------------------------
 Center     Atomic      Atomic             Coordinates (Angstroms)
 Number     Number       Type             X           Y           Z
 ---------------------------------------------------------------------
      1          6           0        0.172178    0.544604    0.208483
      2          8           0        0.374638    1.076413    1.374750
      3          6           0        0.410070    1.511739   -0.990184
      4          1           0        0.327332    1.016613   -1.965757
      5          1           0       -0.340810    2.310302   -0.928466
      6          1           0        1.404508    1.959148   -0.893845
      7         17           0       -2.000175   -0.660854   -0.070365
      8          6           0        1.510740   -0.769736   -0.092783
      9          7           0        2.436702   -1.483214   -0.109547
 ---------------------------------------------------------------------
 Rotational constants (GHZ):           3.1383642           1.6570300           1.3643888
 Leave Link  202 at Wed Jan  8 01:14:52 2020, MaxMem=  4294967296 cpu:               2.2 elap:               0.2
 (Enter /home/cwagen/sw/g16/g16/l301.exe)
 Standard basis: 6-31+G(d) (6D, 7F)
 Ernie: Thresh=  0.10000D-02 Tol=  0.10000D-05 Strict=F.
 There are   124 symmetry adapted cartesian basis functions of A   symmetry.
 There are   124 symmetry adapted basis functions of A   symmetry.
   124 basis functions,   228 primitive gaussians,   124 cartesian basis functions
    27 alpha electrons       27 beta electrons
       nuclear repulsion energy       229.9722683358 Hartrees.
 IExCor=  402 DFT=T Ex+Corr=B3LYP ExCW=0 ScaHFX=  0.200000
 ScaDFX=  0.800000  0.720000  1.000000  0.810000 ScalE2=  1.000000  1.000000
 IRadAn=      5 IRanWt=     -1 IRanGd=            0 ICorTp=0 IEmpDi=  4
 NAtoms=    9 NActive=    9 NUniq=    9 SFac= 1.00D+00 NAtFMM=   60 NAOKFM=F Big=F
 Integral buffers will be    131072 words long.
 Raffenetti 2 integral format.
 Two-electron integral symmetry is turned on.
 ------------------------------------------------------------------------------
 Polarizable Continuum Model (PCM)
 =================================
 Model                : PCM.
 Atomic radii         : SMD-Coulomb.
 Polarization charges : Total charges.
 Charge compensation  : None.
 Solution method      : On-the-fly selection.
 Cavity type          : VdW (van der Waals Surface) (Alpha=1.000).
 Cavity algorithm     : GePol (No added spheres)
                        Default sphere list used, NSphG=    9.
                        Lebedev-Laikov grids with approx.  5.0 points / Ang**2.
                        Smoothing algorithm: York/Karplus (Gamma=1.0000).
                        Polarization charges: spherical gaussians, with
                                              point-specific exponents (IZeta= 3).
                        Self-potential: point-specific (ISelfS= 7).
                        Self-field    : sphere-specific E.n sum rule (ISelfD= 2).
 1st derivatives      : Analytical E(r).r(x)/FMM algorithm (CHGder, D1EAlg=3).
                        Cavity 1st derivative terms included.
 Solvent              : TetraHydroFuran, Eps=   7.425700 Eps(inf)=   1.974025
 ------------------------------------------------------------------------------
 Spheres list:
 ISph  on   Nord     Re0    Alpha      Xe            Ye            Ze
    1   C      1    1.8500  1.000      0.172178      0.544604      0.208483
    2   O      2    2.2940  1.000      0.374638      1.076413      1.374750
    3   C      3    1.8500  1.000      0.410070      1.511739     -0.990184
    4   H      4    1.2000  1.000      0.327332      1.016613     -1.965757
    5   H      5    1.2000  1.000     -0.340810      2.310302     -0.928466
    6   H      6    1.2000  1.000      1.404508      1.959148     -0.893845
    7  Cl      7    2.3800  1.000     -2.000175     -0.660854     -0.070365
    8   C      8    1.8500  1.000      1.510740     -0.769736     -0.092783
    9   N      9    1.8900  1.000      2.436702     -1.483214     -0.109547
 ------------------------------------------------------------------------------
 GePol: Number of generator spheres                  =       9
 GePol: Total number of spheres                      =       9
 GePol: Number of exposed spheres                    =       9 (100.00%)
 GePol: Number of points                             =    1234
 GePol: Average weight of points                     =       0.14
 GePol: Minimum weight of points                     =   0.11D-05
 GePol: Maximum weight of points                     =    0.18138
 GePol: Number of points with low weight             =      34
 GePol: Fraction of low-weight points (<1% of avg)   =       2.76%
 GePol: Cavity surface area                          =    167.867 Ang**2
 GePol: Cavity volume                                =    152.257 Ang**3
 ------------------------------------------------------------------------------
 Atomic radii for non-electrostatic terms: SMD-CDS.
 ------------------------------------------------------------------------------
 PCM non-electrostatic energy =        -0.0003907778 Hartrees.
 Nuclear repulsion after PCM non-electrostatic terms =      229.9718775581 Hartrees.
 Leave Link  301 at Wed Jan  8 01:14:52 2020, MaxMem=  4294967296 cpu:               2.4 elap:               0.2
 (Enter /home/cwagen/sw/g16/g16/l302.exe)
 NPDir=0 NMtPBC=     1 NCelOv=     1 NCel=       1 NClECP=     1 NCelD=      1
         NCelK=      1 NCelE2=     1 NClLst=     1 CellRange=     0.0.
 One-electron integrals computed using PRISM.
 One-electron integral symmetry used in STVInt
 NBasis=   124 RedAO= T EigKep=  1.04D-04  NBF=   124
 NBsUse=   124 1.00D-06 EigRej= -1.00D+00 NBFU=   124
 Precomputing XC quadrature grid using
 IXCGrd= 4 IRadAn=           5 IRanWt=          -1 IRanGd=           0 AccXCQ= 0.00D+00.
 Generated NRdTot=       0 NPtTot=           0 NUsed=           0 NTot=          32
 NSgBfM=   124   124   124   124   124 MxSgAt=     9 MxSgA2=     9.
 Leave Link  302 at Wed Jan  8 01:14:55 2020, MaxMem=  4294967296 cpu:              39.3 elap:               2.9
 (Enter /home/cwagen/sw/g16/g16/l303.exe)
 DipDrv:  MaxL=1.
 Leave Link  303 at Wed Jan  8 01:14:55 2020, MaxMem=  4294967296 cpu:               4.0 elap:               0.4
 (Enter /home/cwagen/sw/g16/g16/l401.exe)
 ExpMin= 4.38D-02 ExpMax= 2.52D+04 ExpMxC= 3.78D+03 IAcc=3 IRadAn=         5 AccDes= 0.00D+00
 Harris functional with IExCor=  402 and IRadAn=       5 diagonalized for initial guess.
 HarFok:  IExCor=  402 AccDes= 0.00D+00 IRadAn=         5 IDoV= 1 UseB2=F ITyADJ=14
 ICtDFT=  3500011 ScaDFX=  1.000000  1.000000  1.000000  1.000000
 FoFCou: FMM=F IPFlag=           0 FMFlag=      100000 FMFlg1=           0
         NFxFlg=           0 DoJE=T BraDBF=F KetDBF=T FulRan=T
         wScrn=  0.000000 ICntrl=       500 IOpCl=  0 I1Cent=   200000004 NGrid=           0
         NMat0=    1 NMatS0=      1 NMatT0=    0 NMatD0=    1 NMtDS0=    0 NMtDT0=    0
 Petite list used in FoFCou.
 Harris En= -706.374505206326    
 JPrj=0 DoOrth=F DoCkMO=F.
 Leave Link  401 at Wed Jan  8 01:14:57 2020, MaxMem=  4294967296 cpu:              33.5 elap:               2.5
 (Enter /home/cwagen/sw/g16/g16/l502.exe)
 Keep R1 ints in memory in canonical form, NReq=45236517.
 FoFCou: FMM=F IPFlag=           0 FMFlag=           0 FMFlg1=           0
         NFxFlg=           0 DoJE=F BraDBF=F KetDBF=F FulRan=T
         wScrn=  0.000000 ICntrl=       600 IOpCl=  0 I1Cent=           0 NGrid=           0
         NMat0=    1 NMatS0=   7750 NMatT0=    0 NMatD0=    1 NMtDS0=    0 NMtDT0=    0
 Symmetry not used in FoFCou.
 Two-electron integral symmetry not used.
 Closed shell SCF:
 Using DIIS extrapolation, IDIIS=  1040.
 NGot=  4294967296 LenX=  4264898079 LenY=  4264882262
 Requested convergence on RMS density matrix=1.00D-08 within 128 cycles.
 Requested convergence on MAX density matrix=1.00D-06.
 Requested convergence on             energy=1.00D-06.
 No special actions if energy rises.

 Cycle   1  Pass 1  IDiag  1:
 Inv3:  Mode=1 IEnd=     4568268.
 Iteration    1 A*A^-1 deviation from unit magnitude is 4.00D-15 for   1233.
 Iteration    1 A*A^-1 deviation from orthogonality  is 2.15D-15 for    819     80.
 Iteration    1 A^-1*A deviation from unit magnitude is 3.33D-15 for   1221.
 Iteration    1 A^-1*A deviation from orthogonality  is 1.76D-15 for   1230   1054.
 E= -706.196276325564    
 DIIS: error= 2.38D-02 at cycle   1 NSaved=   1.
 NSaved= 1 IEnMin= 1 EnMin= -706.196276325564     IErMin= 1 ErrMin= 2.38D-02
 ErrMax= 2.38D-02  0.00D+00 EMaxC= 1.00D-01 BMatC= 2.17D-01 BMatP= 2.17D-01
 IDIUse=3 WtCom= 7.62D-01 WtEn= 2.38D-01
 Coeff-Com:  0.100D+01
 Coeff-En:   0.100D+01
 Coeff:      0.100D+01
 Gap=     0.175 Goal=   None    Shift=    0.000
 GapD=    0.175 DampG=1.000 DampE=0.500 DampFc=0.5000 IDamp=-1.
 Damping current iteration by 5.00D-01
 RMSDP=1.22D-02 MaxDP=2.44D-01              OVMax= 4.97D-01

 Cycle   2  Pass 1  IDiag  1:
 E= -706.101658230408     Delta-E=        0.094618095156 Rises=F Damp=T
 DIIS: error= 1.99D-02 at cycle   2 NSaved=   2.
 NSaved= 2 IEnMin= 1 EnMin= -706.196276325564     IErMin= 2 ErrMin= 1.99D-02
 ErrMax= 1.99D-02  0.00D+00 EMaxC= 1.00D-01 BMatC= 1.46D-01 BMatP= 2.17D-01
 IDIUse=3 WtCom= 8.01D-01 WtEn= 1.99D-01
 Coeff-Com:  0.439D+00 0.561D+00
 Coeff-En:   0.625D+00 0.375D+00
 Coeff:      0.476D+00 0.524D+00
 Gap=     0.127 Goal=   None    Shift=    0.000
 RMSDP=4.84D-03 MaxDP=8.73D-02 DE= 9.46D-02 OVMax= 2.98D-01

 Cycle   3  Pass 1  IDiag  1:
 E= -706.336376672639     Delta-E=       -0.234718442231 Rises=F Damp=F
 DIIS: error= 1.35D-02 at cycle   3 NSaved=   3.
 NSaved= 3 IEnMin= 3 EnMin= -706.336376672639     IErMin= 3 ErrMin= 1.35D-02
 ErrMax= 1.35D-02  0.00D+00 EMaxC= 1.00D-01 BMatC= 5.08D-02 BMatP= 1.46D-01
 IDIUse=3 WtCom= 8.65D-01 WtEn= 1.35D-01
 Coeff-Com:  0.195D+00 0.352D+00 0.453D+00
 Coeff-En:   0.000D+00 0.000D+00 0.100D+01
 Coeff:      0.169D+00 0.305D+00 0.527D+00
 Gap=     0.178 Goal=   None    Shift=    0.000
 RMSDP=2.51D-03 MaxDP=4.99D-02 DE=-2.35D-01 OVMax= 8.86D-02

 Cycle   4  Pass 1  IDiag  1:
 E= -706.379783083845     Delta-E=       -0.043406411206 Rises=F Damp=F
 DIIS: error= 5.93D-03 at cycle   4 NSaved=   4.
 NSaved= 4 IEnMin= 4 EnMin= -706.379783083845     IErMin= 4 ErrMin= 5.93D-03
 ErrMax= 5.93D-03  0.00D+00 EMaxC= 1.00D-01 BMatC= 8.43D-03 BMatP= 5.08D-02
 IDIUse=3 WtCom= 9.41D-01 WtEn= 5.93D-02
 Coeff-Com:  0.555D-01 0.102D+00 0.302D+00 0.541D+00
 Coeff-En:   0.000D+00 0.000D+00 0.122D+00 0.878D+00
 Coeff:      0.522D-01 0.962D-01 0.291D+00 0.561D+00
 Gap=     0.171 Goal=   None    Shift=    0.000
 RMSDP=1.04D-03 MaxDP=2.22D-02 DE=-4.34D-02 OVMax= 3.47D-02

 Cycle   5  Pass 1  IDiag  1:
 E= -706.384735106863     Delta-E=       -0.004952023018 Rises=F Damp=F
 DIIS: error= 2.67D-03 at cycle   5 NSaved=   5.
 NSaved= 5 IEnMin= 5 EnMin= -706.384735106863     IErMin= 5 ErrMin= 2.67D-03
 ErrMax= 2.67D-03  0.00D+00 EMaxC= 1.00D-01 BMatC= 2.48D-03 BMatP= 8.43D-03
 IDIUse=3 WtCom= 9.73D-01 WtEn= 2.67D-02
 Coeff-Com:  0.513D-02 0.111D-01 0.129D+00 0.421D+00 0.434D+00
 Coeff-En:   0.000D+00 0.000D+00 0.000D+00 0.269D+00 0.731D+00
 Coeff:      0.499D-02 0.108D-01 0.126D+00 0.417D+00 0.442D+00
 Gap=     0.171 Goal=   None    Shift=    0.000
 RMSDP=4.87D-04 MaxDP=8.99D-03 DE=-4.95D-03 OVMax= 1.65D-02

 Cycle   6  Pass 1  IDiag  1:
 E= -706.386947046644     Delta-E=       -0.002211939781 Rises=F Damp=F
 DIIS: error= 4.78D-04 at cycle   6 NSaved=   6.
 NSaved= 6 IEnMin= 6 EnMin= -706.386947046644     IErMin= 6 ErrMin= 4.78D-04
 ErrMax= 4.78D-04  0.00D+00 EMaxC= 1.00D-01 BMatC= 1.05D-04 BMatP= 2.48D-03
 IDIUse=3 WtCom= 9.95D-01 WtEn= 4.78D-03
 Coeff-Com:  0.711D-04-0.117D-02 0.464D-01 0.173D+00 0.252D+00 0.530D+00
 Coeff-En:   0.000D+00 0.000D+00 0.000D+00 0.000D+00 0.000D+00 0.100D+01
 Coeff:      0.708D-04-0.116D-02 0.462D-01 0.172D+00 0.251D+00 0.532D+00
 Gap=     0.171 Goal=   None    Shift=    0.000
 RMSDP=8.93D-05 MaxDP=1.89D-03 DE=-2.21D-03 OVMax= 2.54D-03

 Cycle   7  Pass 1  IDiag  1:
 E= -706.387043366948     Delta-E=       -0.000096320303 Rises=F Damp=F
 DIIS: error= 1.55D-04 at cycle   7 NSaved=   7.
 NSaved= 7 IEnMin= 7 EnMin= -706.387043366948     IErMin= 7 ErrMin= 1.55D-04
 ErrMax= 1.55D-04  0.00D+00 EMaxC= 1.00D-01 BMatC= 5.25D-06 BMatP= 1.05D-04
 IDIUse=3 WtCom= 9.98D-01 WtEn= 1.55D-03
 Coeff-Com:  0.167D-03-0.222D-02 0.959D-02 0.340D-01 0.753D-01 0.224D+00
 Coeff-Com:  0.659D+00
 Coeff-En:   0.000D+00 0.000D+00 0.000D+00 0.000D+00 0.000D+00 0.000D+00
 Coeff-En:   0.100D+01
 Coeff:      0.167D-03-0.222D-02 0.957D-02 0.339D-01 0.752D-01 0.224D+00
 Coeff:      0.659D+00
 Gap=     0.171 Goal=   None    Shift=    0.000
 RMSDP=4.40D-05 MaxDP=1.12D-03 DE=-9.63D-05 OVMax= 9.45D-04

 Cycle   8  Pass 1  IDiag  1:
 E= -706.387047892523     Delta-E=       -0.000004525575 Rises=F Damp=F
 DIIS: error= 4.28D-05 at cycle   8 NSaved=   8.
 NSaved= 8 IEnMin= 8 EnMin= -706.387047892523     IErMin= 8 ErrMin= 4.28D-05
 ErrMax= 4.28D-05  0.00D+00 EMaxC= 1.00D-01 BMatC= 8.66D-07 BMatP= 5.25D-06
 IDIUse=1 WtCom= 1.00D+00 WtEn= 0.00D+00
 Coeff-Com:  0.181D-03-0.135D-02 0.241D-02 0.686D-02 0.264D-01 0.895D-01
 Coeff-Com:  0.374D+00 0.502D+00
 Coeff:      0.181D-03-0.135D-02 0.241D-02 0.686D-02 0.264D-01 0.895D-01
 Coeff:      0.374D+00 0.502D+00
 Gap=     0.171 Goal=   None    Shift=    0.000
 RMSDP=1.18D-05 MaxDP=4.11D-04 DE=-4.53D-06 OVMax= 4.60D-04

 Cycle   9  Pass 1  IDiag  1:
 E= -706.387048750530     Delta-E=       -0.000000858006 Rises=F Damp=F
 DIIS: error= 1.97D-05 at cycle   9 NSaved=   9.
 NSaved= 9 IEnMin= 9 EnMin= -706.387048750530     IErMin= 9 ErrMin= 1.97D-05
 ErrMax= 1.97D-05  0.00D+00 EMaxC= 1.00D-01 BMatC= 8.38D-08 BMatP= 8.66D-07
 IDIUse=1 WtCom= 1.00D+00 WtEn= 0.00D+00
 Coeff-Com:  0.140D-03-0.323D-03-0.479D-03-0.302D-02-0.772D-03-0.438D-03
 Coeff-Com:  0.314D-01 0.215D+00 0.758D+00
 Coeff:      0.140D-03-0.323D-03-0.479D-03-0.302D-02-0.772D-03-0.438D-03
 Coeff:      0.314D-01 0.215D+00 0.758D+00
 Gap=     0.171 Goal=   None    Shift=    0.000
 RMSDP=4.48D-06 MaxDP=1.22D-04 DE=-8.58D-07 OVMax= 1.50D-04

 Cycle  10  Pass 1  IDiag  1:
 E= -706.387048852993     Delta-E=       -0.000000102463 Rises=F Damp=F
 DIIS: error= 2.57D-06 at cycle  10 NSaved=  10.
 NSaved=10 IEnMin=10 EnMin= -706.387048852993     IErMin=10 ErrMin= 2.57D-06
 ErrMax= 2.57D-06  0.00D+00 EMaxC= 1.00D-01 BMatC= 1.79D-09 BMatP= 8.38D-08
 IDIUse=1 WtCom= 1.00D+00 WtEn= 0.00D+00
 Coeff-Com:  0.401D-04-0.747D-04-0.170D-03-0.910D-03-0.878D-03-0.324D-02
 Coeff-Com: -0.596D-02 0.455D-01 0.262D+00 0.703D+00
 Coeff:      0.401D-04-0.747D-04-0.170D-03-0.910D-03-0.878D-03-0.324D-02
 Coeff:     -0.596D-02 0.455D-01 0.262D+00 0.703D+00
 Gap=     0.171 Goal=   None    Shift=    0.000
 RMSDP=8.19D-07 MaxDP=2.47D-05 DE=-1.02D-07 OVMax= 3.86D-05

 Cycle  11  Pass 1  IDiag  1:
 E= -706.387048855132     Delta-E=       -0.000000002140 Rises=F Damp=F
 DIIS: error= 1.16D-06 at cycle  11 NSaved=  11.
 NSaved=11 IEnMin=11 EnMin= -706.387048855132     IErMin=11 ErrMin= 1.16D-06
 ErrMax= 1.16D-06  0.00D+00 EMaxC= 1.00D-01 BMatC= 4.60D-10 BMatP= 1.79D-09
 IDIUse=1 WtCom= 1.00D+00 WtEn= 0.00D+00
 Coeff-Com:  0.492D-05 0.801D-05-0.505D-04-0.172D-03-0.548D-03-0.223D-02
 Coeff-Com: -0.855D-02-0.806D-02 0.358D-01 0.373D+00 0.611D+00
 Coeff:      0.492D-05 0.801D-05-0.505D-04-0.172D-03-0.548D-03-0.223D-02
 Coeff:     -0.855D-02-0.806D-02 0.358D-01 0.373D+00 0.611D+00
 Gap=     0.171 Goal=   None    Shift=    0.000
 RMSDP=3.50D-07 MaxDP=9.66D-06 DE=-2.14D-09 OVMax= 5.99D-06

 Cycle  12  Pass 1  IDiag  1:
 E= -706.387048855706     Delta-E=       -0.000000000573 Rises=F Damp=F
 DIIS: error= 1.24D-07 at cycle  12 NSaved=  12.
 NSaved=12 IEnMin=12 EnMin= -706.387048855706     IErMin=12 ErrMin= 1.24D-07
 ErrMax= 1.24D-07  0.00D+00 EMaxC= 1.00D-01 BMatC= 4.34D-12 BMatP= 4.60D-10
 IDIUse=1 WtCom= 1.00D+00 WtEn= 0.00D+00
 Coeff-Com: -0.205D-05 0.537D-05-0.165D-06 0.219D-04-0.411D-04-0.221D-03
 Coeff-Com: -0.102D-02-0.455D-02-0.739D-02 0.431D-01 0.974D-01 0.873D+00
 Coeff:     -0.205D-05 0.537D-05-0.165D-06 0.219D-04-0.411D-04-0.221D-03
 Coeff:     -0.102D-02-0.455D-02-0.739D-02 0.431D-01 0.974D-01 0.873D+00
 Gap=     0.171 Goal=   None    Shift=    0.000
 RMSDP=5.83D-08 MaxDP=1.62D-06 DE=-5.73D-10 OVMax= 2.40D-06

 Cycle  13  Pass 1  IDiag  1:
 E= -706.387048855709     Delta-E=       -0.000000000004 Rises=F Damp=F
 DIIS: error= 2.79D-08 at cycle  13 NSaved=  13.
 NSaved=13 IEnMin=13 EnMin= -706.387048855709     IErMin=13 ErrMin= 2.79D-08
 ErrMax= 2.79D-08  0.00D+00 EMaxC= 1.00D-01 BMatC= 2.43D-13 BMatP= 4.34D-12
 IDIUse=1 WtCom= 1.00D+00 WtEn= 0.00D+00
 Coeff-Com: -0.526D-06 0.207D-06 0.125D-05 0.594D-05 0.198D-04 0.748D-04
 Coeff-Com:  0.333D-03-0.106D-03-0.276D-02-0.112D-01-0.258D-01 0.822D-01
 Coeff-Com:  0.957D+00
 Coeff:     -0.526D-06 0.207D-06 0.125D-05 0.594D-05 0.198D-04 0.748D-04
 Coeff:      0.333D-03-0.106D-03-0.276D-02-0.112D-01-0.258D-01 0.822D-01
 Coeff:      0.957D+00
 Gap=     0.171 Goal=   None    Shift=    0.000
 RMSDP=1.47D-08 MaxDP=3.47D-07 DE=-3.64D-12 OVMax= 5.75D-07

 Cycle  14  Pass 1  IDiag  1:
 E= -706.387048855710     Delta-E=        0.000000000000 Rises=F Damp=F
 DIIS: error= 4.71D-09 at cycle  14 NSaved=  14.
 NSaved=14 IEnMin=14 EnMin= -706.387048855710     IErMin=14 ErrMin= 4.71D-09
 ErrMax= 4.71D-09  0.00D+00 EMaxC= 1.00D-01 BMatC= 4.85D-15 BMatP= 2.43D-13
 IDIUse=1 WtCom= 1.00D+00 WtEn= 0.00D+00
 Coeff-Com:  0.159D-07-0.953D-07 0.183D-06 0.393D-06 0.276D-05 0.116D-04
 Coeff-Com:  0.519D-04 0.509D-04-0.855D-04-0.181D-02-0.456D-02-0.122D-01
 Coeff-Com:  0.924D-01 0.926D+00
 Coeff:      0.159D-07-0.953D-07 0.183D-06 0.393D-06 0.276D-05 0.116D-04
 Coeff:      0.519D-04 0.509D-04-0.855D-04-0.181D-02-0.456D-02-0.122D-01
 Coeff:      0.924D-01 0.926D+00
 Gap=     0.171 Goal=   None    Shift=    0.000
 RMSDP=2.48D-09 MaxDP=8.01D-08 DE=-4.55D-13 OVMax= 1.13D-07

 Error on total polarization charges =  0.02276
 SCF Done:  E(RB3LYP) =  -706.387048856     A.U. after   14 cycles
            NFock= 14  Conv=0.25D-08     -V/T= 2.0063
 KE= 7.019827170158D+02 PE=-2.137582807371D+03 EE= 4.992411639416D+02
 SMD-CDS (non-electrostatic) energy       (kcal/mol) =      -0.25
 (included in total energy above)
 Leave Link  502 at Wed Jan  8 01:15:35 2020, MaxMem=  4294967296 cpu:             504.1 elap:              37.6
 (Enter /home/cwagen/sw/g16/g16/l601.exe)
 Copying SCF densities to generalized density rwf, IOpCl= 0 IROHF=0.

 **********************************************************************

            Population analysis using the SCF density.

 **********************************************************************

 Orbital symmetries:
       Occupied  (A) (A) (A) (A) (A) (A) (A) (A) (A) (A) (A) (A)
                 (A) (A) (A) (A) (A) (A) (A) (A) (A) (A) (A) (A)
                 (A) (A) (A)
       Virtual   (A) (A) (A) (A) (A) (A) (A) (A) (A) (A) (A) (A)
                 (A) (A) (A) (A) (A) (A) (A) (A) (A) (A) (A) (A)
                 (A) (A) (A) (A) (A) (A) (A) (A) (A) (A) (A) (A)
                 (A) (A) (A) (A) (A) (A) (A) (A) (A) (A) (A) (A)
                 (A) (A) (A) (A) (A) (A) (A) (A) (A) (A) (A) (A)
                 (A) (A) (A) (A) (A) (A) (A) (A) (A) (A) (A) (A)
                 (A) (A) (A) (A) (A) (A) (A) (A) (A) (A) (A) (A)
                 (A) (A) (A) (A) (A) (A) (A) (A) (A) (A) (A) (A)
                 (A)
 The electronic state is 1-A.
 Alpha  occ. eigenvalues -- -101.46315 -19.14971 -14.31828 -10.33484 -10.20676
 Alpha  occ. eigenvalues --  -10.18959  -9.37610  -7.13692  -7.13236  -7.13231
 Alpha  occ. eigenvalues --   -1.00332  -0.87731  -0.72936  -0.70900  -0.55173
 Alpha  occ. eigenvalues --   -0.46042  -0.42453  -0.41361  -0.38756  -0.35440
 Alpha  occ. eigenvalues --   -0.34678  -0.31699  -0.31572  -0.25973  -0.25069
 Alpha  occ. eigenvalues --   -0.24694  -0.24468
 Alpha virt. eigenvalues --   -0.07380   0.01072   0.03489   0.04510   0.05007
 Alpha virt. eigenvalues --    0.06458   0.06802   0.07826   0.08939   0.09760
 Alpha virt. eigenvalues --    0.09986   0.10199   0.11203   0.12187   0.13420
 Alpha virt. eigenvalues --    0.14228   0.15000   0.16627   0.17034   0.20943
 Alpha virt. eigenvalues --    0.23185   0.24265   0.24563   0.25884   0.26224
 Alpha virt. eigenvalues --    0.27145   0.28374   0.29618   0.33035   0.33691
 Alpha virt. eigenvalues --    0.35663   0.37577   0.42041   0.61249   0.62723
 Alpha virt. eigenvalues --    0.64656   0.66289   0.68044   0.68652   0.72214
 Alpha virt. eigenvalues --    0.74218   0.75925   0.77012   0.79036   0.80438
 Alpha virt. eigenvalues --    0.82399   0.88738   0.92877   0.95225   0.95973
 Alpha virt. eigenvalues --    0.96891   0.98548   0.99087   1.01780   1.01980
 Alpha virt. eigenvalues --    1.05513   1.09775   1.13996   1.17092   1.23891
 Alpha virt. eigenvalues --    1.30790   1.32179   1.34253   1.42938   1.47607
 Alpha virt. eigenvalues --    1.49037   1.54596   1.56301   1.57274   1.58650
 Alpha virt. eigenvalues --    1.64209   1.69065   1.78840   1.83630   1.90560
 Alpha virt. eigenvalues --    1.92335   1.98363   1.99266   2.00199   2.12336
 Alpha virt. eigenvalues --    2.19159   2.24790   2.30013   2.47055   2.50072
 Alpha virt. eigenvalues --    2.62986   2.66752   2.70931   2.75193   2.97658
 Alpha virt. eigenvalues --    3.08549   4.05477   4.14028   4.28804   4.31595
 Alpha virt. eigenvalues --    4.38669   4.47783
          Condensed to atoms (all electrons):
               1          2          3          4          5          6
     1  C    5.171210   0.561351   0.191866  -0.067668  -0.064301   0.000292
     2  O    0.561351   8.136081  -0.150830   0.008600   0.000126  -0.011654
     3  C    0.191866  -0.150830   5.712885   0.371978   0.379522   0.372094
     4  H   -0.067668   0.008600   0.371978   0.471767  -0.022173  -0.028506
     5  H   -0.064301   0.000126   0.379522  -0.022173   0.464403  -0.023622
     6  H    0.000292  -0.011654   0.372094  -0.028506  -0.023622   0.455873
     7  Cl   0.091257  -0.041537  -0.067848   0.005109  -0.001537   0.001315
     8  C   -0.301199  -0.133823  -0.105024   0.020071   0.023201  -0.024801
     9  N   -0.032396  -0.005641   0.002783  -0.001029  -0.000033  -0.000208
               7          8          9
     1  C    0.091257  -0.301199  -0.032396
     2  O   -0.041537  -0.133823  -0.005641
     3  C   -0.067848  -0.105024   0.002783
     4  H    0.005109   0.020071  -0.001029
     5  H   -0.001537   0.023201  -0.000033
     6  H    0.001315  -0.024801  -0.000208
     7  Cl  17.641822  -0.015638  -0.009798
     8  C   -0.015638   5.848917   0.619549
     9  N   -0.009798   0.619549   7.017346
 Mulliken charges:
               1
     1  C    0.449589
     2  O   -0.362674
     3  C   -0.707425
     4  H    0.241852
     5  H    0.244414
     6  H    0.259217
     7  Cl  -0.603145
     8  C    0.068746
     9  N   -0.590573
 Sum of Mulliken charges =  -1.00000
 Mulliken charges with hydrogens summed into heavy atoms:
               1
     1  C    0.449589
     2  O   -0.362674
     3  C    0.038057
     7  Cl  -0.603145
     8  C    0.068746
     9  N   -0.590573
 Electronic spatial extent (au):  <R**2>=            900.6119
 Charge=             -1.0000 electrons
 Dipole moment (field-independent basis, Debye):
    X=              0.9038    Y=              5.1467    Z=             -2.9136  Tot=              5.9828
 Quadrupole moment (field-independent basis, Debye-Ang):
   XX=            -71.5188   YY=            -52.3116   ZZ=            -49.4006
   XY=              5.1071   XZ=             -1.1649   YZ=             -5.1072
 Traceless Quadrupole moment (field-independent basis, Debye-Ang):
   XX=            -13.7751   YY=              5.4320   ZZ=              8.3431
   XY=              5.1071   XZ=             -1.1649   YZ=             -5.1072
 Octapole moment (field-independent basis, Debye-Ang**2):
  XXX=            -14.2494  YYY=             22.3229  ZZZ=             -5.3528  XYY=            -11.9083
  XXY=             35.4553  XXZ=              3.0318  XZZ=             -0.9077  YZZ=             -0.2252
  YYZ=             -3.9288  XYZ=             -2.7073
 Hexadecapole moment (field-independent basis, Debye-Ang**3):
 XXXX=           -896.8851 YYYY=           -380.4003 ZZZZ=           -187.8641 XXXY=             64.2009
 XXXZ=              4.4256 YYYX=             31.5601 YYYZ=             -8.5657 ZZZX=             -1.4492
 ZZZY=             -6.0209 XXYY=           -226.3690 XXZZ=           -158.7888 YYZZ=            -96.8202
 XXYZ=             -4.6685 YYXZ=              0.4403 ZZXY=              1.7877
 N-N= 2.299718775581D+02 E-N=-2.137582807514D+03  KE= 7.019827170158D+02
 No NMR shielding tensors so no spin-rotation constants.
 Leave Link  601 at Wed Jan  8 01:15:37 2020, MaxMem=  4294967296 cpu:              19.9 elap:               1.6
 (Enter /home/cwagen/sw/g16/g16/l701.exe)
 ... and contract with generalized density number  0.
 Compute integral first derivatives.
 D1PCM: PCM CHGder 1st derivatives, ID1Alg=3 FixD1E=F DoIter=F DoCFld=F I1PDM=0.
 GePol: Maximum number of non-zero 1st derivatives   =     391
 Leave Link  701 at Wed Jan  8 01:15:43 2020, MaxMem=  4294967296 cpu:              79.1 elap:               5.8
 (Enter /home/cwagen/sw/g16/g16/l702.exe)
 L702 exits ... SP integral derivatives will be done elsewhere.
 Leave Link  702 at Wed Jan  8 01:15:43 2020, MaxMem=  4294967296 cpu:               1.2 elap:               0.1
 (Enter /home/cwagen/sw/g16/g16/l703.exe)
 Integral derivatives from FoFJK, PRISM(SPDF).
 Compute integral first derivatives, UseDBF=F ICtDFT=           0.
 Calling FoFJK, ICntrl=      2127 FMM=F ISym2X=0 I1Cent= 0 IOpClX= 0 NMat=1 NMatS=1 NMatT=0.
 FoFJK:  IHMeth= 1 ICntrl=    2127 DoSepK=F KAlg= 0 I1Cent=           0 FoldK=F
 IRaf=         0 NMat=       1 IRICut=       1 DoRegI=T DoRafI=F ISym2E= 0 IDoP0=0 IntGTp=1.
 FoFCou: FMM=F IPFlag=           0 FMFlag=      100000 FMFlg1=         800
         NFxFlg=           0 DoJE=F BraDBF=F KetDBF=F FulRan=T
         wScrn=  0.000000 ICntrl=      2127 IOpCl=  0 I1Cent=           0 NGrid=           0
         NMat0=    1 NMatS0=      1 NMatT0=    0 NMatD0=    1 NMtDS0=    0 NMtDT0=    0
 Symmetry not used in FoFCou.
 Leave Link  703 at Wed Jan  8 01:15:46 2020, MaxMem=  4294967296 cpu:              37.9 elap:               2.9
 (Enter /home/cwagen/sw/g16/g16/l716.exe)
 Dipole        = 3.55582997D-01 2.02487009D+00-1.14629222D+00
 ***** Axes restored to original set *****
 -------------------------------------------------------------------
 Center     Atomic                   Forces (Hartrees/Bohr)
 Number     Number              X              Y              Z
 -------------------------------------------------------------------
      1        6           0.055422915   -0.071541147   -0.085130850
      2        8          -0.007712160    0.054561880    0.094070641
      3        6          -0.019934933    0.024391989    0.007697885
      4        1          -0.000528878    0.001411190   -0.003113660
      5        1           0.001237653    0.000306254    0.000740693
      6        1           0.001923417    0.004878842   -0.004056122
      7       17           0.012683925   -0.014853010   -0.003106539
      8        6          -0.040978538    0.002489697   -0.008267675
      9        7          -0.002113401   -0.001645695    0.001165627
 -------------------------------------------------------------------
 Cartesian Forces:  Max     0.094070641 RMS     0.033657344
 Leave Link  716 at Wed Jan  8 01:15:46 2020, MaxMem=  4294967296 cpu:               1.3 elap:               0.1
 (Enter /home/cwagen/sw/g16/g16/l103.exe)

 GradGradGradGradGradGradGradGradGradGradGradGradGradGradGradGradGradGrad
 Berny optimization.
 FormGI is forming the generalized inverse of G from B-inverse, IUseBI=4.
 Internal  Forces:  Max     0.105316574 RMS     0.023993725
 Search for a local minimum.
 Step number   1 out of a maximum of   41
 All quantities printed in internal units (Hartrees-Bohrs-Radians)
 RMS Force = .23327D-01 SwitMx=.10000D-02 MixMth= 1
 Mixed Optimization -- RFO/linear search
 Second derivative matrix not updated -- first step.
 ITU=  0
     Eigenvalues ---    0.00230   0.04746   0.04746   0.05330   0.05908
     Eigenvalues ---    0.07453   0.10176   0.16000   0.16000   0.16000
     Eigenvalues ---    0.25000   0.25000   0.25000   0.26946   0.33918
     Eigenvalues ---    0.33999   0.34275   0.67840   1.220341000.00000
     Eigenvalues --- 1000.000001000.000001000.000001000.000001000.00000
     Eigenvalues --- 1000.000001000.000001000.000001000.000001000.00000
     Eigenvalues --- 1000.00000
 RFO step:  Lambda=-3.68214294D-02 EMin= 2.30000000D-03
 Linear search not attempted -- first point.
 Maximum step size (   0.300) exceeded in Quadratic search.
    -- Step size scaled by   0.987
 Iteration  1 RMS(Cart)=  0.07897607 RMS(Int)=  0.00836158
 Iteration  2 RMS(Cart)=  0.00833885 RMS(Int)=  0.00479011
 Iteration  3 RMS(Cart)=  0.00005506 RMS(Int)=  0.00478984
 Iteration  4 RMS(Cart)=  0.00000142 RMS(Int)=  0.00478984
 Iteration  5 RMS(Cart)=  0.00000002 RMS(Int)=  0.00478984
 Iteration  1 RMS(Cart)=  0.00000000 RMS(Int)=  0.00000000
 ITry= 1 IFail=0 DXMaxC= 1.88D-01 DCOld= 1.00D+10 DXMaxT= 3.00D-01 DXLimC= 3.00D+00 Rises=F
 Variable       Old X    -DE/DX   Delta X   Delta X   Delta X     New X
                                 (Linear)    (Quad)   (Total)
    R1        2.45227  -0.10532   0.00000  -0.14530  -0.14530   2.30698
    R2        2.94503  -0.02070   0.00000  -0.06669  -0.06669   2.87834
    R3        4.72432  -0.01967   0.00000   0.00000   0.00000   4.72432
    R4        3.59048  -0.04098   0.00000   0.00000   0.00000   3.59048
    R5        2.07331  -0.00259   0.00000  -0.00679  -0.00679   2.06652
    R6        2.07468  -0.00133   0.00000  -0.00348  -0.00348   2.07120
    R7        2.06868  -0.00141   0.00000  -0.00367  -0.00367   2.06501
    R8        2.20923  -0.00242   0.00000  -0.00190  -0.00190   2.20734
    A1        1.99667   0.04266   0.00000   0.15751   0.15010   2.14677
    A2        2.01908  -0.01786   0.00000  -0.08248  -0.07758   1.94150
    A3        1.89239  -0.00917   0.00000   0.03179   0.01400   1.90639
    A4        1.92419  -0.02208   0.00000  -0.10225  -0.09785   1.82634
    A5        1.77194   0.02150   0.00000   0.09028   0.07869   1.85064
    A6        1.83479  -0.01446   0.00000  -0.08807  -0.08531   1.74948
    A7        1.97398  -0.00196   0.00000  -0.01074  -0.01103   1.96295
    A8        1.87942   0.00293   0.00000   0.01826   0.01837   1.89780
    A9        1.90140  -0.00903   0.00000  -0.04803  -0.04826   1.85314
   A10        1.90356   0.00044   0.00000   0.00714   0.00717   1.91073
   A11        1.90837   0.00465   0.00000   0.01691   0.01627   1.92464
   A12        1.89554   0.00315   0.00000   0.01766   0.01790   1.91344
   A13        3.09758  -0.00293   0.00000  -0.03427  -0.03427   3.06331
   A14        2.90696   0.00167   0.00000   0.01959   0.01959   2.92655
    D1        3.04510   0.00894   0.00000   0.07419   0.07956   3.12466
    D2       -1.13357   0.01027   0.00000   0.08894   0.09419  -1.03938
    D3        0.91915   0.01076   0.00000   0.09412   0.09907   1.01822
    D4       -0.92685   0.00140   0.00000   0.00304   0.00294  -0.92391
    D5        1.17766   0.00274   0.00000   0.01779   0.01757   1.19523
    D6       -3.05280   0.00323   0.00000   0.02297   0.02245  -3.03036
    D7        1.01121  -0.01264   0.00000  -0.09013  -0.09486   0.91635
    D8        3.11572  -0.01130   0.00000  -0.07538  -0.08023   3.03549
    D9       -1.11475  -0.01081   0.00000  -0.07021  -0.07536  -1.19010
         Item               Value     Threshold  Converged?
 Maximum Force            0.105317     0.000450     NO 
 RMS     Force            0.023327     0.000300     NO 
 Maximum Displacement     0.187673     0.001800     NO 
 RMS     Displacement     0.078180     0.001200     NO 
 Predicted change in Energy=-2.141662D-02
 Lowest energy point so far.  Saving SCF results.
 GradGradGradGradGradGradGradGradGradGradGradGradGradGradGradGradGradGrad

 Leave Link  103 at Wed Jan  8 01:15:54 2020, MaxMem=  4294967296 cpu:             111.9 elap:               8.1
 (Enter /home/cwagen/sw/g16/g16/l202.exe)
                          Input orientation:                          
 ---------------------------------------------------------------------
 Center     Atomic      Atomic             Coordinates (Angstroms)
 Number     Number       Type             X           Y           Z
 ---------------------------------------------------------------------
      1          6           0       -0.141777   -0.391311   -0.244885
      2          8           0       -0.248109   -0.610097   -1.441204
      3          6           0       -0.360269   -1.461400    0.816797
      4          1           0       -0.204568   -1.082213    1.830620
      5          1           0       -1.382229   -1.846359    0.723545
      6          1           0        0.353897   -2.258729    0.596906
      7         17           0       -1.605251    1.508308    0.462002
      8          6           0        1.570791    0.353355    0.105236
      9          7           0        2.690992    0.676437    0.177056
 ---------------------------------------------------------------------
                    Distance matrix (angstroms):
                    1          2          3          4          5
     1  C    0.000000
     2  O    1.220800   0.000000
     3  C    1.523154   2.415753   0.000000
     4  H    2.188381   3.305997   1.093555   0.000000
     5  H    2.143301   2.738742   1.096034   1.787854   0.000000
     6  H    2.107499   2.689663   1.092757   1.793913   1.788916
     7  Cl   2.500000   3.154626   3.239603   3.247435   3.372230
     8  C    1.900000   2.574512   2.743838   2.861766   3.733815
     9  N    3.056583   3.593362   3.780187   3.769800   4.822269
                    6          7          8          9
     6  H    0.000000
     7  Cl   4.248179   0.000000
     8  C    2.923277   3.398300   0.000000
     9  N    3.775378   4.385306   1.168072   0.000000
 Stoichiometry    C3H3ClNO(1-)
 Framework group  C1[X(C3H3ClNO)]
 Deg. of freedom    21
 Full point group                 C1      NOp   1
 RotChk:  IX=0 Diff= 1.04D-01
 Largest Abelian subgroup         C1      NOp   1
 Largest concise Abelian subgroup C1      NOp   1
                         Standard orientation:                         
 ---------------------------------------------------------------------
 Center     Atomic      Atomic             Coordinates (Angstroms)
 Number     Number       Type             X           Y           Z
 ---------------------------------------------------------------------
      1          6           0        0.192526    0.623834    0.231393
      2          8           0        0.292053    1.029456    1.378527
      3          6           0        0.221241    1.546456   -0.980193
      4          1           0        0.135529    1.000163   -1.923633
      5          1           0       -0.603826    2.263094   -0.896609
      6          1           0        1.175045    2.077862   -0.935658
      7         17           0       -1.875890   -0.748056   -0.067897
      8          6           0        1.521988   -0.696671   -0.082929
      9          7           0        2.461775   -1.385932   -0.161100
 ---------------------------------------------------------------------
 Rotational constants (GHZ):           3.1342724           1.7564849           1.4309064
 Leave Link  202 at Wed Jan  8 01:15:54 2020, MaxMem=  4294967296 cpu:               3.2 elap:               0.3
 (Enter /home/cwagen/sw/g16/g16/l301.exe)
 Standard basis: 6-31+G(d) (6D, 7F)
 Ernie: Thresh=  0.10000D-02 Tol=  0.10000D-05 Strict=F.
 There are   124 symmetry adapted cartesian basis functions of A   symmetry.
 There are   124 symmetry adapted basis functions of A   symmetry.
   124 basis functions,   228 primitive gaussians,   124 cartesian basis functions
    27 alpha electrons       27 beta electrons
       nuclear repulsion energy       234.1622676141 Hartrees.
 IExCor=  402 DFT=T Ex+Corr=B3LYP ExCW=0 ScaHFX=  0.200000
 ScaDFX=  0.800000  0.720000  1.000000  0.810000 ScalE2=  1.000000  1.000000
 IRadAn=      5 IRanWt=     -1 IRanGd=            0 ICorTp=0 IEmpDi=  4
 NAtoms=    9 NActive=    9 NUniq=    9 SFac= 1.00D+00 NAtFMM=   60 NAOKFM=F Big=F
 Integral buffers will be    131072 words long.
 Raffenetti 2 integral format.
 Two-electron integral symmetry is turned on.
 ------------------------------------------------------------------------------
 Polarizable Continuum Model (PCM)
 =================================
 Model                : PCM.
 Atomic radii         : SMD-Coulomb.
 Polarization charges : Total charges.
 Charge compensation  : None.
 Solution method      : On-the-fly selection.
 Cavity type          : VdW (van der Waals Surface) (Alpha=1.000).
 Cavity algorithm     : GePol (No added spheres)
                        Default sphere list used, NSphG=    9.
                        Lebedev-Laikov grids with approx.  5.0 points / Ang**2.
                        Smoothing algorithm: York/Karplus (Gamma=1.0000).
                        Polarization charges: spherical gaussians, with
                                              point-specific exponents (IZeta= 3).
                        Self-potential: point-specific (ISelfS= 7).
                        Self-field    : sphere-specific E.n sum rule (ISelfD= 2).
 1st derivatives      : Analytical E(r).r(x)/FMM algorithm (CHGder, D1EAlg=3).
                        Cavity 1st derivative terms included.
 Solvent              : TetraHydroFuran, Eps=   7.425700 Eps(inf)=   1.974025
 ------------------------------------------------------------------------------
 Spheres list:
 ISph  on   Nord     Re0    Alpha      Xe            Ye            Ze
    1   C      1    1.8500  1.000      0.192526      0.623834      0.231393
    2   O      2    2.2940  1.000      0.292053      1.029456      1.378527
    3   C      3    1.8500  1.000      0.221241      1.546456     -0.980193
    4   H      4    1.2000  1.000      0.135529      1.000163     -1.923633
    5   H      5    1.2000  1.000     -0.603826      2.263094     -0.896609
    6   H      6    1.2000  1.000      1.175045      2.077862     -0.935658
    7  Cl      7    2.3800  1.000     -1.875890     -0.748056     -0.067897
    8   C      8    1.8500  1.000      1.521988     -0.696671     -0.082929
    9   N      9    1.8900  1.000      2.461775     -1.385932     -0.161100
 ------------------------------------------------------------------------------
 GePol: Number of generator spheres                  =       9
 GePol: Total number of spheres                      =       9
 GePol: Number of exposed spheres                    =       9 (100.00%)
 GePol: Number of points                             =    1215
 GePol: Average weight of points                     =       0.14
 GePol: Minimum weight of points                     =   0.51D-09
 GePol: Maximum weight of points                     =    0.18138
 GePol: Number of points with low weight             =      27
 GePol: Fraction of low-weight points (<1% of avg)   =       2.22%
 GePol: Cavity surface area                          =    165.351 Ang**2
 GePol: Cavity volume                                =    150.425 Ang**3
 ------------------------------------------------------------------------------
 Atomic radii for non-electrostatic terms: SMD-CDS.
 ------------------------------------------------------------------------------
 PCM non-electrostatic energy =        -0.0004900826 Hartrees.
 Nuclear repulsion after PCM non-electrostatic terms =      234.1617775314 Hartrees.
 Leave Link  301 at Wed Jan  8 01:15:54 2020, MaxMem=  4294967296 cpu:               2.5 elap:               0.2
 (Enter /home/cwagen/sw/g16/g16/l302.exe)
 NPDir=0 NMtPBC=     1 NCelOv=     1 NCel=       1 NClECP=     1 NCelD=      1
         NCelK=      1 NCelE2=     1 NClLst=     1 CellRange=     0.0.
 One-electron integrals computed using PRISM.
 One-electron integral symmetry used in STVInt
 NBasis=   124 RedAO= T EigKep=  8.75D-05  NBF=   124
 NBsUse=   124 1.00D-06 EigRej= -1.00D+00 NBFU=   124
 Precomputing XC quadrature grid using
 IXCGrd= 4 IRadAn=           5 IRanWt=          -1 IRanGd=           0 AccXCQ= 0.00D+00.
 Generated NRdTot=       0 NPtTot=           0 NUsed=           0 NTot=          32
 NSgBfM=   124   124   124   124   124 MxSgAt=     9 MxSgA2=     9.
 Leave Link  302 at Wed Jan  8 01:15:57 2020, MaxMem=  4294967296 cpu:              36.6 elap:               2.8
 (Enter /home/cwagen/sw/g16/g16/l303.exe)
 DipDrv:  MaxL=1.
 Leave Link  303 at Wed Jan  8 01:15:58 2020, MaxMem=  4294967296 cpu:               4.0 elap:               0.4
 (Enter /home/cwagen/sw/g16/g16/l401.exe)
 Initial guess from the checkpoint file:  "/scratch/users/cwagen/cwagen_scan_250_190/Gau-23308.chk"
 B after Tr=     0.000000    0.000000    0.000000
         Rot=    0.999525   -0.007692   -0.005867   -0.029277 Ang=  -3.53 deg.
 Guess basis will be translated and rotated to current coordinates.
 JPrj=2 DoOrth=T DoCkMO=T.
 Generating alternative initial guess.
 ExpMin= 4.38D-02 ExpMax= 2.52D+04 ExpMxC= 3.78D+03 IAcc=2 IRadAn=         4 AccDes= 0.00D+00
 Harris functional with IExCor=  402 and IRadAn=       4 diagonalized for initial guess.
 HarFok:  IExCor=  402 AccDes= 0.00D+00 IRadAn=         4 IDoV= 1 UseB2=F ITyADJ=14
 ICtDFT=  3500011 ScaDFX=  1.000000  1.000000  1.000000  1.000000
 FoFCou: FMM=F IPFlag=           0 FMFlag=      100000 FMFlg1=           0
         NFxFlg=           0 DoJE=T BraDBF=F KetDBF=T FulRan=T
         wScrn=  0.000000 ICntrl=       500 IOpCl=  0 I1Cent=   200000004 NGrid=           0
         NMat0=    1 NMatS0=      1 NMatT0=    0 NMatD0=    1 NMtDS0=    0 NMtDT0=    0
 Petite list used in FoFCou.
 Harris En= -706.396345928114    
 Leave Link  401 at Wed Jan  8 01:16:02 2020, MaxMem=  4294967296 cpu:              56.5 elap:               4.3
 (Enter /home/cwagen/sw/g16/g16/l502.exe)
 Keep R1 ints in memory in canonical form, NReq=45236517.
 FoFCou: FMM=F IPFlag=           0 FMFlag=           0 FMFlg1=           0
         NFxFlg=           0 DoJE=F BraDBF=F KetDBF=F FulRan=T
         wScrn=  0.000000 ICntrl=       600 IOpCl=  0 I1Cent=           0 NGrid=           0
         NMat0=    1 NMatS0=   7750 NMatT0=    0 NMatD0=    1 NMtDS0=    0 NMtDT0=    0
 Symmetry not used in FoFCou.
 Two-electron integral symmetry not used.
 Closed shell SCF:
 Using DIIS extrapolation, IDIIS=  1040.
 NGot=  4294967296 LenX=  4264898079 LenY=  4264882262
 Requested convergence on RMS density matrix=1.00D-08 within 128 cycles.
 Requested convergence on MAX density matrix=1.00D-06.
 Requested convergence on             energy=1.00D-06.
 No special actions if energy rises.

 Cycle   1  Pass 1  IDiag  1:
 Inv3:  Mode=1 IEnd=     4428675.
 Iteration    1 A*A^-1 deviation from unit magnitude is 3.77D-15 for   1213.
 Iteration    1 A*A^-1 deviation from orthogonality  is 2.78D-15 for   1209   1059.
 Iteration    1 A^-1*A deviation from unit magnitude is 4.22D-15 for   1213.
 Iteration    1 A^-1*A deviation from orthogonality  is 2.44D-15 for   1209   1059.
 E= -706.397098943620    
 DIIS: error= 4.57D-03 at cycle   1 NSaved=   1.
 NSaved= 1 IEnMin= 1 EnMin= -706.397098943620     IErMin= 1 ErrMin= 4.57D-03
 ErrMax= 4.57D-03  0.00D+00 EMaxC= 1.00D-01 BMatC= 1.01D-02 BMatP= 1.01D-02
 IDIUse=3 WtCom= 9.54D-01 WtEn= 4.57D-02
 Coeff-Com:  0.100D+01
 Coeff-En:   0.100D+01
 Coeff:      0.100D+01
 Gap=     0.581 Goal=   None    Shift=    0.000
 GapD=    0.581 DampG=2.000 DampE=1.000 DampFc=2.0000 IDamp=-1.
 RMSDP=2.25D-03 MaxDP=4.63D-02              OVMax= 4.58D-02

 Cycle   2  Pass 1  IDiag  1:
 E= -706.412838904741     Delta-E=       -0.015739961122 Rises=F Damp=F
 DIIS: error= 1.89D-03 at cycle   2 NSaved=   2.
 NSaved= 2 IEnMin= 2 EnMin= -706.412838904741     IErMin= 2 ErrMin= 1.89D-03
 ErrMax= 1.89D-03  0.00D+00 EMaxC= 1.00D-01 BMatC= 7.62D-04 BMatP= 1.01D-02
 IDIUse=3 WtCom= 9.81D-01 WtEn= 1.89D-02
 Coeff-Com:  0.826D-01 0.917D+00
 Coeff-En:   0.000D+00 0.100D+01
 Coeff:      0.810D-01 0.919D+00
 Gap=     0.197 Goal=   None    Shift=    0.000
 RMSDP=6.06D-04 MaxDP=1.28D-02 DE=-1.57D-02 OVMax= 2.08D-02

 Cycle   3  Pass 1  IDiag  1:
 E= -706.412190772462     Delta-E=        0.000648132280 Rises=F Damp=F
 DIIS: error= 2.55D-03 at cycle   3 NSaved=   3.
 NSaved= 3 IEnMin= 2 EnMin= -706.412838904741     IErMin= 2 ErrMin= 1.89D-03
 ErrMax= 2.55D-03  0.00D+00 EMaxC= 1.00D-01 BMatC= 1.50D-03 BMatP= 7.62D-04
 IDIUse=3 WtCom= 1.65D-01 WtEn= 8.35D-01
 Coeff-Com: -0.260D-01 0.598D+00 0.428D+00
 Coeff-En:   0.000D+00 0.636D+00 0.364D+00
 Coeff:     -0.430D-02 0.629D+00 0.375D+00
 Gap=     0.191 Goal=   None    Shift=    0.000
 RMSDP=4.31D-04 MaxDP=8.98D-03 DE= 6.48D-04 OVMax= 1.51D-02

 Cycle   4  Pass 1  IDiag  1:
 E= -706.413557080678     Delta-E=       -0.001366308216 Rises=F Damp=F
 DIIS: error= 5.65D-04 at cycle   4 NSaved=   4.
 NSaved= 4 IEnMin= 4 EnMin= -706.413557080678     IErMin= 4 ErrMin= 5.65D-04
 ErrMax= 5.65D-04  0.00D+00 EMaxC= 1.00D-01 BMatC= 6.89D-05 BMatP= 7.62D-04
 IDIUse=3 WtCom= 9.94D-01 WtEn= 5.65D-03
 Coeff-Com: -0.229D-01 0.278D+00 0.230D+00 0.515D+00
 Coeff-En:   0.000D+00 0.000D+00 0.000D+00 0.100D+01
 Coeff:     -0.228D-01 0.277D+00 0.228D+00 0.518D+00
 Gap=     0.189 Goal=   None    Shift=    0.000
 RMSDP=1.10D-04 MaxDP=2.12D-03 DE=-1.37D-03 OVMax= 2.78D-03

 Cycle   5  Pass 1  IDiag  1:
 E= -706.413605839740     Delta-E=       -0.000048759062 Rises=F Damp=F
 DIIS: error= 2.15D-04 at cycle   5 NSaved=   5.
 NSaved= 5 IEnMin= 5 EnMin= -706.413605839740     IErMin= 5 ErrMin= 2.15D-04
 ErrMax= 2.15D-04  0.00D+00 EMaxC= 1.00D-01 BMatC= 1.21D-05 BMatP= 6.89D-05
 IDIUse=3 WtCom= 9.98D-01 WtEn= 2.15D-03
 Coeff-Com: -0.779D-02 0.794D-01 0.852D-01 0.308D+00 0.536D+00
 Coeff-En:   0.000D+00 0.000D+00 0.000D+00 0.149D+00 0.851D+00
 Coeff:     -0.777D-02 0.792D-01 0.851D-01 0.307D+00 0.536D+00
 Gap=     0.190 Goal=   None    Shift=    0.000
 RMSDP=6.36D-05 MaxDP=1.95D-03 DE=-4.88D-05 OVMax= 1.37D-03

 Cycle   6  Pass 1  IDiag  1:
 E= -706.413618144321     Delta-E=       -0.000012304581 Rises=F Damp=F
 DIIS: error= 6.01D-05 at cycle   6 NSaved=   6.
 NSaved= 6 IEnMin= 6 EnMin= -706.413618144321     IErMin= 6 ErrMin= 6.01D-05
 ErrMax= 6.01D-05  0.00D+00 EMaxC= 1.00D-01 BMatC= 9.02D-07 BMatP= 1.21D-05
 IDIUse=1 WtCom= 1.00D+00 WtEn= 0.00D+00
 Coeff-Com: -0.220D-02 0.157D-01 0.240D-01 0.119D+00 0.286D+00 0.558D+00
 Coeff:     -0.220D-02 0.157D-01 0.240D-01 0.119D+00 0.286D+00 0.558D+00
 Gap=     0.190 Goal=   None    Shift=    0.000
 RMSDP=1.31D-05 MaxDP=3.55D-04 DE=-1.23D-05 OVMax= 3.70D-04

 Cycle   7  Pass 1  IDiag  1:
 E= -706.413618804799     Delta-E=       -0.000000660478 Rises=F Damp=F
 DIIS: error= 4.09D-05 at cycle   7 NSaved=   7.
 NSaved= 7 IEnMin= 7 EnMin= -706.413618804799     IErMin= 7 ErrMin= 4.09D-05
 ErrMax= 4.09D-05  0.00D+00 EMaxC= 1.00D-01 BMatC= 2.71D-07 BMatP= 9.02D-07
 IDIUse=1 WtCom= 1.00D+00 WtEn= 0.00D+00
 Coeff-Com: -0.351D-03-0.176D-02 0.314D-02 0.379D-01 0.126D+00 0.385D+00
 Coeff-Com:  0.450D+00
 Coeff:     -0.351D-03-0.176D-02 0.314D-02 0.379D-01 0.126D+00 0.385D+00
 Coeff:      0.450D+00
 Gap=     0.190 Goal=   None    Shift=    0.000
 RMSDP=4.71D-06 MaxDP=1.12D-04 DE=-6.60D-07 OVMax= 2.09D-04

 Cycle   8  Pass 1  IDiag  1:
 E= -706.413619026524     Delta-E=       -0.000000221725 Rises=F Damp=F
 DIIS: error= 1.23D-05 at cycle   8 NSaved=   8.
 NSaved= 8 IEnMin= 8 EnMin= -706.413619026524     IErMin= 8 ErrMin= 1.23D-05
 ErrMax= 1.23D-05  0.00D+00 EMaxC= 1.00D-01 BMatC= 2.35D-08 BMatP= 2.71D-07
 IDIUse=1 WtCom= 1.00D+00 WtEn= 0.00D+00
 Coeff-Com:  0.154D-03-0.369D-02-0.256D-02 0.272D-02 0.290D-01 0.127D+00
 Coeff-Com:  0.270D+00 0.578D+00
 Coeff:      0.154D-03-0.369D-02-0.256D-02 0.272D-02 0.290D-01 0.127D+00
 Coeff:      0.270D+00 0.578D+00
 Gap=     0.190 Goal=   None    Shift=    0.000
 RMSDP=2.19D-06 MaxDP=5.91D-05 DE=-2.22D-07 OVMax= 4.71D-05

 Cycle   9  Pass 1  IDiag  1:
 E= -706.413619048437     Delta-E=       -0.000000021913 Rises=F Damp=F
 DIIS: error= 1.85D-06 at cycle   9 NSaved=   9.
 NSaved= 9 IEnMin= 9 EnMin= -706.413619048437     IErMin= 9 ErrMin= 1.85D-06
 ErrMax= 1.85D-06  0.00D+00 EMaxC= 1.00D-01 BMatC= 1.19D-09 BMatP= 2.35D-08
 IDIUse=1 WtCom= 1.00D+00 WtEn= 0.00D+00
 Coeff-Com:  0.898D-04-0.145D-02-0.161D-02-0.138D-02 0.397D-02 0.239D-01
 Coeff-Com:  0.831D-01 0.243D+00 0.650D+00
 Coeff:      0.898D-04-0.145D-02-0.161D-02-0.138D-02 0.397D-02 0.239D-01
 Coeff:      0.831D-01 0.243D+00 0.650D+00
 Gap=     0.190 Goal=   None    Shift=    0.000
 RMSDP=5.69D-07 MaxDP=1.67D-05 DE=-2.19D-08 OVMax= 2.02D-05

 Cycle  10  Pass 1  IDiag  1:
 E= -706.413619049881     Delta-E=       -0.000000001444 Rises=F Damp=F
 DIIS: error= 5.82D-07 at cycle  10 NSaved=  10.
 NSaved=10 IEnMin=10 EnMin= -706.413619049881     IErMin=10 ErrMin= 5.82D-07
 ErrMax= 5.82D-07  0.00D+00 EMaxC= 1.00D-01 BMatC= 9.82D-11 BMatP= 1.19D-09
 IDIUse=1 WtCom= 1.00D+00 WtEn= 0.00D+00
 Coeff-Com:  0.218D-04-0.182D-03-0.438D-03-0.780D-03-0.133D-02-0.431D-02
 Coeff-Com:  0.298D-02 0.365D-01 0.273D+00 0.694D+00
 Coeff:      0.218D-04-0.182D-03-0.438D-03-0.780D-03-0.133D-02-0.431D-02
 Coeff:      0.298D-02 0.365D-01 0.273D+00 0.694D+00
 Gap=     0.190 Goal=   None    Shift=    0.000
 RMSDP=1.64D-07 MaxDP=5.46D-06 DE=-1.44D-09 OVMax= 4.56D-06

 Cycle  11  Pass 1  IDiag  1:
 E= -706.413619049998     Delta-E=       -0.000000000117 Rises=F Damp=F
 DIIS: error= 1.41D-07 at cycle  11 NSaved=  11.
 NSaved=11 IEnMin=11 EnMin= -706.413619049998     IErMin=11 ErrMin= 1.41D-07
 ErrMax= 1.41D-07  0.00D+00 EMaxC= 1.00D-01 BMatC= 2.30D-12 BMatP= 9.82D-11
 IDIUse=1 WtCom= 1.00D+00 WtEn= 0.00D+00
 Coeff-Com:  0.140D-05 0.291D-04-0.299D-04-0.167D-03-0.577D-03-0.249D-02
 Coeff-Com: -0.398D-02-0.194D-02 0.428D-01 0.194D+00 0.772D+00
 Coeff:      0.140D-05 0.291D-04-0.299D-04-0.167D-03-0.577D-03-0.249D-02
 Coeff:     -0.398D-02-0.194D-02 0.428D-01 0.194D+00 0.772D+00
 Gap=     0.190 Goal=   None    Shift=    0.000
 RMSDP=6.47D-08 MaxDP=2.35D-06 DE=-1.17D-10 OVMax= 9.19D-07

 Cycle  12  Pass 1  IDiag  1:
 E= -706.413619050000     Delta-E=       -0.000000000002 Rises=F Damp=F
 DIIS: error= 2.59D-08 at cycle  12 NSaved=  12.
 NSaved=12 IEnMin=12 EnMin= -706.413619050000     IErMin=12 ErrMin= 2.59D-08
 ErrMax= 2.59D-08  0.00D+00 EMaxC= 1.00D-01 BMatC= 1.20D-13 BMatP= 2.30D-12
 IDIUse=1 WtCom= 1.00D+00 WtEn= 0.00D+00
 Coeff-Com: -0.485D-06 0.116D-04 0.145D-04-0.111D-04-0.635D-04-0.271D-03
 Coeff-Com: -0.979D-03-0.154D-02-0.234D-02 0.818D-02 0.158D+00 0.839D+00
 Coeff:     -0.485D-06 0.116D-04 0.145D-04-0.111D-04-0.635D-04-0.271D-03
 Coeff:     -0.979D-03-0.154D-02-0.234D-02 0.818D-02 0.158D+00 0.839D+00
 Gap=     0.190 Goal=   None    Shift=    0.000
 RMSDP=1.04D-08 MaxDP=2.99D-07 DE=-2.39D-12 OVMax= 2.30D-07

 Cycle  13  Pass 1  IDiag  1:
 E= -706.413619050001     Delta-E=       -0.000000000001 Rises=F Damp=F
 DIIS: error= 3.90D-09 at cycle  13 NSaved=  13.
 NSaved=13 IEnMin=13 EnMin= -706.413619050001     IErMin=13 ErrMin= 3.90D-09
 ErrMax= 3.90D-09  0.00D+00 EMaxC= 1.00D-01 BMatC= 3.18D-15 BMatP= 1.20D-13
 IDIUse=1 WtCom= 1.00D+00 WtEn= 0.00D+00
 Coeff-Com: -0.182D-06 0.124D-05 0.411D-05 0.509D-05 0.136D-04 0.523D-04
 Coeff-Com: -0.184D-04-0.188D-03-0.223D-02-0.727D-02-0.202D-02 0.168D+00
 Coeff-Com:  0.843D+00
 Coeff:     -0.182D-06 0.124D-05 0.411D-05 0.509D-05 0.136D-04 0.523D-04
 Coeff:     -0.184D-04-0.188D-03-0.223D-02-0.727D-02-0.202D-02 0.168D+00
 Coeff:      0.843D+00
 Gap=     0.190 Goal=   None    Shift=    0.000
 RMSDP=1.63D-09 MaxDP=3.17D-08 DE=-1.14D-12 OVMax= 7.11D-08

 Error on total polarization charges =  0.02331
 SCF Done:  E(RB3LYP) =  -706.413619050     A.U. after   13 cycles
            NFock= 13  Conv=0.16D-08     -V/T= 2.0059
 KE= 7.022659644345D+02 PE=-2.146262348040D+03 EE= 5.034209870241D+02
 SMD-CDS (non-electrostatic) energy       (kcal/mol) =      -0.31
 (included in total energy above)
 Leave Link  502 at Wed Jan  8 01:16:37 2020, MaxMem=  4294967296 cpu:             471.8 elap:              35.1
 (Enter /home/cwagen/sw/g16/g16/l701.exe)
 ... and contract with generalized density number  0.
 Compute integral first derivatives.
 D1PCM: PCM CHGder 1st derivatives, ID1Alg=3 FixD1E=F DoIter=F DoCFld=F I1PDM=0.
 GePol: Maximum number of non-zero 1st derivatives   =     376
 Leave Link  701 at Wed Jan  8 01:16:43 2020, MaxMem=  4294967296 cpu:              79.7 elap:               5.9
 (Enter /home/cwagen/sw/g16/g16/l702.exe)
 L702 exits ... SP integral derivatives will be done elsewhere.
 Leave Link  702 at Wed Jan  8 01:16:43 2020, MaxMem=  4294967296 cpu:               1.1 elap:               0.1
 (Enter /home/cwagen/sw/g16/g16/l703.exe)
 Integral derivatives from FoFJK, PRISM(SPDF).
 Compute integral first derivatives, UseDBF=F ICtDFT=           0.
 Calling FoFJK, ICntrl=      2127 FMM=F ISym2X=0 I1Cent= 0 IOpClX= 0 NMat=1 NMatS=1 NMatT=0.
 FoFJK:  IHMeth= 1 ICntrl=    2127 DoSepK=F KAlg= 0 I1Cent=           0 FoldK=F
 IRaf=         0 NMat=       1 IRICut=       1 DoRegI=T DoRafI=F ISym2E= 0 IDoP0=0 IntGTp=1.
 FoFCou: FMM=F IPFlag=           0 FMFlag=      100000 FMFlg1=         800
         NFxFlg=           0 DoJE=F BraDBF=F KetDBF=F FulRan=T
         wScrn=  0.000000 ICntrl=      2127 IOpCl=  0 I1Cent=           0 NGrid=           0
         NMat0=    1 NMatS0=      1 NMatT0=    0 NMatD0=    1 NMtDS0=    0 NMtDT0=    0
 Symmetry not used in FoFCou.
 Leave Link  703 at Wed Jan  8 01:16:46 2020, MaxMem=  4294967296 cpu:              37.1 elap:               2.9
 (Enter /home/cwagen/sw/g16/g16/l716.exe)
 Dipole        = 4.24839796D-01 2.44058134D+00-9.91331763D-01
 ***** Axes restored to original set *****
 -------------------------------------------------------------------
 Center     Atomic                   Forces (Hartrees/Bohr)
 Number     Number              X              Y              Z
 -------------------------------------------------------------------
      1        6           0.045272274   -0.022169056   -0.034576579
      2        8          -0.008374994    0.019710301    0.034511727
      3        6          -0.009734468    0.018364807    0.004975123
      4        1           0.000392717   -0.000136939   -0.001763098
      5        1           0.000983807    0.000171195   -0.000524902
      6        1           0.001820869   -0.000553064   -0.000524037
      7       17           0.006697746   -0.007581866   -0.000803228
      8        6          -0.037296136   -0.008339860   -0.001057318
      9        7           0.000238184    0.000534482   -0.000237688
 -------------------------------------------------------------------
 Cartesian Forces:  Max     0.045272274 RMS     0.016573709
 Leave Link  716 at Wed Jan  8 01:16:46 2020, MaxMem=  4294967296 cpu:               1.1 elap:               0.1
 (Enter /home/cwagen/sw/g16/g16/l103.exe)

 GradGradGradGradGradGradGradGradGradGradGradGradGradGradGradGradGradGrad
 Berny optimization.
 Using GEDIIS/GDIIS optimizer.
 FormGI is forming the generalized inverse of G from B-inverse, IUseBI=4.
 Internal  Forces:  Max     0.036694756 RMS     0.011336662
 Search for a local minimum.
 Step number   2 out of a maximum of   41
 All quantities printed in internal units (Hartrees-Bohrs-Radians)
 RMS Force = .93570D-02 SwitMx=.10000D-02 MixMth= 1
 Mixed Optimization -- RFO/linear search
 Update second derivatives using D2CorX and points    1    2
 DE= -2.66D-02 DEPred=-2.14D-02 R= 1.24D+00
 TightC=F SS=  1.41D+00  RLast= 3.60D-01 DXNew= 5.0454D-01 1.0790D+00
 Trust test= 1.24D+00 RLast= 3.60D-01 DXMaxT set to 5.05D-01
 ITU=  1  0
 Use linear search instead of GDIIS.
     Eigenvalues ---    0.00230   0.04742   0.04754   0.05465   0.05680
     Eigenvalues ---    0.06063   0.08887   0.15993   0.16000   0.16178
     Eigenvalues ---    0.22556   0.25000   0.26636   0.26748   0.33913
     Eigenvalues ---    0.33986   0.34323   0.58990   1.220551000.00000
     Eigenvalues --- 1000.000001000.000001000.000001000.000001000.00000
     Eigenvalues --- 1000.000001000.000001000.000001000.000001000.00000
     Eigenvalues --- 1000.00000
 RFO step:  Lambda=-3.23008558D-03 EMin= 2.30137445D-03
 Quartic linear search produced a step of  0.59364.
 Iteration  1 RMS(Cart)=  0.08476358 RMS(Int)=  0.00892165
 Iteration  2 RMS(Cart)=  0.00779959 RMS(Int)=  0.00599235
 Iteration  3 RMS(Cart)=  0.00005710 RMS(Int)=  0.00599216
 Iteration  4 RMS(Cart)=  0.00000119 RMS(Int)=  0.00599216
 Iteration  5 RMS(Cart)=  0.00000002 RMS(Int)=  0.00599216
 Iteration  1 RMS(Cart)=  0.00000000 RMS(Int)=  0.00000000
 ITry= 1 IFail=0 DXMaxC= 1.87D-01 DCOld= 1.00D+10 DXMaxT= 5.05D-01 DXLimC= 3.00D+00 Rises=F
 Variable       Old X    -DE/DX   Delta X   Delta X   Delta X     New X
                                 (Linear)    (Quad)   (Total)
    R1        2.30698  -0.03661  -0.08625   0.00012  -0.08613   2.22085
    R2        2.87834  -0.01010  -0.03959  -0.01241  -0.05200   2.82635
    R3        4.72432  -0.00993   0.00000   0.00000   0.00000   4.72432
    R4        3.59048  -0.03669   0.00000   0.00000   0.00000   3.59048
    R5        2.06652  -0.00162  -0.00403  -0.00305  -0.00708   2.05944
    R6        2.07120  -0.00094  -0.00207  -0.00211  -0.00418   2.06703
    R7        2.06501   0.00174  -0.00218   0.01056   0.00838   2.07339
    R8        2.20734   0.00035  -0.00113   0.00154   0.00041   2.20775
    A1        2.14677   0.01985   0.08910   0.03704   0.11498   2.26175
    A2        1.94150  -0.00630  -0.04605  -0.01113  -0.04894   1.89256
    A3        1.90639   0.00010   0.00831   0.06770   0.05511   1.96150
    A4        1.82634  -0.01277  -0.05809  -0.04746  -0.09957   1.72676
    A5        1.85064   0.00022   0.04672  -0.03048  -0.00124   1.84939
    A6        1.74948  -0.00611  -0.05064  -0.03317  -0.08402   1.66546
    A7        1.96295  -0.00070  -0.00655   0.00242  -0.00431   1.95864
    A8        1.89780   0.00000   0.01091  -0.01482  -0.00385   1.89395
    A9        1.85314  -0.00110  -0.02865   0.02896   0.00017   1.85330
   A10        1.91073   0.00079   0.00425   0.00290   0.00716   1.91789
   A11        1.92464   0.00041   0.00966  -0.00988  -0.00061   1.92403
   A12        1.91344   0.00058   0.01063  -0.00956   0.00121   1.91465
   A13        3.06331   0.00123  -0.02034   0.09155   0.07121   3.13452
   A14        2.92655  -0.00014   0.01163  -0.03424  -0.02261   2.90394
    D1        3.12466   0.00735   0.04723   0.02920   0.08208  -3.07644
    D2       -1.03938   0.00789   0.05592   0.02417   0.08566  -0.95371
    D3        1.01822   0.00797   0.05881   0.02101   0.08522   1.10343
    D4       -0.92391   0.00169   0.00175  -0.00477  -0.00483  -0.92873
    D5        1.19523   0.00223   0.01043  -0.00980  -0.00124   1.19400
    D6       -3.03036   0.00231   0.01333  -0.01296  -0.00169  -3.03204
    D7        0.91635  -0.00967  -0.05631  -0.06945  -0.12928   0.78707
    D8        3.03549  -0.00913  -0.04763  -0.07447  -0.12569   2.90980
    D9       -1.19010  -0.00905  -0.04473  -0.07763  -0.12614  -1.31624
         Item               Value     Threshold  Converged?
 Maximum Force            0.036613     0.000450     NO 
 RMS     Force            0.009357     0.000300     NO 
 Maximum Displacement     0.187123     0.001800     NO 
 RMS     Displacement     0.086575     0.001200     NO 
 Predicted change in Energy=-8.859322D-03
 Lowest energy point so far.  Saving SCF results.
 GradGradGradGradGradGradGradGradGradGradGradGradGradGradGradGradGradGrad

 Leave Link  103 at Wed Jan  8 01:16:51 2020, MaxMem=  4294967296 cpu:              62.0 elap:               4.8
 (Enter /home/cwagen/sw/g16/g16/l202.exe)
                          Input orientation:                          
 ---------------------------------------------------------------------
 Center     Atomic      Atomic             Coordinates (Angstroms)
 Number     Number       Type             X           Y           Z
 ---------------------------------------------------------------------
      1          6           0       -0.100075   -0.480596   -0.299619
      2          8           0       -0.262234   -0.597525   -1.457711
      3          6           0       -0.368145   -1.454394    0.803464
      4          1           0       -0.173488   -1.027010    1.786894
      5          1           0       -1.411646   -1.775605    0.737271
      6          1           0        0.294432   -2.310247    0.623644
      7         17           0       -1.510073    1.419185    0.508302
      8          6           0        1.562247    0.338724    0.119192
      9          7           0        2.642460    0.775458    0.204637
 ---------------------------------------------------------------------
                    Distance matrix (angstroms):
                    1          2          3          4          5
     1  C    0.000000
     2  O    1.175221   0.000000
     3  C    1.495639   2.420404   0.000000
     4  H    2.158123   3.274110   1.089808   0.000000
     5  H    2.114807   2.743531   1.093824   1.787494   0.000000
     6  H    2.087024   2.752331   1.097191   1.794101   1.791495
     7  Cl   2.500000   3.080491   3.106215   3.066778   3.204496
     8  C    1.900000   2.586873   2.722115   2.767532   3.700870
     9  N    3.058340   3.617420   3.794018   3.698918   4.819480
                    6          7          8          9
     6  H    0.000000
     7  Cl   4.144659   0.000000
     8  C    2.979743   3.279932   0.000000
     9  N    3.900048   4.213090   1.168288   0.000000
 Stoichiometry    C3H3ClNO(1-)
 Framework group  C1[X(C3H3ClNO)]
 Deg. of freedom    21
 Full point group                 C1      NOp   1
 RotChk:  IX=0 Diff= 1.17D-01
 Largest Abelian subgroup         C1      NOp   1
 Largest concise Abelian subgroup C1      NOp   1
                         Standard orientation:                         
 ---------------------------------------------------------------------
 Center     Atomic      Atomic             Coordinates (Angstroms)
 Number     Number       Type             X           Y           Z
 ---------------------------------------------------------------------
      1          6           0        0.198774    0.714814    0.244637
      2          8           0        0.211069    1.093344    1.357160
      3          6           0        0.065421    1.493130   -1.025551
      4          1           0        0.023933    0.847185   -1.902315
      5          1           0       -0.842662    2.100123   -0.967277
      6          1           0        0.944835    2.147185   -1.077247
      7         17           0       -1.743503   -0.832803   -0.042494
      8          6           0        1.527991   -0.601836   -0.086445
      9          7           0        2.438823   -1.331462   -0.140557
 ---------------------------------------------------------------------
 Rotational constants (GHZ):           3.0863443           1.8807358           1.5045169
 Leave Link  202 at Wed Jan  8 01:16:51 2020, MaxMem=  4294967296 cpu:               2.0 elap:               0.2
 (Enter /home/cwagen/sw/g16/g16/l301.exe)
 Standard basis: 6-31+G(d) (6D, 7F)
 Ernie: Thresh=  0.10000D-02 Tol=  0.10000D-05 Strict=F.
 There are   124 symmetry adapted cartesian basis functions of A   symmetry.
 There are   124 symmetry adapted basis functions of A   symmetry.
   124 basis functions,   228 primitive gaussians,   124 cartesian basis functions
    27 alpha electrons       27 beta electrons
       nuclear repulsion energy       237.9291659599 Hartrees.
 IExCor=  402 DFT=T Ex+Corr=B3LYP ExCW=0 ScaHFX=  0.200000
 ScaDFX=  0.800000  0.720000  1.000000  0.810000 ScalE2=  1.000000  1.000000
 IRadAn=      5 IRanWt=     -1 IRanGd=            0 ICorTp=0 IEmpDi=  4
 NAtoms=    9 NActive=    9 NUniq=    9 SFac= 1.00D+00 NAtFMM=   60 NAOKFM=F Big=F
 Integral buffers will be    131072 words long.
 Raffenetti 2 integral format.
 Two-electron integral symmetry is turned on.
 ------------------------------------------------------------------------------
 Polarizable Continuum Model (PCM)
 =================================
 Model                : PCM.
 Atomic radii         : SMD-Coulomb.
 Polarization charges : Total charges.
 Charge compensation  : None.
 Solution method      : On-the-fly selection.
 Cavity type          : VdW (van der Waals Surface) (Alpha=1.000).
 Cavity algorithm     : GePol (No added spheres)
                        Default sphere list used, NSphG=    9.
                        Lebedev-Laikov grids with approx.  5.0 points / Ang**2.
                        Smoothing algorithm: York/Karplus (Gamma=1.0000).
                        Polarization charges: spherical gaussians, with
                                              point-specific exponents (IZeta= 3).
                        Self-potential: point-specific (ISelfS= 7).
                        Self-field    : sphere-specific E.n sum rule (ISelfD= 2).
 1st derivatives      : Analytical E(r).r(x)/FMM algorithm (CHGder, D1EAlg=3).
                        Cavity 1st derivative terms included.
 Solvent              : TetraHydroFuran, Eps=   7.425700 Eps(inf)=   1.974025
 ------------------------------------------------------------------------------
 Spheres list:
 ISph  on   Nord     Re0    Alpha      Xe            Ye            Ze
    1   C      1    1.8500  1.000      0.198774      0.714814      0.244637
    2   O      2    2.2940  1.000      0.211069      1.093344      1.357160
    3   C      3    1.8500  1.000      0.065421      1.493130     -1.025551
    4   H      4    1.2000  1.000      0.023933      0.847185     -1.902315
    5   H      5    1.2000  1.000     -0.842662      2.100123     -0.967277
    6   H      6    1.2000  1.000      0.944835      2.147185     -1.077247
    7  Cl      7    2.3800  1.000     -1.743503     -0.832803     -0.042494
    8   C      8    1.8500  1.000      1.527991     -0.601836     -0.086445
    9   N      9    1.8900  1.000      2.438823     -1.331462     -0.140557
 ------------------------------------------------------------------------------
 GePol: Number of generator spheres                  =       9
 GePol: Total number of spheres                      =       9
 GePol: Number of exposed spheres                    =       9 (100.00%)
 GePol: Number of points                             =    1218
 GePol: Average weight of points                     =       0.13
 GePol: Minimum weight of points                     =   0.28D-07
 GePol: Maximum weight of points                     =    0.18138
 GePol: Number of points with low weight             =      52
 GePol: Fraction of low-weight points (<1% of avg)   =       4.27%
 GePol: Cavity surface area                          =    162.868 Ang**2
 GePol: Cavity volume                                =    149.135 Ang**3
 ------------------------------------------------------------------------------
 Atomic radii for non-electrostatic terms: SMD-CDS.
 ------------------------------------------------------------------------------
[...]
      9        7          -0.000024964    0.000028891    0.000033137
 -------------------------------------------------------------------
 Cartesian Forces:  Max     0.034755790 RMS     0.010480602
 Leave Link  716 at Wed Jan  8 01:21:47 2020, MaxMem=  4294967296 cpu:               0.9 elap:               0.1
 (Enter /home/cwagen/sw/g16/g16/l103.exe)

 GradGradGradGradGradGradGradGradGradGradGradGradGradGradGradGradGradGrad
 Berny optimization.
 Using GEDIIS/GDIIS optimizer.
 FormGI is forming the generalized inverse of G from B-inverse, IUseBI=4.
 Internal  Forces:  Max     0.038329996 RMS     0.006913540
 Search for a local minimum.
 Step number   9 out of a maximum of   41
 All quantities printed in internal units (Hartrees-Bohrs-Radians)
 RMS Force = .16303D-04 SwitMx=.10000D-02 MixMth= 2
 Mixed Optimization -- En-DIIS/RFO-DIIS
 Swapping is turned off.
 Update second derivatives using D2CorX and points    2    3    4    5    6
                                                      7    8    9
 DE= -2.85D-07 DEPred=-2.15D-07 R= 1.33D+00
 Trust test= 1.33D+00 RLast= 4.65D-03 DXMaxT set to 8.49D-01
 ITU=  0  1  1  1  1  1  1  1  0
     Eigenvalues ---    0.00264   0.02210   0.04006   0.04836   0.05483
     Eigenvalues ---    0.06031   0.07899   0.15635   0.16156   0.16922
     Eigenvalues ---    0.21174   0.22590   0.25367   0.28497   0.33963
     Eigenvalues ---    0.34061   0.34657   0.93487   1.225961000.00000
     Eigenvalues --- 1000.000001000.000001000.000001000.000001000.00000
     Eigenvalues --- 1000.000001000.000001000.000001000.000001000.00000
     Eigenvalues --- 1000.00000
 En-DIIS/RFO-DIIS/Sim-DIIS IScMMF=       -3 using points:     9    8    7    6    5
 RFO step:  Lambda=-1.52926555D-06.
 NNeg= 0 NGDIIS= 5 SimSw=  2.50D-01 Rises=F DC= -2.85D-07 SmlDif=  1.00D-05
 NRisDI= 0 DoIntr=F SqrtH=F CThrHd= 10.0 CDAdj=  3.0
 RMS Error=  0.1815060845D-03 NUsed= 5 OKEnD=F EnDIS=F
 InvSVX:  RCond= 5.45D-08 Info=           0 Equed=N FErr=  9.93D-14 BErr=  1.06D-16
 DIIS inversion failure, remove point   5.
 InvSVX:  RCond= 1.57D-06 Info=           0 Equed=N FErr=  2.20D-15 BErr=  3.95D-17
 RFO-DIIS uses    4 points instead of    5
 DidBck=F Rises=F RFO-DIIS coefs:    1.16006   -0.13935   -0.00885   -0.01186    0.00000
 Iteration  1 RMS(Cart)=  0.00036929 RMS(Int)=  0.00000008
 Iteration  2 RMS(Cart)=  0.00000009 RMS(Int)=  0.00000003
 Iteration  1 RMS(Cart)=  0.00000000 RMS(Int)=  0.00000000
 ITry= 1 IFail=0 DXMaxC= 9.50D-04 DCOld= 1.00D+10 DXMaxT= 8.49D-01 DXLimC= 3.00D+00 Rises=F
 Variable       Old X    -DE/DX   Delta X   Delta X   Delta X     New X
                                 (Linear)    (Quad)   (Total)
    R1        2.24516  -0.00004   0.00002  -0.00007  -0.00005   2.24511
    R2        2.82305  -0.00001   0.00003  -0.00003   0.00000   2.82306
    R3        4.72432   0.00354   0.00000   0.00000   0.00000   4.72432
    R4        3.59048  -0.03833   0.00000   0.00000   0.00000   3.59048
    R5        2.05683  -0.00001   0.00000  -0.00002  -0.00001   2.05681
    R6        2.06717   0.00000   0.00001  -0.00001   0.00001   2.06718
    R7        2.07750   0.00001  -0.00002   0.00002   0.00001   2.07751
    R8        2.20769  -0.00001   0.00000  -0.00001   0.00000   2.20769
    A1        2.29376   0.00002  -0.00006   0.00016   0.00010   2.29386
    A2        1.86428   0.00001   0.00002  -0.00006  -0.00005   1.86424
    A3        1.99950   0.00003   0.00014   0.00008   0.00022   1.99972
    A4        1.67664  -0.00003   0.00004  -0.00024  -0.00021   1.67643
    A5        1.86997  -0.00005  -0.00012  -0.00014  -0.00026   1.86971
    A6        1.58515   0.00002   0.00002   0.00012   0.00014   1.58528
    A7        1.94848  -0.00001   0.00005  -0.00010  -0.00005   1.94843
    A8        1.90291   0.00000   0.00002   0.00000   0.00002   1.90293
    A9        1.86443   0.00001  -0.00009   0.00010   0.00001   1.86444
   A10        1.92725   0.00000  -0.00008   0.00001  -0.00006   1.92718
   A11        1.91205   0.00000   0.00008   0.00001   0.00009   1.91214
   A12        1.90737   0.00000   0.00001  -0.00002   0.00000   1.90737
   A13        3.15036  -0.00001  -0.00035  -0.00005  -0.00040   3.14996
   A14        3.00743   0.00001   0.00016   0.00021   0.00037   3.00780
    D1       -2.95180   0.00001  -0.00022   0.00020  -0.00002  -2.95182
    D2       -0.81776   0.00000  -0.00027   0.00015  -0.00012  -0.81787
    D3        1.24148   0.00001  -0.00029   0.00018  -0.00010   1.24138
    D4       -0.87840  -0.00001  -0.00019  -0.00006  -0.00024  -0.87864
    D5        1.25564  -0.00001  -0.00024  -0.00011  -0.00034   1.25530
    D6       -2.96830  -0.00001  -0.00026  -0.00007  -0.00033  -2.96863
    D7        0.74028   0.00000  -0.00017  -0.00002  -0.00019   0.74009
    D8        2.87433   0.00000  -0.00022  -0.00007  -0.00029   2.87404
    D9       -1.34962   0.00000  -0.00024  -0.00004  -0.00028  -1.34990
         Item               Value     Threshold  Converged?
 Maximum Force            0.000047     0.000450     YES
 RMS     Force            0.000016     0.000300     YES
 Maximum Displacement     0.000950     0.001800     YES
 RMS     Displacement     0.000369     0.001200     YES
 Predicted change in Energy=-2.373761D-08
 Optimization completed.
    -- Stationary point found.
                           ----------------------------
                           !   Optimized Parameters   !
                           ! (Angstroms and Degrees)  !
 --------------------------                            --------------------------
 ! Name  Definition              Value          Derivative Info.                !
 --------------------------------------------------------------------------------
 ! R1    R(1,2)                  1.1881         -DE/DX =    0.0                 !
 ! R2    R(1,3)                  1.4939         -DE/DX =    0.0                 !
 ! R3    R(1,7)                  2.5            -DE/DX =    0.0035              !
 ! R4    R(1,8)                  1.9            -DE/DX =   -0.0383              !
 ! R5    R(3,4)                  1.0884         -DE/DX =    0.0                 !
 ! R6    R(3,5)                  1.0939         -DE/DX =    0.0                 !
 ! R7    R(3,6)                  1.0994         -DE/DX =    0.0                 !
 ! R8    R(8,9)                  1.1683         -DE/DX =    0.0                 !
 ! A1    A(2,1,3)              131.4226         -DE/DX =    0.0                 !
 ! A2    A(2,1,7)              106.8156         -DE/DX =    0.0                 !
 ! A3    A(2,1,8)              114.5628         -DE/DX =    0.0                 !
 ! A4    A(3,1,7)               96.0642         -DE/DX =    0.0                 !
 ! A5    A(3,1,8)              107.1414         -DE/DX =    0.0                 !
 ! A6    A(7,1,8)               90.8221         -DE/DX =    0.0                 !
 ! A7    A(1,3,4)              111.6397         -DE/DX =    0.0                 !
 ! A8    A(1,3,5)              109.0284         -DE/DX =    0.0                 !
 ! A9    A(1,3,6)              106.824          -DE/DX =    0.0                 !
 ! A10   A(4,3,5)              110.4232         -DE/DX =    0.0                 !
 ! A11   A(4,3,6)              109.5523         -DE/DX =    0.0                 !
 ! A12   A(5,3,6)              109.2844         -DE/DX =    0.0                 !
 ! A13   L(1,8,9,6,-1)         180.5025         -DE/DX =    0.0                 !
 ! A14   L(1,8,9,6,-2)         172.3132         -DE/DX =    0.0                 !
 ! D1    D(2,1,3,4)           -169.1257         -DE/DX =    0.0                 !
 ! D2    D(2,1,3,5)            -46.8539         -DE/DX =    0.0                 !
 ! D3    D(2,1,3,6)             71.1318         -DE/DX =    0.0                 !
 ! D4    D(7,1,3,4)            -50.3286         -DE/DX =    0.0                 !
 ! D5    D(7,1,3,5)             71.9431         -DE/DX =    0.0                 !
 ! D6    D(7,1,3,6)           -170.0712         -DE/DX =    0.0                 !
 ! D7    D(8,1,3,4)             42.415          -DE/DX =    0.0                 !
 ! D8    D(8,1,3,5)            164.6867         -DE/DX =    0.0                 !
 ! D9    D(8,1,3,6)            -77.3276         -DE/DX =    0.0                 !
 --------------------------------------------------------------------------------
 Lowest energy point so far.  Saving SCF results.
 Largest change from initial coordinates is atom    6       0.191 Angstoms.
 GradGradGradGradGradGradGradGradGradGradGradGradGradGradGradGradGradGrad

 Leave Link  103 at Wed Jan  8 01:21:56 2020, MaxMem=  4294967296 cpu:             124.1 elap:               9.5
 (Enter /home/cwagen/sw/g16/g16/l202.exe)
                          Input orientation:                          
 ---------------------------------------------------------------------
 Center     Atomic      Atomic             Coordinates (Angstroms)
 Number     Number       Type             X           Y           Z
 ---------------------------------------------------------------------
      1          6           0       -0.072812   -0.533523   -0.332957
      2          8           0       -0.308192   -0.605673   -1.495256
      3          6           0       -0.378455   -1.461856    0.796868
      4          1           0       -0.185150   -0.996977    1.761850
      5          1           0       -1.423858   -1.776345    0.727238
      6          1           0        0.273393   -2.338503    0.673625
      7         17           0       -1.385884    1.401014    0.552147
      8          6           0        1.558087    0.344906    0.089571
      9          7           0        2.596348    0.854948    0.252991
 ---------------------------------------------------------------------
                    Distance matrix (angstroms):
                    1          2          3          4          5
     1  C    0.000000
     2  O    1.188086   0.000000
     3  C    1.493896   2.447819   0.000000
     4  H    2.148401   3.282834   1.088425   0.000000
     5  H    2.119894   2.748575   1.093901   1.792271   0.000000
     6  H    2.095476   2.836369   1.099366   1.787229   1.788731
     7  Cl   2.500000   3.062691   3.044803   2.942024   3.182406
     8  C    1.900000   2.626457   2.741324   2.763339   3.714610
     9  N    3.065224   3.691359   3.809571   3.666471   4.828113
                    6          7          8          9
     6  H    0.000000
     7  Cl   4.092914   0.000000
     8  C    3.031871   3.161694   0.000000
     9  N    3.971294   4.030615   1.168261   0.000000
 Stoichiometry    C3H3ClNO(1-)
 Framework group  C1[X(C3H3ClNO)]
 Deg. of freedom    21
 Full point group                 C1      NOp   1
 RotChk:  IX=0 Diff= 1.85D-15
 Largest Abelian subgroup         C1      NOp   1
 Largest concise Abelian subgroup C1      NOp   1
                         Standard orientation:                         
 ---------------------------------------------------------------------
 Center     Atomic      Atomic             Coordinates (Angstroms)
 Number     Number       Type             X           Y           Z
 ---------------------------------------------------------------------
      1          6           0        0.185528    0.791068    0.232575
      2          8           0        0.116672    1.199629    1.346076
      3          6           0       -0.050461    1.460157   -1.082094
      4          1           0       -0.082472    0.740993   -1.898456
      5          1           0       -0.986911    2.023392   -1.032617
      6          1           0        0.784840    2.157552   -1.238672
      7         17           0       -1.612073   -0.927966   -0.019520
      8          6           0        1.524226   -0.528739   -0.043101
      9          7           0        2.400093   -1.296923   -0.130186
 ---------------------------------------------------------------------
 Rotational constants (GHZ):           2.9350212           2.0118527           1.5578275
 Leave Link  202 at Wed Jan  8 01:21:56 2020, MaxMem=  4294967296 cpu:               1.2 elap:               0.1
 (Enter /home/cwagen/sw/g16/g16/l601.exe)
 Copying SCF densities to generalized density rwf, IOpCl= 0 IROHF=0.

 **********************************************************************

            Population analysis using the SCF density.

 **********************************************************************

 Orbital symmetries:
       Occupied  (A) (A) (A) (A) (A) (A) (A) (A) (A) (A) (A) (A)
                 (A) (A) (A) (A) (A) (A) (A) (A) (A) (A) (A) (A)
                 (A) (A) (A)
       Virtual   (A) (A) (A) (A) (A) (A) (A) (A) (A) (A) (A) (A)
                 (A) (A) (A) (A) (A) (A) (A) (A) (A) (A) (A) (A)
                 (A) (A) (A) (A) (A) (A) (A) (A) (A) (A) (A) (A)
                 (A) (A) (A) (A) (A) (A) (A) (A) (A) (A) (A) (A)
                 (A) (A) (A) (A) (A) (A) (A) (A) (A) (A) (A) (A)
                 (A) (A) (A) (A) (A) (A) (A) (A) (A) (A) (A) (A)
                 (A) (A) (A) (A) (A) (A) (A) (A) (A) (A) (A) (A)
                 (A) (A) (A) (A) (A) (A) (A) (A) (A) (A) (A) (A)
                 (A)
 The electronic state is 1-A.
 Alpha  occ. eigenvalues -- -101.43328 -19.16597 -14.31338 -10.33009 -10.20010
 Alpha  occ. eigenvalues --  -10.18898  -9.34757  -7.10682  -7.10451  -7.10443
 Alpha  occ. eigenvalues --   -1.07255  -0.87340  -0.75032  -0.68899  -0.55041
 Alpha  occ. eigenvalues --   -0.48033  -0.44656  -0.44326  -0.39362  -0.37086
 Alpha  occ. eigenvalues --   -0.36215  -0.31618  -0.31445  -0.27585  -0.23174
 Alpha  occ. eigenvalues --   -0.22717  -0.22691
 Alpha virt. eigenvalues --   -0.02357   0.01595   0.02962   0.04719   0.05260
 Alpha virt. eigenvalues --    0.06625   0.06856   0.07976   0.09170   0.09920
 Alpha virt. eigenvalues --    0.10334   0.10600   0.11033   0.13046   0.13688
 Alpha virt. eigenvalues --    0.14155   0.14403   0.17112   0.17416   0.21192
 Alpha virt. eigenvalues --    0.23469   0.24502   0.25092   0.25184   0.26569
 Alpha virt. eigenvalues --    0.28206   0.28924   0.30426   0.33061   0.34928
 Alpha virt. eigenvalues --    0.37599   0.41705   0.47125   0.61718   0.63766
 Alpha virt. eigenvalues --    0.64722   0.65767   0.68791   0.70857   0.72227
 Alpha virt. eigenvalues --    0.75153   0.77531   0.79406   0.79878   0.81530
 Alpha virt. eigenvalues --    0.82507   0.89272   0.94182   0.97567   0.97891
 Alpha virt. eigenvalues --    0.99071   0.99306   1.01677   1.01983   1.03750
 Alpha virt. eigenvalues --    1.05161   1.09121   1.15099   1.17930   1.28234
 Alpha virt. eigenvalues --    1.29747   1.33084   1.34773   1.41706   1.45604
 Alpha virt. eigenvalues --    1.51984   1.56254   1.56333   1.58530   1.60646
 Alpha virt. eigenvalues --    1.65793   1.69415   1.80651   1.83880   1.88096
 Alpha virt. eigenvalues --    1.92902   1.98882   1.99749   2.05633   2.14816
 Alpha virt. eigenvalues --    2.24750   2.26594   2.41470   2.52779   2.57909
 Alpha virt. eigenvalues --    2.63729   2.71252   2.76057   2.90001   3.11984
 Alpha virt. eigenvalues --    3.13975   4.10117   4.18050   4.29551   4.37537
 Alpha virt. eigenvalues --    4.41453   4.51004
          Condensed to atoms (all electrons):
               1          2          3          4          5          6
     1  C    5.539232   0.592304   0.026204  -0.085978  -0.076849   0.011540
     2  O    0.592304   7.999492  -0.108248   0.007670   0.000858  -0.006103
     3  C    0.026204  -0.108248   5.795963   0.402117   0.386686   0.338085
     4  H   -0.085978   0.007670   0.402117   0.441926  -0.019995  -0.024847
     5  H   -0.076849   0.000858   0.386686  -0.019995   0.451210  -0.023403
     6  H    0.011540  -0.006103   0.338085  -0.024847  -0.023403   0.466246
     7  Cl   0.215586  -0.075798  -0.120273  -0.002034  -0.005817   0.005764
     8  C   -0.557216  -0.119580  -0.083468   0.016876   0.027274  -0.024360
     9  N   -0.021193  -0.001149  -0.007158   0.000249  -0.000060  -0.000778
               7          8          9
     1  C    0.215586  -0.557216  -0.021193
     2  O   -0.075798  -0.119580  -0.001149
     3  C   -0.120273  -0.083468  -0.007158
     4  H   -0.002034   0.016876   0.000249
     5  H   -0.005817   0.027274  -0.000060
     6  H    0.005764  -0.024360  -0.000778
     7  Cl  17.798351  -0.079077  -0.016855
     8  C   -0.079077   6.087239   0.614014
     9  N   -0.016855   0.614014   7.050370
 Mulliken charges:
               1
     1  C    0.356371
     2  O   -0.289445
     3  C   -0.629908
     4  H    0.264015
     5  H    0.260098
     6  H    0.257856
     7  Cl  -0.719847
     8  C    0.118298
     9  N   -0.617439
 Sum of Mulliken charges =  -1.00000
 Mulliken charges with hydrogens summed into heavy atoms:
               1
     1  C    0.356371
     2  O   -0.289445
     3  C    0.152062
     7  Cl  -0.719847
     8  C    0.118298
     9  N   -0.617439
 Electronic spatial extent (au):  <R**2>=            819.5216
 Charge=             -1.0000 electrons
 Dipole moment (field-independent basis, Debye):
    X=              0.8438    Y=              7.0720    Z=             -2.7108  Tot=              7.6206
 Quadrupole moment (field-independent basis, Debye-Ang):
   XX=            -69.7276   YY=            -52.8639   ZZ=            -47.8493
   XY=              2.0421   XZ=              0.6243   YZ=             -4.9871
 Traceless Quadrupole moment (field-independent basis, Debye-Ang):
   XX=            -12.9140   YY=              3.9497   ZZ=              8.9643
   XY=              2.0421   XZ=              0.6243   YZ=             -4.9871
 Octapole moment (field-independent basis, Debye-Ang**2):
  XXX=            -20.1728  YYY=             26.0660  ZZZ=             -3.8897  XYY=             -6.3093
  XXY=             36.4164  XXZ=              3.3299  XZZ=             -0.1834  YZZ=              1.9248
  YYZ=             -4.5595  XYZ=             -1.4319
 Hexadecapole moment (field-independent basis, Debye-Ang**3):
 XXXX=           -751.6134 YYYY=           -399.0667 ZZZZ=           -187.5360 XXXY=             42.2671
 XXXZ=              7.4089 YYYX=             15.1241 YYYZ=             -9.1386 ZZZX=              0.8287
 ZZZY=             -4.4415 XXYY=           -203.2493 XXZZ=           -136.2222 YYZZ=            -99.9467
 XXYZ=             -4.2390 YYXZ=              1.7095 ZZXY=              0.1281
 N-N= 2.390551422577D+02 E-N=-2.156314285826D+03  KE= 7.024344092276D+02
 No NMR shielding tensors so no spin-rotation constants.
 Leave Link  601 at Wed Jan  8 01:21:57 2020, MaxMem=  4294967296 cpu:              12.1 elap:               0.9
 (Enter /home/cwagen/sw/g16/g16/l9999.exe)
 1\1\GINC-NODE048\FOpt\RB3LYP\6-31+G(d)\C3H3Cl1N1O1(1-)\CWAGEN\08-Jan-2
 020\0\\#p opt=modredundant b3lyp/6-31+g(d) scrf=(smd, solvent=tetrahyd
 rofuran)\\title\\-1,1\C,-0.0728119594,-0.5335227987,-0.332957449\O,-0.
 308191824,-0.6056731993,-1.4952563645\C,-0.3784549857,-1.461856043,0.7
 968675379\H,-0.1851497654,-0.9969772024,1.7618495709\H,-1.4238584421,-
 1.776345486,0.7272378526\H,0.273393126,-2.3385031111,0.6736248698\Cl,-
 1.3858842539,1.40101368,0.5521469413\C,1.5580873937,0.3449061081,0.089
 5705845\N,2.5963477307,0.8549477324,0.2529905864\\Version=AS64L-G16Rev
 A.03\State=1-A\HF=-706.4231386\RMSD=2.575e-09\RMSF=1.048e-02\Dipole=-0
 .2780442,-2.9697303,0.3040484\Quadrupole=-9.689913,5.0391322,4.6507808
 ,1.3887599,0.0722389,-4.0605757\PG=C01 [X(C3H3Cl1N1O1)]\\@


 WHEN A MATHEMATICIAN ENGAGED IN INVESTIGATING
 PHYSICAL ACTIONS AND RESULTS HAS ARRIVED AT HIS
 CONCLUSIONS, MAY THEY NOT BE EXPRESSED IN COMMON
 LANGUAGE AS FULLY, CLEARLY, AND DEFINITELY AS IN
 MATHEMATICAL FORMULAE?
           - LETTER FROM M. FARADAY TO J.C. MAXWELL, 1857.
 Job cpu time:       0 days  1 hours 35 minutes 50.9 seconds.
 Elapsed time:       0 days  0 hours  7 minutes  5.7 seconds.
 File lengths (MBytes):  RWF=     37 Int=      0 D2E=      0 Chk=      3 Scr=      1
 Normal termination of Gaussian 16 at Wed Jan  8 01:21:58 2020.
