 Entering Gaussian System, Link 0=g16
 Input=scan_150_140.gjf
 Output=scan_150_140.out
 Initial command:
 /home/cwagen/sw/g16/g16/l1.exe "/scratch/users/cwagen/cwagen_scan_150_140/Gau-10444.inp" -scrdir="/scratch/users/cwagen/cwagen_scan_150_140/"
 Entering Link 1 = /home/cwagen/sw/g16/g16/l1.exe PID=     10445.
  
 Copyright (c) 1988,1990,1992,1993,1995,1998,2003,2009,2016,
            Gaussian, Inc.  All Rights Reserved.
  
 This is part of the Gaussian(R) 16 program.  It is based on
 the Gaussian(R) 09 system (copyright 2009, Gaussian, Inc.),
 the Gaussian(R) 03 system (copyright 2003, Gaussian, Inc.),
 the Gaussian(R) 98 system (copyright 1998, Gaussian, Inc.),
 the Gaussian(R) 94 system (copyright 1995, Gaussian, Inc.),
 the Gaussian 92(TM) system (copyright 1992, Gaussian, Inc.),
 the Gaussian 90(TM) system (copyright 1990, Gaussian, Inc.),
 the Gaussian 88(TM) system (copyright 1988, Gaussian, Inc.),
 the Gaussian 86(TM) system (copyright 1986, Carnegie Mellon
 University), and the Gaussian 82(TM) system (copyright 1983,
 Carnegie Mellon University). Gaussian is a federally registered
 trademark of Gaussian, Inc.
  
 This software contains proprietary and confidential information,
 including trade secrets, belonging to Gaussian, Inc.
  
 This software is provided under written license and may be
 used, copied, transmitted, or stored only in accord with that
 written license.
  
 The following legend is applicable only to US Government
 contracts under FAR:
  
                    RESTRICTED RIGHTS LEGEND
  
 Use, reproduction and disclosure by the US Government is
 subject to restrictions as set forth in subparagraphs (a)
 and (c) of the Commercial Computer Software - Restricted
 Rights clause in FAR 52.227-19.
  
 Gaussian, Inc.
 340 Quinnipiac St., Bldg. 40, Wallingford CT 06492
  
  
 ---------------------------------------------------------------
 Warning -- This program may not be used in any manner that
 competes with the business of Gaussian, Inc. or will provide
 assistance to any competitor of Gaussian, Inc.  The licensee
 of this program is prohibited from giving any competitor of
 Gaussian, Inc. access to this program.  By using this program,
 the user acknowledges that Gaussian, Inc. is engaged in the
 business of creating and licensing software in the field of
 computational chemistry and represents and warrants to the
 licensee that it is not a competitor of Gaussian, Inc. and that
 it will not use this program in any manner prohibited above.
 ---------------------------------------------------------------
  

 Cite this work as:
 Gaussian 16, Revision A.03,
 M. J. Frisch, G. W. Trucks, H. B. Schlegel, G. E. Scuseria, 
 M. A. Robb, J. R. Cheeseman, G. Scalmani, V. Barone, 
 G. A. Petersson, H. Nakatsuji, X. Li, M. Caricato, A. V. Marenich, 
 J. Bloino, B. G. Janesko, R. Gomperts, B. Mennucci, H. P. Hratchian, 
 J. V. Ortiz, A. F. Izmaylov, J. L. Sonnenberg, D. Williams-Young, 
 F. Ding, F. Lipparini, F. Egidi, J. Goings, B. Peng, A. Petrone, 
 T. Henderson, D. Ranasinghe, V. G. Zakrzewski, J. Gao, N. Rega, 
 G. Zheng, W. Liang, M. Hada, M. Ehara, K. Toyota, R. Fukuda, 
 J. Hasegawa, M. Ishida, T. Nakajima, Y. Honda, O. Kitao, H. Nakai, 
 T. Vreven, K. Throssell, J. A. Montgomery, Jr., J. E. Peralta, 
 F. Ogliaro, M. J. Bearpark, J. J. Heyd, E. N. Brothers, K. N. Kudin, 
 V. N. Staroverov, T. A. Keith, R. Kobayashi, J. Normand, 
 K. Raghavachari, A. P. Rendell, J. C. Burant, S. S. Iyengar, 
 J. Tomasi, M. Cossi, J. M. Millam, M. Klene, C. Adamo, R. Cammi, 
 J. W. Ochterski, R. L. Martin, K. Morokuma, O. Farkas, 
 J. B. Foresman, and D. J. Fox, Gaussian, Inc., Wallingford CT, 2016.
 
 ******************************************
 Gaussian 16:  AS64L-G16RevA.03 25-Dec-2016
                 7-Jan-2020 
 ******************************************
 %nprocshared=16
 Will use up to   16 processors via shared memory.
 %mem=32GB
 ----------------------------------------------------------------------
 #p opt=modredundant b3lyp/6-31+g(d) scrf=(smd, solvent=tetrahydrofuran
 )
 ----------------------------------------------------------------------
 1/18=120,19=15,26=3,38=1/1,3;
 2/9=110,12=2,17=6,18=5,40=1/2;
 3/5=1,6=6,7=11,11=2,25=1,30=1,70=32201,71=1,72=20,74=-5/1,2,3;
 4//1;
 5/5=2,38=5,53=20/2;
 6/7=2,8=2,9=2,10=2,28=1/1;
 7//1,2,3,16;
 1/18=20,19=15,26=3/3(2);
 2/9=110/2;
 99//99;
 2/9=110/2;
 3/5=1,6=6,7=11,11=2,25=1,30=1,70=32205,71=1,72=20,74=-5/1,2,3;
 4/5=5,16=3,69=1/1;
 5/5=2,38=5,53=20/2;
 7//1,2,3,16;
 1/18=20,19=15,26=3/3(-5);
 2/9=110/2;
 6/7=2,8=2,9=2,10=2,19=2,28=1/1;
 99/9=1/99;
 Leave Link    1 at Tue Jan  7 22:44:38 2020, MaxMem=  4294967296 cpu:               1.5 elap:               0.1
 (Enter /home/cwagen/sw/g16/g16/l101.exe)
 -----
 title
 -----
 Symbolic Z-matrix:
 Charge = -1 Multiplicity = 1
 6                    -0.19426  -0.292    -0.21291 
 8                    -0.25532  -0.66526  -1.45426 
 6                    -0.33095  -1.45422   0.81632 
 1                    -0.18039  -1.13044   1.85373 
 1                    -1.34067  -1.87301   0.71427 
 1                     0.39707  -2.23395   0.57058 
 17                   -1.09237   0.84733   0.16832 
 6                     1.10371   0.16252   0.04918 
 7                     2.23828   0.44281   0.07948 
 
 The following ModRedundant input section has been read:
 B       1       7 F                                                           
 B       1       8 F                                                           
 
 ITRead=  0  0  0  0  0  0  0  0  0
 MicOpt= -1 -1 -1 -1 -1 -1 -1 -1 -1
 NAtoms=      9 NQM=        9 NQMF=       0 NMMI=      0 NMMIF=      0
                NMic=       0 NMicF=      0.
                    Isotopes and Nuclear Properties:
 (Nuclear quadrupole moments (NQMom) in fm**2, nuclear magnetic moments (NMagM)
  in nuclear magnetons)

  Atom         1           2           3           4           5           6           7           8           9
 IAtWgt=          12          16          12           1           1           1          35          12          14
 AtmWgt=  12.0000000  15.9949146  12.0000000   1.0078250   1.0078250   1.0078250  34.9688527  12.0000000  14.0030740
 NucSpn=           0           0           0           1           1           1           3           0           2
 AtZEff=   0.0000000   0.0000000   0.0000000   0.0000000   0.0000000   0.0000000   0.0000000   0.0000000   0.0000000
 NQMom=    0.0000000   0.0000000   0.0000000   0.0000000   0.0000000   0.0000000  -8.1650000   0.0000000   2.0440000
 NMagM=    0.0000000   0.0000000   0.0000000   2.7928460   2.7928460   2.7928460   0.8218740   0.0000000   0.4037610
 AtZNuc=   6.0000000   8.0000000   6.0000000   1.0000000   1.0000000   1.0000000  17.0000000   6.0000000   7.0000000
 Leave Link  101 at Tue Jan  7 22:44:39 2020, MaxMem=  4294967296 cpu:               8.1 elap:               0.6
 (Enter /home/cwagen/sw/g16/g16/l103.exe)

 GradGradGradGradGradGradGradGradGradGradGradGradGradGradGradGradGradGrad
 Berny optimization.
 Initialization pass.
                           ----------------------------
                           !    Initial Parameters    !
                           ! (Angstroms and Degrees)  !
 --------------------------                            --------------------------
 ! Name  Definition              Value          Derivative Info.                !
 --------------------------------------------------------------------------------
 ! R1    R(1,2)                  1.2977         estimate D2E/DX2                !
 ! R2    R(1,3)                  1.5584         estimate D2E/DX2                !
 ! R3    R(1,7)                  1.5            Frozen                          !
 ! R4    R(1,8)                  1.4            Frozen                          !
 ! R5    R(3,4)                  1.0971         estimate D2E/DX2                !
 ! R6    R(3,5)                  1.0979         estimate D2E/DX2                !
 ! R7    R(3,6)                  1.0947         estimate D2E/DX2                !
 ! R8    R(8,9)                  1.1691         estimate D2E/DX2                !
 ! A1    A(2,1,3)              114.4006         estimate D2E/DX2                !
 ! A2    A(2,1,7)              115.6846         estimate D2E/DX2                !
 ! A3    A(2,1,8)              108.426          estimate D2E/DX2                !
 ! A4    A(3,1,7)              110.248          estimate D2E/DX2                !
 ! A5    A(3,1,8)              101.5248         estimate D2E/DX2                !
 ! A6    A(7,1,8)              105.1256         estimate D2E/DX2                !
 ! A7    A(1,3,4)              113.1005         estimate D2E/DX2                !
 ! A8    A(1,3,5)              107.683          estimate D2E/DX2                !
 ! A9    A(1,3,6)              108.9421         estimate D2E/DX2                !
 ! A10   A(4,3,5)              109.0662         estimate D2E/DX2                !
 ! A11   A(4,3,6)              109.3417         estimate D2E/DX2                !
 ! A12   A(5,3,6)              108.6067         estimate D2E/DX2                !
 ! A13   L(1,8,9,6,-1)         177.6911         estimate D2E/DX2                !
 ! A14   L(1,8,9,6,-2)         167.8199         estimate D2E/DX2                !
 ! D1    D(2,1,3,4)            174.4714         estimate D2E/DX2                !
 ! D2    D(2,1,3,5)            -64.9488         estimate D2E/DX2                !
 ! D3    D(2,1,3,6)             52.6633         estimate D2E/DX2                !
 ! D4    D(7,1,3,4)            -53.1046         estimate D2E/DX2                !
 ! D5    D(7,1,3,5)             67.4752         estimate D2E/DX2                !
 ! D6    D(7,1,3,6)           -174.9127         estimate D2E/DX2                !
 ! D7    D(8,1,3,4)             57.938          estimate D2E/DX2                !
 ! D8    D(8,1,3,5)            178.5177         estimate D2E/DX2                !
 ! D9    D(8,1,3,6)            -63.8702         estimate D2E/DX2                !
 --------------------------------------------------------------------------------
 Trust Radius=3.00D-01 FncErr=1.00D-07 GrdErr=1.00D-06 EigMax=2.50D+02 EigMin=1.00D-04
 Number of steps in this run=     41 maximum allowed number of steps=    100.
 GradGradGradGradGradGradGradGradGradGradGradGradGradGradGradGradGradGrad

 Leave Link  103 at Tue Jan  7 22:44:39 2020, MaxMem=  4294967296 cpu:               0.9 elap:               0.1
 (Enter /home/cwagen/sw/g16/g16/l202.exe)
                          Input orientation:                          
 ---------------------------------------------------------------------
 Center     Atomic      Atomic             Coordinates (Angstroms)
 Number     Number       Type             X           Y           Z
 ---------------------------------------------------------------------
      1          6           0       -0.194263   -0.291999   -0.212908
      2          8           0       -0.255321   -0.665256   -1.454255
      3          6           0       -0.330945   -1.454221    0.816316
      4          1           0       -0.180394   -1.130438    1.853734
      5          1           0       -1.340665   -1.873010    0.714272
      6          1           0        0.397068   -2.233949    0.570583
      7         17           0       -1.092372    0.847328    0.168319
      8          6           0        1.103708    0.162516    0.049178
      9          7           0        2.238279    0.442814    0.079481
 ---------------------------------------------------------------------
                    Distance matrix (angstroms):
                    1          2          3          4          5
     1  C    0.000000
     2  O    1.297687   0.000000
     3  C    1.558443   2.404928   0.000000
     4  H    2.230287   3.341377   1.097150   0.000000
     5  H    2.161827   2.709087   1.097876   1.787740   0.000000
     6  H    2.175937   2.643176   1.094698   1.788205   1.780629
     7  Cl   1.500000   2.370930   2.509343   2.753886   2.785670
     8  C    1.400000   2.189172   2.293593   2.564580   3.249719
     9  N    2.557870   3.130208   3.277587   3.387192   4.309853
                    6          7          8          9
     6  H    0.000000
     7  Cl   3.445942   0.000000
     8  C    2.552302   2.303460   0.000000
     9  N    3.285772   3.356301   1.169075   0.000000
 Stoichiometry    C3H3ClNO(1-)
 Framework group  C1[X(C3H3ClNO)]
 Deg. of freedom    21
 Full point group                 C1      NOp   1
 Largest Abelian subgroup         C1      NOp   1
 Largest concise Abelian subgroup C1      NOp   1
                         Standard orientation:                         
 ---------------------------------------------------------------------
 Center     Atomic      Atomic             Coordinates (Angstroms)
 Number     Number       Type             X           Y           Z
 ---------------------------------------------------------------------
      1          6           0       -0.126927    0.235298    0.213323
      2          8           0       -0.136049    0.513080    1.480897
      3          6           0       -0.226676    1.479922   -0.719257
      4          1           0       -0.120348    1.230808   -1.782448
      5          1           0       -1.209320    1.941384   -0.555567
      6          1           0        0.548498    2.199156   -0.436111
      7         17           0       -1.094807   -0.822517   -0.227399
      8          6           0        1.137441   -0.264212   -0.121137
      9          7           0        2.254036   -0.599892   -0.206405
 ---------------------------------------------------------------------
 Rotational constants (GHZ):           4.2644188           2.8276418           2.4908401
 Leave Link  202 at Tue Jan  7 22:44:39 2020, MaxMem=  4294967296 cpu:               1.2 elap:               0.1
 (Enter /home/cwagen/sw/g16/g16/l301.exe)
 Standard basis: 6-31+G(d) (6D, 7F)
 Ernie: Thresh=  0.10000D-02 Tol=  0.10000D-05 Strict=F.
 There are   124 symmetry adapted cartesian basis functions of A   symmetry.
 There are   124 symmetry adapted basis functions of A   symmetry.
   124 basis functions,   228 primitive gaussians,   124 cartesian basis functions
    27 alpha electrons       27 beta electrons
       nuclear repulsion energy       283.8717326218 Hartrees.
 IExCor=  402 DFT=T Ex+Corr=B3LYP ExCW=0 ScaHFX=  0.200000
 ScaDFX=  0.800000  0.720000  1.000000  0.810000 ScalE2=  1.000000  1.000000
 IRadAn=      5 IRanWt=     -1 IRanGd=            0 ICorTp=0 IEmpDi=  4
 NAtoms=    9 NActive=    9 NUniq=    9 SFac= 1.00D+00 NAtFMM=   60 NAOKFM=F Big=F
 Integral buffers will be    131072 words long.
 Raffenetti 2 integral format.
 Two-electron integral symmetry is turned on.
 ------------------------------------------------------------------------------
 Polarizable Continuum Model (PCM)
 =================================
 Model                : PCM.
 Atomic radii         : SMD-Coulomb.
 Polarization charges : Total charges.
 Charge compensation  : None.
 Solution method      : On-the-fly selection.
 Cavity type          : VdW (van der Waals Surface) (Alpha=1.000).
 Cavity algorithm     : GePol (No added spheres)
                        Default sphere list used, NSphG=    9.
                        Lebedev-Laikov grids with approx.  5.0 points / Ang**2.
                        Smoothing algorithm: York/Karplus (Gamma=1.0000).
                        Polarization charges: spherical gaussians, with
                                              point-specific exponents (IZeta= 3).
                        Self-potential: point-specific (ISelfS= 7).
                        Self-field    : sphere-specific E.n sum rule (ISelfD= 2).
 1st derivatives      : Analytical E(r).r(x)/FMM algorithm (CHGder, D1EAlg=3).
                        Cavity 1st derivative terms included.
 Solvent              : TetraHydroFuran, Eps=   7.425700 Eps(inf)=   1.974025
 ------------------------------------------------------------------------------
 Spheres list:
 ISph  on   Nord     Re0    Alpha      Xe            Ye            Ze
    1   C      1    1.8500  1.000     -0.126927      0.235298      0.213323
    2   O      2    2.2940  1.000     -0.136049      0.513080      1.480897
    3   C      3    1.8500  1.000     -0.226676      1.479922     -0.719257
    4   H      4    1.2000  1.000     -0.120348      1.230808     -1.782448
    5   H      5    1.2000  1.000     -1.209320      1.941384     -0.555567
    6   H      6    1.2000  1.000      0.548498      2.199156     -0.436111
    7  Cl      7    2.3800  1.000     -1.094807     -0.822517     -0.227399
    8   C      8    1.8500  1.000      1.137441     -0.264212     -0.121137
    9   N      9    1.8900  1.000      2.254036     -0.599892     -0.206405
 ------------------------------------------------------------------------------
 GePol: Number of generator spheres                  =       9
 GePol: Total number of spheres                      =       9
 GePol: Number of exposed spheres                    =       8 ( 88.89%)
 GePol: Number of points                             =    1067
 GePol: Average weight of points                     =       0.13
 GePol: Minimum weight of points                     =   0.10D-08
 GePol: Maximum weight of points                     =    0.18138
 GePol: Number of points with low weight             =      40
 GePol: Fraction of low-weight points (<1% of avg)   =       3.75%
 GePol: Cavity surface area                          =    143.654 Ang**2
 GePol: Cavity volume                                =    132.638 Ang**3
 ------------------------------------------------------------------------------
 Atomic radii for non-electrostatic terms: SMD-CDS.
 ------------------------------------------------------------------------------
 PCM non-electrostatic energy =        -0.0008506550 Hartrees.
 Nuclear repulsion after PCM non-electrostatic terms =      283.8708819668 Hartrees.
 Leave Link  301 at Tue Jan  7 22:44:39 2020, MaxMem=  4294967296 cpu:               2.3 elap:               0.2
 (Enter /home/cwagen/sw/g16/g16/l302.exe)
 NPDir=0 NMtPBC=     1 NCelOv=     1 NCel=       1 NClECP=     1 NCelD=      1
         NCelK=      1 NCelE2=     1 NClLst=     1 CellRange=     0.0.
 One-electron integrals computed using PRISM.
 One-electron integral symmetry used in STVInt
 NBasis=   124 RedAO= T EigKep=  1.51D-05  NBF=   124
 NBsUse=   124 1.00D-06 EigRej= -1.00D+00 NBFU=   124
 Precomputing XC quadrature grid using
 IXCGrd= 4 IRadAn=           5 IRanWt=          -1 IRanGd=           0 AccXCQ= 0.00D+00.
 Generated NRdTot=       0 NPtTot=           0 NUsed=           0 NTot=          32
 NSgBfM=   124   124   124   124   124 MxSgAt=     9 MxSgA2=     9.
 Leave Link  302 at Tue Jan  7 22:44:41 2020, MaxMem=  4294967296 cpu:              22.1 elap:               1.6
 (Enter /home/cwagen/sw/g16/g16/l303.exe)
 DipDrv:  MaxL=1.
 Leave Link  303 at Tue Jan  7 22:44:41 2020, MaxMem=  4294967296 cpu:               3.8 elap:               0.4
 (Enter /home/cwagen/sw/g16/g16/l401.exe)
 ExpMin= 4.38D-02 ExpMax= 2.52D+04 ExpMxC= 3.78D+03 IAcc=3 IRadAn=         5 AccDes= 0.00D+00
 Harris functional with IExCor=  402 and IRadAn=       5 diagonalized for initial guess.
 HarFok:  IExCor=  402 AccDes= 0.00D+00 IRadAn=         5 IDoV= 1 UseB2=F ITyADJ=14
 ICtDFT=  3500011 ScaDFX=  1.000000  1.000000  1.000000  1.000000
 FoFCou: FMM=F IPFlag=           0 FMFlag=      100000 FMFlg1=           0
         NFxFlg=           0 DoJE=T BraDBF=F KetDBF=T FulRan=T
         wScrn=  0.000000 ICntrl=       500 IOpCl=  0 I1Cent=   200000004 NGrid=           0
         NMat0=    1 NMatS0=      1 NMatT0=    0 NMatD0=    1 NMtDS0=    0 NMtDT0=    0
 Petite list used in FoFCou.
 Harris En= -706.349785561264    
 JPrj=0 DoOrth=F DoCkMO=F.
 Leave Link  401 at Tue Jan  7 22:44:43 2020, MaxMem=  4294967296 cpu:              23.6 elap:               1.6
 (Enter /home/cwagen/sw/g16/g16/l502.exe)
 Keep R1 ints in memory in canonical form, NReq=45236517.
 FoFCou: FMM=F IPFlag=           0 FMFlag=           0 FMFlg1=           0
         NFxFlg=           0 DoJE=F BraDBF=F KetDBF=F FulRan=T
         wScrn=  0.000000 ICntrl=       600 IOpCl=  0 I1Cent=           0 NGrid=           0
         NMat0=    1 NMatS0=   7750 NMatT0=    0 NMatD0=    1 NMtDS0=    0 NMtDT0=    0
 Symmetry not used in FoFCou.
 Two-electron integral symmetry not used.
 Closed shell SCF:
 Using DIIS extrapolation, IDIIS=  1040.
 NGot=  4294967296 LenX=  4264898079 LenY=  4264882262
 Requested convergence on RMS density matrix=1.00D-08 within 128 cycles.
 Requested convergence on MAX density matrix=1.00D-06.
 Requested convergence on             energy=1.00D-06.
 No special actions if energy rises.

 Cycle   1  Pass 1  IDiag  1:
 Inv3:  Mode=1 IEnd=     3415467.
 Iteration    1 A*A^-1 deviation from unit magnitude is 3.11D-15 for   1066.
 Iteration    1 A*A^-1 deviation from orthogonality  is 1.58D-15 for   1066    930.
 Iteration    1 A^-1*A deviation from unit magnitude is 2.66D-15 for   1066.
 Iteration    1 A^-1*A deviation from orthogonality  is 1.62D-15 for    964    115.
 E= -706.059477154993    
 DIIS: error= 2.74D-02 at cycle   1 NSaved=   1.
 NSaved= 1 IEnMin= 1 EnMin= -706.059477154993     IErMin= 1 ErrMin= 2.74D-02
 ErrMax= 2.74D-02  0.00D+00 EMaxC= 1.00D-01 BMatC= 2.84D-01 BMatP= 2.84D-01
 IDIUse=3 WtCom= 7.26D-01 WtEn= 2.74D-01
 Coeff-Com:  0.100D+01
 Coeff-En:   0.100D+01
 Coeff:      0.100D+01
 Gap=     0.411 Goal=   None    Shift=    0.000
 GapD=    0.411 DampG=2.000 DampE=0.500 DampFc=1.0000 IDamp=-1.
 RMSDP=1.63D+00 MaxDP=1.04D+02              OVMax= 6.37D-01

 Cycle   2  Pass 1  IDiag  1:
 E= -704.618366952799     Delta-E=        1.441110202193 Rises=F Damp=F
 DIIS: error= 7.83D-02 at cycle   2 NSaved=   2.
 NSaved= 2 IEnMin= 1 EnMin= -706.059477154993     IErMin= 1 ErrMin= 2.74D-02
 ErrMax= 7.83D-02  0.00D+00 EMaxC= 1.00D-01 BMatC= 1.69D+00 BMatP= 2.84D-01
 IDIUse=2 WtCom= 0.00D+00 WtEn= 1.00D+00
 Coeff-En:   0.835D+00 0.165D+00
 Coeff:      0.835D+00 0.165D+00
 Gap=     0.091 Goal=   None    Shift=    0.000
 RMSDP=1.57D+00 MaxDP=1.00D+02 DE= 1.44D+00 OVMax= 5.24D-01

 Cycle   3  Pass 1  IDiag  1:
 E= -706.216012692305     Delta-E=       -1.597645739506 Rises=F Damp=F
 DIIS: error= 1.70D-02 at cycle   3 NSaved=   3.
 NSaved= 3 IEnMin= 3 EnMin= -706.216012692305     IErMin= 3 ErrMin= 1.70D-02
 ErrMax= 1.70D-02  0.00D+00 EMaxC= 1.00D-01 BMatC= 1.14D-01 BMatP= 2.84D-01
 IDIUse=3 WtCom= 8.30D-01 WtEn= 1.70D-01
 Coeff-Com:  0.393D+00 0.138D-01 0.593D+00
 Coeff-En:   0.296D+00 0.000D+00 0.704D+00
 Coeff:      0.376D+00 0.114D-01 0.612D+00
 Gap=     0.190 Goal=   None    Shift=    0.000
 RMSDP=4.30D-02 MaxDP=3.01D+00 DE=-1.60D+00 OVMax= 9.30D-02

 Cycle   4  Pass 1  IDiag  1:
 E= -706.298425711104     Delta-E=       -0.082413018799 Rises=F Damp=F
 DIIS: error= 7.13D-03 at cycle   4 NSaved=   4.
 NSaved= 4 IEnMin= 4 EnMin= -706.298425711104     IErMin= 4 ErrMin= 7.13D-03
 ErrMax= 7.13D-03  0.00D+00 EMaxC= 1.00D-01 BMatC= 2.31D-02 BMatP= 1.14D-01
 IDIUse=3 WtCom= 9.29D-01 WtEn= 7.13D-02
 Coeff-Com:  0.196D+00-0.225D-01 0.427D+00 0.399D+00
 Coeff-En:   0.000D+00 0.000D+00 0.915D-01 0.909D+00
 Coeff:      0.182D+00-0.209D-01 0.403D+00 0.435D+00
 Gap=     0.201 Goal=   None    Shift=    0.000
 RMSDP=4.65D-03 MaxDP=2.49D-01 DE=-8.24D-02 OVMax= 5.14D-02

 Cycle   5  Pass 1  IDiag  1:
 E= -706.316143782267     Delta-E=       -0.017718071164 Rises=F Damp=F
 DIIS: error= 2.37D-03 at cycle   5 NSaved=   5.
 NSaved= 5 IEnMin= 5 EnMin= -706.316143782267     IErMin= 5 ErrMin= 2.37D-03
 ErrMax= 2.37D-03  0.00D+00 EMaxC= 1.00D-01 BMatC= 2.73D-03 BMatP= 2.31D-02
 IDIUse=3 WtCom= 9.76D-01 WtEn= 2.37D-02
 Coeff-Com:  0.614D-01-0.171D-01 0.155D+00 0.274D+00 0.527D+00
 Coeff-En:   0.000D+00 0.000D+00 0.000D+00 0.111D+00 0.889D+00
 Coeff:      0.599D-01-0.167D-01 0.152D+00 0.270D+00 0.536D+00
 Gap=     0.202 Goal=   None    Shift=    0.000
 RMSDP=1.46D-03 MaxDP=9.22D-02 DE=-1.77D-02 OVMax= 1.69D-02

 Cycle   6  Pass 1  IDiag  1:
 E= -706.318300607444     Delta-E=       -0.002156825176 Rises=F Damp=F
 DIIS: error= 8.42D-04 at cycle   6 NSaved=   6.
 NSaved= 6 IEnMin= 6 EnMin= -706.318300607444     IErMin= 6 ErrMin= 8.42D-04
 ErrMax= 8.42D-04  0.00D+00 EMaxC= 1.00D-01 BMatC= 1.90D-04 BMatP= 2.73D-03
 IDIUse=3 WtCom= 9.92D-01 WtEn= 8.42D-03
 Coeff-Com:  0.363D-02-0.177D-02-0.312D-02 0.363D-01 0.254D+00 0.711D+00
 Coeff-En:   0.000D+00 0.000D+00 0.000D+00 0.000D+00 0.563D-01 0.944D+00
 Coeff:      0.360D-02-0.176D-02-0.309D-02 0.360D-01 0.253D+00 0.713D+00
 Gap=     0.204 Goal=   None    Shift=    0.000
 RMSDP=1.46D-03 MaxDP=1.07D-01 DE=-2.16D-03 OVMax= 3.18D-03

 Cycle   7  Pass 1  IDiag  1:
 E= -706.318482909739     Delta-E=       -0.000182302296 Rises=F Damp=F
 DIIS: error= 1.32D-04 at cycle   7 NSaved=   7.
 NSaved= 7 IEnMin= 7 EnMin= -706.318482909739     IErMin= 7 ErrMin= 1.32D-04
 ErrMax= 1.32D-04  0.00D+00 EMaxC= 1.00D-01 BMatC= 4.94D-06 BMatP= 1.90D-04
 IDIUse=3 WtCom= 9.99D-01 WtEn= 1.32D-03
 Coeff-Com:  0.915D-03-0.387D-03-0.339D-02 0.151D-01 0.108D+00 0.325D+00
 Coeff-Com:  0.555D+00
 Coeff-En:   0.000D+00 0.000D+00 0.000D+00 0.000D+00 0.000D+00 0.000D+00
 Coeff-En:   0.100D+01
 Coeff:      0.914D-03-0.386D-03-0.338D-02 0.151D-01 0.108D+00 0.324D+00
 Coeff:      0.556D+00
 Gap=     0.203 Goal=   None    Shift=    0.000
 RMSDP=1.82D-04 MaxDP=1.39D-02 DE=-1.82D-04 OVMax= 4.12D-04

 Cycle   8  Pass 1  IDiag  1:
 E= -706.318487580093     Delta-E=       -0.000004670354 Rises=F Damp=F
 DIIS: error= 2.43D-05 at cycle   8 NSaved=   8.
 NSaved= 8 IEnMin= 8 EnMin= -706.318487580093     IErMin= 8 ErrMin= 2.43D-05
 ErrMax= 2.43D-05  0.00D+00 EMaxC= 1.00D-01 BMatC= 2.68D-07 BMatP= 4.94D-06
 IDIUse=1 WtCom= 1.00D+00 WtEn= 0.00D+00
 Coeff-Com: -0.134D-03 0.659D-05-0.413D-03 0.407D-02 0.142D-01 0.397D-01
 Coeff-Com:  0.172D+00 0.770D+00
 Coeff:     -0.134D-03 0.659D-05-0.413D-03 0.407D-02 0.142D-01 0.397D-01
 Coeff:      0.172D+00 0.770D+00
 Gap=     0.203 Goal=   None    Shift=    0.000
 RMSDP=1.44D-05 MaxDP=5.62D-04 DE=-4.67D-06 OVMax= 1.12D-04

 Cycle   9  Pass 1  IDiag  1:
 E= -706.318487807090     Delta-E=       -0.000000226997 Rises=F Damp=F
 DIIS: error= 1.07D-05 at cycle   9 NSaved=   9.
 NSaved= 9 IEnMin= 9 EnMin= -706.318487807090     IErMin= 9 ErrMin= 1.07D-05
 ErrMax= 1.07D-05  0.00D+00 EMaxC= 1.00D-01 BMatC= 1.39D-08 BMatP= 2.68D-07
 IDIUse=1 WtCom= 1.00D+00 WtEn= 0.00D+00
 Coeff-Com: -0.108D-03 0.662D-05-0.823D-04 0.146D-02 0.340D-02 0.848D-02
 Coeff-Com:  0.572D-01 0.335D+00 0.595D+00
 Coeff:     -0.108D-03 0.662D-05-0.823D-04 0.146D-02 0.340D-02 0.848D-02
 Coeff:      0.572D-01 0.335D+00 0.595D+00
 Gap=     0.203 Goal=   None    Shift=    0.000
 RMSDP=5.69D-06 MaxDP=3.53D-04 DE=-2.27D-07 OVMax= 2.84D-05

 Cycle  10  Pass 1  IDiag  1:
 E= -706.318487819950     Delta-E=       -0.000000012859 Rises=F Damp=F
 DIIS: error= 2.12D-06 at cycle  10 NSaved=  10.
 NSaved=10 IEnMin=10 EnMin= -706.318487819950     IErMin=10 ErrMin= 2.12D-06
 ErrMax= 2.12D-06  0.00D+00 EMaxC= 1.00D-01 BMatC= 1.13D-09 BMatP= 1.39D-08
 IDIUse=1 WtCom= 1.00D+00 WtEn= 0.00D+00
 Coeff-Com: -0.327D-04 0.393D-05 0.227D-04 0.111D-03-0.286D-03-0.142D-02
 Coeff-Com:  0.229D-02 0.409D-01 0.232D+00 0.727D+00
 Coeff:     -0.327D-04 0.393D-05 0.227D-04 0.111D-03-0.286D-03-0.142D-02
 Coeff:      0.229D-02 0.409D-01 0.232D+00 0.727D+00
 Gap=     0.203 Goal=   None    Shift=    0.000
 RMSDP=2.10D-06 MaxDP=1.13D-04 DE=-1.29D-08 OVMax= 7.42D-06

 Cycle  11  Pass 1  IDiag  1:
 E= -706.318487820986     Delta-E=       -0.000000001037 Rises=F Damp=F
 DIIS: error= 2.87D-07 at cycle  11 NSaved=  11.
 NSaved=11 IEnMin=11 EnMin= -706.318487820986     IErMin=11 ErrMin= 2.87D-07
 ErrMax= 2.87D-07  0.00D+00 EMaxC= 1.00D-01 BMatC= 4.39D-11 BMatP= 1.13D-09
 IDIUse=1 WtCom= 1.00D+00 WtEn= 0.00D+00
 Coeff-Com: -0.531D-05 0.783D-06 0.629D-05-0.460D-04-0.207D-03-0.721D-03
 Coeff-Com: -0.200D-02-0.544D-02 0.383D-01 0.229D+00 0.741D+00
 Coeff:     -0.531D-05 0.783D-06 0.629D-05-0.460D-04-0.207D-03-0.721D-03
 Coeff:     -0.200D-02-0.544D-02 0.383D-01 0.229D+00 0.741D+00
 Gap=     0.203 Goal=   None    Shift=    0.000
 RMSDP=3.68D-07 MaxDP=1.27D-05 DE=-1.04D-09 OVMax= 2.50D-06

 Cycle  12  Pass 1  IDiag  1:
 E= -706.318487821037     Delta-E=       -0.000000000051 Rises=F Damp=F
 DIIS: error= 7.94D-08 at cycle  12 NSaved=  12.
 NSaved=12 IEnMin=12 EnMin= -706.318487821037     IErMin=12 ErrMin= 7.94D-08
 ErrMax= 7.94D-08  0.00D+00 EMaxC= 1.00D-01 BMatC= 1.95D-12 BMatP= 4.39D-11
 IDIUse=1 WtCom= 1.00D+00 WtEn= 0.00D+00
 Coeff-Com:  0.326D-06-0.215D-07 0.175D-05-0.216D-04-0.620D-04-0.190D-03
 Coeff-Com: -0.824D-03-0.417D-02-0.126D-02 0.305D-01 0.217D+00 0.759D+00
 Coeff:      0.326D-06-0.215D-07 0.175D-05-0.216D-04-0.620D-04-0.190D-03
 Coeff:     -0.824D-03-0.417D-02-0.126D-02 0.305D-01 0.217D+00 0.759D+00
 Gap=     0.203 Goal=   None    Shift=    0.000
 RMSDP=7.30D-08 MaxDP=2.27D-06 DE=-5.07D-11 OVMax= 4.91D-07

 Cycle  13  Pass 1  IDiag  1:
 E= -706.318487821038     Delta-E=       -0.000000000001 Rises=F Damp=F
 DIIS: error= 2.23D-08 at cycle  13 NSaved=  13.
 NSaved=13 IEnMin=13 EnMin= -706.318487821038     IErMin=13 ErrMin= 2.23D-08
 ErrMax= 2.23D-08  0.00D+00 EMaxC= 1.00D-01 BMatC= 1.23D-13 BMatP= 1.95D-12
 IDIUse=1 WtCom= 1.00D+00 WtEn= 0.00D+00
 Coeff-Com:  0.310D-06-0.120D-07 0.440D-07-0.330D-05-0.771D-05-0.179D-04
 Coeff-Com: -0.930D-04-0.696D-03-0.214D-02-0.418D-02 0.197D-01 0.229D+00
 Coeff-Com:  0.759D+00
 Coeff:      0.310D-06-0.120D-07 0.440D-07-0.330D-05-0.771D-05-0.179D-04
 Coeff:     -0.930D-04-0.696D-03-0.214D-02-0.418D-02 0.197D-01 0.229D+00
 Coeff:      0.759D+00
 Gap=     0.203 Goal=   None    Shift=    0.000
 RMSDP=2.89D-08 MaxDP=1.70D-06 DE=-5.68D-13 OVMax= 1.52D-07

 Cycle  14  Pass 1  IDiag  1:
 E= -706.318487821035     Delta-E=        0.000000000002 Rises=F Damp=F
 DIIS: error= 3.32D-09 at cycle  14 NSaved=  14.
 NSaved=14 IEnMin=13 EnMin= -706.318487821038     IErMin=14 ErrMin= 3.32D-09
 ErrMax= 3.32D-09  0.00D+00 EMaxC= 1.00D-01 BMatC= 5.35D-15 BMatP= 1.23D-13
 IDIUse=1 WtCom= 1.00D+00 WtEn= 0.00D+00
 Coeff-Com:  0.680D-07-0.794D-08-0.844D-07 0.365D-06 0.106D-05 0.611D-05
 Coeff-Com:  0.261D-04 0.795D-04-0.444D-03-0.276D-02-0.872D-02 0.469D-02
 Coeff-Com:  0.175D+00 0.832D+00
 Coeff:      0.680D-07-0.794D-08-0.844D-07 0.365D-06 0.106D-05 0.611D-05
 Coeff:      0.261D-04 0.795D-04-0.444D-03-0.276D-02-0.872D-02 0.469D-02
 Coeff:      0.175D+00 0.832D+00
 Gap=     0.203 Goal=   None    Shift=    0.000
 RMSDP=5.43D-09 MaxDP=3.92D-07 DE= 2.16D-12 OVMax= 2.90D-08

 Error on total polarization charges =  0.02375
 SCF Done:  E(RB3LYP) =  -706.318487821     A.U. after   14 cycles
            NFock= 14  Conv=0.54D-08     -V/T= 2.0036
 KE= 7.038021703238D+02 PE=-2.247028160726D+03 EE= 5.530366206143D+02
 SMD-CDS (non-electrostatic) energy       (kcal/mol) =      -0.53
 (included in total energy above)
 Leave Link  502 at Tue Jan  7 22:45:18 2020, MaxMem=  4294967296 cpu:             462.2 elap:              35.2
 (Enter /home/cwagen/sw/g16/g16/l601.exe)
 Copying SCF densities to generalized density rwf, IOpCl= 0 IROHF=0.

 **********************************************************************

            Population analysis using the SCF density.

 **********************************************************************

 Orbital symmetries:
       Occupied  (A) (A) (A) (A) (A) (A) (A) (A) (A) (A) (A) (A)
                 (A) (A) (A) (A) (A) (A) (A) (A) (A) (A) (A) (A)
                 (A) (A) (A)
       Virtual   (A) (A) (A) (A) (A) (A) (A) (A) (A) (A) (A) (A)
                 (A) (A) (A) (A) (A) (A) (A) (A) (A) (A) (A) (A)
                 (A) (A) (A) (A) (A) (A) (A) (A) (A) (A) (A) (A)
                 (A) (A) (A) (A) (A) (A) (A) (A) (A) (A) (A) (A)
                 (A) (A) (A) (A) (A) (A) (A) (A) (A) (A) (A) (A)
                 (A) (A) (A) (A) (A) (A) (A) (A) (A) (A) (A) (A)
                 (A) (A) (A) (A) (A) (A) (A) (A) (A) (A) (A) (A)
                 (A) (A) (A) (A) (A) (A) (A) (A) (A) (A) (A) (A)
                 (A)
 The electronic state is 1-A.
 Alpha  occ. eigenvalues -- -101.50974 -19.02389 -14.30601 -10.24562 -10.19607
 Alpha  occ. eigenvalues --  -10.15102  -9.43523  -7.19804  -7.18888  -7.18850
 Alpha  occ. eigenvalues --   -0.99171  -0.87165  -0.85547  -0.70353  -0.62208
 Alpha  occ. eigenvalues --   -0.49282  -0.43979  -0.40764  -0.37276  -0.35842
 Alpha  occ. eigenvalues --   -0.35260  -0.31614  -0.30429  -0.27416  -0.26450
 Alpha  occ. eigenvalues --   -0.18427  -0.17674
 Alpha virt. eigenvalues --    0.02638   0.04825   0.05003   0.05572   0.06494
 Alpha virt. eigenvalues --    0.07107   0.07752   0.09639   0.09811   0.10119
 Alpha virt. eigenvalues --    0.10487   0.11817   0.14069   0.14249   0.15076
 Alpha virt. eigenvalues --    0.16746   0.17293   0.19581   0.22740   0.22911
 Alpha virt. eigenvalues --    0.25317   0.25958   0.26845   0.27241   0.28161
 Alpha virt. eigenvalues --    0.29265   0.30662   0.32274   0.36074   0.37447
 Alpha virt. eigenvalues --    0.39004   0.41280   0.45247   0.56207   0.62917
 Alpha virt. eigenvalues --    0.65197   0.65743   0.66934   0.70428   0.72814
 Alpha virt. eigenvalues --    0.73260   0.76560   0.78171   0.81000   0.83253
 Alpha virt. eigenvalues --    0.86408   0.89277   0.92833   0.95097   0.97347
 Alpha virt. eigenvalues --    1.03574   1.04078   1.05316   1.08576   1.10789
 Alpha virt. eigenvalues --    1.13214   1.17788   1.19038   1.29416   1.33841
 Alpha virt. eigenvalues --    1.38795   1.40709   1.43681   1.52792   1.54337
 Alpha virt. eigenvalues --    1.56811   1.60733   1.63006   1.73779   1.76996
 Alpha virt. eigenvalues --    1.86982   1.91319   1.95886   1.98757   2.00149
 Alpha virt. eigenvalues --    2.01329   2.09521   2.13385   2.17029   2.28336
 Alpha virt. eigenvalues --    2.32835   2.35766   2.40415   2.53000   2.55985
 Alpha virt. eigenvalues --    2.80451   2.89589   2.91779   2.98538   3.12730
 Alpha virt. eigenvalues --    3.33915   4.17353   4.29885   4.41818   4.44597
 Alpha virt. eigenvalues --    4.47726   4.86385
          Condensed to atoms (all electrons):
               1          2          3          4          5          6
     1  C   12.216042   0.697896   0.471759  -0.132956  -0.118941  -0.115624
     2  O    0.697896   8.787918  -0.245622   0.011650  -0.001201  -0.003731
     3  C    0.471759  -0.245622   5.875045   0.338509   0.398564   0.411807
     4  H   -0.132956   0.011650   0.338509   0.527439  -0.027699  -0.031548
     5  H   -0.118941  -0.001201   0.398564  -0.027699   0.496808  -0.022499
     6  H   -0.115624  -0.003731   0.411807  -0.031548  -0.022499   0.498141
     7  Cl  -1.950398  -0.255241  -0.270236   0.033266   0.016579   0.021886
     8  C   -4.779305  -0.248402  -0.311543   0.071336   0.042924   0.022589
     9  N   -0.189965  -0.051545  -0.046111  -0.000319   0.001170  -0.000541
               7          8          9
     1  C   -1.950398  -4.779305  -0.189965
     2  O   -0.255241  -0.248402  -0.051545
     3  C   -0.270236  -0.311543  -0.046111
     4  H    0.033266   0.071336  -0.000319
     5  H    0.016579   0.042924   0.001170
     6  H    0.021886   0.022589  -0.000541
     7  Cl  18.294743   1.020947  -0.008651
     8  C    1.020947   9.139361   0.648977
     9  N   -0.008651   0.648977   7.368944
 Mulliken charges:
               1
     1  C   -0.098508
     2  O   -0.691722
     3  C   -0.622172
     4  H    0.210322
     5  H    0.214296
     6  H    0.219521
     7  Cl   0.097105
     8  C    0.393117
     9  N   -0.721960
 Sum of Mulliken charges =  -1.00000
 Mulliken charges with hydrogens summed into heavy atoms:
               1
     1  C   -0.098508
     2  O   -0.691722
     3  C    0.021967
     7  Cl   0.097105
     8  C    0.393117
     9  N   -0.721960
 Electronic spatial extent (au):  <R**2>=            591.6694
 Charge=             -1.0000 electrons
 Dipole moment (field-independent basis, Debye):
    X=             -3.3900    Y=              0.6334    Z=             -4.7701  Tot=              5.8862
 Quadrupole moment (field-independent basis, Debye-Ang):
   XX=            -59.6272   YY=            -47.3609   ZZ=            -54.6335
   XY=              3.4701   XZ=              2.0521   YZ=             -3.5918
 Traceless Quadrupole moment (field-independent basis, Debye-Ang):
   XX=             -5.7533   YY=              6.5130   ZZ=             -0.7597
   XY=              3.4701   XZ=              2.0521   YZ=             -3.5918
 Octapole moment (field-independent basis, Debye-Ang**2):
  XXX=            -43.2813  YYY=             -3.2671  ZZZ=            -15.7361  XYY=             -5.3203
  XXY=              9.5037  XXZ=              3.1422  XZZ=             -1.5507  YZZ=             -6.0786
  YYZ=             -1.7030  XYZ=             -0.7823
 Hexadecapole moment (field-independent basis, Debye-Ang**3):
 XXXX=           -499.9842 YYYY=           -261.8105 ZZZZ=           -211.2282 XXXY=             33.4147
 XXXZ=             12.7175 YYYX=             12.9856 YYYZ=              1.1270 ZZZX=              4.3428
 ZZZY=             -6.1497 XXYY=           -114.4797 XXZZ=           -103.6559 YYZZ=            -81.4109
 XXYZ=             -2.1291 YYXZ=              2.7005 ZZXY=              3.7206
 N-N= 2.838708819668D+02 E-N=-2.247028159941D+03  KE= 7.038021703238D+02
 No NMR shielding tensors so no spin-rotation constants.
 Leave Link  601 at Tue Jan  7 22:45:20 2020, MaxMem=  4294967296 cpu:              15.8 elap:               1.3
 (Enter /home/cwagen/sw/g16/g16/l701.exe)
 ... and contract with generalized density number  0.
 Compute integral first derivatives.
 D1PCM: PCM CHGder 1st derivatives, ID1Alg=3 FixD1E=F DoIter=F DoCFld=F I1PDM=0.
 GePol: Maximum number of non-zero 1st derivatives   =     318
 Leave Link  701 at Tue Jan  7 22:45:25 2020, MaxMem=  4294967296 cpu:              69.7 elap:               5.5
 (Enter /home/cwagen/sw/g16/g16/l702.exe)
 L702 exits ... SP integral derivatives will be done elsewhere.
 Leave Link  702 at Tue Jan  7 22:45:25 2020, MaxMem=  4294967296 cpu:               0.8 elap:               0.1
 (Enter /home/cwagen/sw/g16/g16/l703.exe)
 Integral derivatives from FoFJK, PRISM(SPDF).
 Compute integral first derivatives, UseDBF=F ICtDFT=           0.
 Calling FoFJK, ICntrl=      2127 FMM=F ISym2X=0 I1Cent= 0 IOpClX= 0 NMat=1 NMatS=1 NMatT=0.
 FoFJK:  IHMeth= 1 ICntrl=    2127 DoSepK=F KAlg= 0 I1Cent=           0 FoldK=F
 IRaf=         0 NMat=       1 IRICut=       1 DoRegI=T DoRafI=F ISym2E= 0 IDoP0=0 IntGTp=1.
 FoFCou: FMM=F IPFlag=           0 FMFlag=      100000 FMFlg1=         800
         NFxFlg=           0 DoJE=F BraDBF=F KetDBF=F FulRan=T
         wScrn=  0.000000 ICntrl=      2127 IOpCl=  0 I1Cent=           0 NGrid=           0
         NMat0=    1 NMatS0=      1 NMatT0=    0 NMatD0=    1 NMtDS0=    0 NMtDT0=    0
 Symmetry not used in FoFCou.
 Leave Link  703 at Tue Jan  7 22:45:28 2020, MaxMem=  4294967296 cpu:              38.5 elap:               2.9
 (Enter /home/cwagen/sw/g16/g16/l716.exe)
 Dipole        =-1.33373257D+00 2.49205887D-01-1.87668277D+00
 ***** Axes restored to original set *****
 -------------------------------------------------------------------
 Center     Atomic                   Forces (Hartrees/Bohr)
 Number     Number              X              Y              Z
 -------------------------------------------------------------------
      1        6           0.106451998   -0.190295025   -0.031880312
      2        8          -0.007022515   -0.024046624   -0.052570479
      3        6          -0.007990511   -0.018578966    0.005626947
      4        1          -0.000297269   -0.000094655    0.000529106
      5        1          -0.000643372   -0.000647689    0.000341693
      6        1          -0.000223318   -0.000631953    0.000404757
      7       17          -0.189199912    0.213399210    0.071033858
      8        6           0.100575500    0.018283795    0.001610396
      9        7          -0.001650600    0.002611906    0.004904036
 -------------------------------------------------------------------
 Cartesian Forces:  Max     0.213399210 RMS     0.074352009
 Leave Link  716 at Tue Jan  7 22:45:28 2020, MaxMem=  4294967296 cpu:               0.9 elap:               0.1
 (Enter /home/cwagen/sw/g16/g16/l103.exe)

 GradGradGradGradGradGradGradGradGradGradGradGradGradGradGradGradGradGrad
 Berny optimization.
 FormGI is forming the generalized inverse of G from B-inverse, IUseBI=4.
 Internal  Forces:  Max     0.293404546 RMS     0.057107225
 Search for a local minimum.
 Step number   1 out of a maximum of   41
 All quantities printed in internal units (Hartrees-Bohrs-Radians)
 RMS Force = .13153D-01 SwitMx=.10000D-02 MixMth= 1
 Mixed Optimization -- RFO/linear search
 Second derivative matrix not updated -- first step.
 ITU=  0
     Eigenvalues ---    0.00230   0.04746   0.04746   0.05330   0.05908
     Eigenvalues ---    0.07453   0.10176   0.16000   0.16000   0.16000
     Eigenvalues ---    0.25000   0.25000   0.25000   0.26946   0.33918
     Eigenvalues ---    0.33999   0.34275   0.67840   1.220341000.00000
     Eigenvalues --- 1000.000001000.000001000.000001000.000001000.00000
     Eigenvalues --- 1000.000001000.000001000.000001000.000001000.00000
     Eigenvalues --- 1000.00000
 RFO step:  Lambda=-1.70689551D-02 EMin= 2.30000000D-03
 Linear search not attempted -- first point.
 Iteration  1 RMS(Cart)=  0.05852084 RMS(Int)=  0.00421021
 Iteration  2 RMS(Cart)=  0.00473584 RMS(Int)=  0.00224909
 Iteration  3 RMS(Cart)=  0.00003128 RMS(Int)=  0.00224901
 Iteration  4 RMS(Cart)=  0.00000022 RMS(Int)=  0.00224901
 Iteration  1 RMS(Cart)=  0.00000000 RMS(Int)=  0.00000000
 ITry= 1 IFail=0 DXMaxC= 1.30D-01 DCOld= 1.00D+10 DXMaxT= 3.00D-01 DXLimC= 3.00D+00 Rises=F
 Variable       Old X    -DE/DX   Delta X   Delta X   Delta X     New X
                                 (Linear)    (Quad)   (Total)
    R1        2.45227   0.05755   0.00000   0.08275   0.08275   2.53502
    R2        2.94503   0.02014   0.00000   0.07029   0.07029   3.01532
    R3        2.83459   0.29340   0.00000   0.00000   0.00000   2.83459
    R4        2.64562   0.09998   0.00000   0.00000   0.00000   2.64562
    R5        2.07331   0.00044   0.00000   0.00123   0.00123   2.07454
    R6        2.07468   0.00082   0.00000   0.00230   0.00230   2.07698
    R7        2.06868   0.00000   0.00000   0.00001   0.00001   2.06869
    R8        2.20923  -0.00084   0.00000  -0.00068  -0.00068   2.20855
    A1        1.99667  -0.01621   0.00000  -0.08979  -0.09394   1.90273
    A2        2.01908   0.00611   0.00000  -0.02193  -0.03080   1.98828
    A3        1.89239   0.00103   0.00000   0.00277   0.00364   1.89603
    A4        1.92419  -0.00845   0.00000  -0.03832  -0.04306   1.88113
    A5        1.77194   0.00474   0.00000   0.04768   0.04789   1.81983
    A6        1.83479   0.01617   0.00000   0.13296   0.13257   1.96735
    A7        1.97398   0.00012   0.00000   0.00086   0.00085   1.97483
    A8        1.87942   0.00046   0.00000   0.00164   0.00164   1.88106
    A9        1.90140   0.00100   0.00000   0.00644   0.00643   1.90783
   A10        1.90356  -0.00053   0.00000  -0.00445  -0.00445   1.89912
   A11        1.90837  -0.00036   0.00000  -0.00036  -0.00038   1.90799
   A12        1.89554  -0.00072   0.00000  -0.00437  -0.00437   1.89117
   A13        3.10130   0.00349   0.00000   0.05410   0.05410   3.15540
   A14        2.92901   0.01065   0.00000   0.16498   0.16498   3.09399
    D1        3.04510   0.00381   0.00000   0.04909   0.04643   3.09153
    D2       -1.13357   0.00353   0.00000   0.04517   0.04251  -1.09106
    D3        0.91915   0.00348   0.00000   0.04437   0.04171   0.96086
    D4       -0.92685  -0.01033   0.00000  -0.10081  -0.09851  -1.02536
    D5        1.17766  -0.01060   0.00000  -0.10473  -0.10243   1.07523
    D6       -3.05280  -0.01066   0.00000  -0.10553  -0.10323   3.12715
    D7        1.01121   0.00707   0.00000   0.05756   0.05793   1.06914
    D8        3.11572   0.00680   0.00000   0.05365   0.05401  -3.11345
    D9       -1.11475   0.00674   0.00000   0.05285   0.05321  -1.06153
         Item               Value     Threshold  Converged?
 Maximum Force            0.057549     0.000450     NO 
 RMS     Force            0.013153     0.000300     NO 
 Maximum Displacement     0.130467     0.001800     NO 
 RMS     Displacement     0.058483     0.001200     NO 
 Predicted change in Energy=-9.320788D-03
 Lowest energy point so far.  Saving SCF results.
 GradGradGradGradGradGradGradGradGradGradGradGradGradGradGradGradGradGrad

 Leave Link  103 at Tue Jan  7 22:45:34 2020, MaxMem=  4294967296 cpu:              65.1 elap:               5.2
 (Enter /home/cwagen/sw/g16/g16/l202.exe)
                          Input orientation:                          
 ---------------------------------------------------------------------
 Center     Atomic      Atomic             Coordinates (Angstroms)
 Number     Number       Type             X           Y           Z
 ---------------------------------------------------------------------
      1          6           0       -0.153245   -0.246228   -0.196049
      2          8           0       -0.287748   -0.705184   -1.449374
      3          6           0       -0.338904   -1.458757    0.824430
      4          1           0       -0.192146   -1.167064    1.872543
      5          1           0       -1.360676   -1.845351    0.703882
      6          1           0        0.364398   -2.257813    0.568986
      7         17           0       -1.144513    0.817813    0.171653
      8          6           0        1.172748    0.162172   -0.009092
      9          7           0        2.285180    0.504196    0.097739
 ---------------------------------------------------------------------
                    Distance matrix (angstroms):
                    1          2          3          4          5
     1  C    0.000000
     2  O    1.341476   0.000000
     3  C    1.595641   2.395970   0.000000
     4  H    2.264624   3.355236   1.097800   0.000000
     5  H    2.196579   2.662268   1.099093   1.786422   0.000000
     6  H    2.213528   2.628637   1.094704   1.788501   1.778821
     7  Cl   1.500000   2.383547   2.501578   2.782043   2.724415
     8  C    1.400000   2.227053   2.367965   2.677751   3.310093
     9  N    2.568144   3.236683   3.356647   3.475655   4.379502
                    6          7          8          9
     6  H    0.000000
     7  Cl   3.448791   0.000000
     8  C    2.616090   2.415001   0.000000
     9  N    3.397082   3.444794   1.168716   0.000000
 Stoichiometry    C3H3ClNO(1-)
 Framework group  C1[X(C3H3ClNO)]
 Deg. of freedom    21
 Full point group                 C1      NOp   1
 RotChk:  IX=0 Diff= 7.56D-02
 Largest Abelian subgroup         C1      NOp   1
 Largest concise Abelian subgroup C1      NOp   1
                         Standard orientation:                         
 ---------------------------------------------------------------------
 Center     Atomic      Atomic             Coordinates (Angstroms)
 Number     Number       Type             X           Y           Z
 ---------------------------------------------------------------------
      1          6           0       -0.093863    0.183912    0.188637
      2          8           0       -0.193849    0.566858    1.470398
      3          6           0       -0.302150    1.455982   -0.751854
      4          1           0       -0.183958    1.227624   -1.819115
      5          1           0       -1.319088    1.836462   -0.581336
      6          1           0        0.410321    2.236951   -0.467513
      7         17           0       -1.098045   -0.854287   -0.216039
      8          6           0        1.225371   -0.214886   -0.057495
      9          7           0        2.333448   -0.551866   -0.214042
 ---------------------------------------------------------------------
 Rotational constants (GHZ):           4.2554300           2.6981203           2.3835225
 Leave Link  202 at Tue Jan  7 22:45:34 2020, MaxMem=  4294967296 cpu:               1.3 elap:               0.1
 (Enter /home/cwagen/sw/g16/g16/l301.exe)
 Standard basis: 6-31+G(d) (6D, 7F)
 Ernie: Thresh=  0.10000D-02 Tol=  0.10000D-05 Strict=F.
 There are   124 symmetry adapted cartesian basis functions of A   symmetry.
 There are   124 symmetry adapted basis functions of A   symmetry.
   124 basis functions,   228 primitive gaussians,   124 cartesian basis functions
    27 alpha electrons       27 beta electrons
       nuclear repulsion energy       280.1863665424 Hartrees.
 IExCor=  402 DFT=T Ex+Corr=B3LYP ExCW=0 ScaHFX=  0.200000
 ScaDFX=  0.800000  0.720000  1.000000  0.810000 ScalE2=  1.000000  1.000000
 IRadAn=      5 IRanWt=     -1 IRanGd=            0 ICorTp=0 IEmpDi=  4
 NAtoms=    9 NActive=    9 NUniq=    9 SFac= 1.00D+00 NAtFMM=   60 NAOKFM=F Big=F
 Integral buffers will be    131072 words long.
 Raffenetti 2 integral format.
 Two-electron integral symmetry is turned on.
 ------------------------------------------------------------------------------
 Polarizable Continuum Model (PCM)
 =================================
 Model                : PCM.
 Atomic radii         : SMD-Coulomb.
 Polarization charges : Total charges.
 Charge compensation  : None.
 Solution method      : On-the-fly selection.
 Cavity type          : VdW (van der Waals Surface) (Alpha=1.000).
 Cavity algorithm     : GePol (No added spheres)
                        Default sphere list used, NSphG=    9.
                        Lebedev-Laikov grids with approx.  5.0 points / Ang**2.
                        Smoothing algorithm: York/Karplus (Gamma=1.0000).
                        Polarization charges: spherical gaussians, with
                                              point-specific exponents (IZeta= 3).
                        Self-potential: point-specific (ISelfS= 7).
                        Self-field    : sphere-specific E.n sum rule (ISelfD= 2).
 1st derivatives      : Analytical E(r).r(x)/FMM algorithm (CHGder, D1EAlg=3).
                        Cavity 1st derivative terms included.
 Solvent              : TetraHydroFuran, Eps=   7.425700 Eps(inf)=   1.974025
 ------------------------------------------------------------------------------
 Spheres list:
 ISph  on   Nord     Re0    Alpha      Xe            Ye            Ze
    1   C      1    1.8500  1.000     -0.093863      0.183912      0.188637
    2   O      2    2.2940  1.000     -0.193849      0.566858      1.470398
    3   C      3    1.8500  1.000     -0.302150      1.455982     -0.751854
    4   H      4    1.2000  1.000     -0.183958      1.227624     -1.819115
    5   H      5    1.2000  1.000     -1.319088      1.836462     -0.581336
    6   H      6    1.2000  1.000      0.410321      2.236951     -0.467513
    7  Cl      7    2.3800  1.000     -1.098045     -0.854287     -0.216039
    8   C      8    1.8500  1.000      1.225371     -0.214886     -0.057495
    9   N      9    1.8900  1.000      2.333448     -0.551866     -0.214042
 ------------------------------------------------------------------------------
 GePol: Number of generator spheres                  =       9
 GePol: Total number of spheres                      =       9
 GePol: Number of exposed spheres                    =       8 ( 88.89%)
 GePol: Number of points                             =    1071
 GePol: Average weight of points                     =       0.14
 GePol: Minimum weight of points                     =   0.23D-08
 GePol: Maximum weight of points                     =    0.18138
 GePol: Number of points with low weight             =      29
 GePol: Fraction of low-weight points (<1% of avg)   =       2.71%
 GePol: Cavity surface area                          =    144.646 Ang**2
 GePol: Cavity volume                                =    133.526 Ang**3
 ------------------------------------------------------------------------------
 Atomic radii for non-electrostatic terms: SMD-CDS.
 ------------------------------------------------------------------------------
 PCM non-electrostatic energy =        -0.0007682867 Hartrees.
 Nuclear repulsion after PCM non-electrostatic terms =      280.1855982557 Hartrees.
 Leave Link  301 at Tue Jan  7 22:45:34 2020, MaxMem=  4294967296 cpu:               2.3 elap:               0.2
 (Enter /home/cwagen/sw/g16/g16/l302.exe)
 NPDir=0 NMtPBC=     1 NCelOv=     1 NCel=       1 NClECP=     1 NCelD=      1
         NCelK=      1 NCelE2=     1 NClLst=     1 CellRange=     0.0.
 One-electron integrals computed using PRISM.
 One-electron integral symmetry used in STVInt
 NBasis=   124 RedAO= T EigKep=  1.89D-05  NBF=   124
 NBsUse=   124 1.00D-06 EigRej= -1.00D+00 NBFU=   124
 Precomputing XC quadrature grid using
 IXCGrd= 4 IRadAn=           5 IRanWt=          -1 IRanGd=           0 AccXCQ= 0.00D+00.
 Generated NRdTot=       0 NPtTot=           0 NUsed=           0 NTot=          32
 NSgBfM=   124   124   124   124   124 MxSgAt=     9 MxSgA2=     9.
 Leave Link  302 at Tue Jan  7 22:45:36 2020, MaxMem=  4294967296 cpu:              22.7 elap:               1.7
 (Enter /home/cwagen/sw/g16/g16/l303.exe)
 DipDrv:  MaxL=1.
 Leave Link  303 at Tue Jan  7 22:45:36 2020, MaxMem=  4294967296 cpu:               3.7 elap:               0.4
 (Enter /home/cwagen/sw/g16/g16/l401.exe)
 Initial guess from the checkpoint file:  "/scratch/users/cwagen/cwagen_scan_150_140/Gau-10445.chk"
 B after Tr=     0.000000    0.000000    0.000000
         Rot=    0.999784    0.011357    0.002357   -0.017221 Ang=   2.38 deg.
 Guess basis will be translated and rotated to current coordinates.
 JPrj=2 DoOrth=T DoCkMO=T.
 Generating alternative initial guess.
 ExpMin= 4.38D-02 ExpMax= 2.52D+04 ExpMxC= 3.78D+03 IAcc=2 IRadAn=         4 AccDes= 0.00D+00
 Harris functional with IExCor=  402 and IRadAn=       4 diagonalized for initial guess.
 HarFok:  IExCor=  402 AccDes= 0.00D+00 IRadAn=         4 IDoV= 1 UseB2=F ITyADJ=14
 ICtDFT=  3500011 ScaDFX=  1.000000  1.000000  1.000000  1.000000
 FoFCou: FMM=F IPFlag=           0 FMFlag=      100000 FMFlg1=           0
         NFxFlg=           0 DoJE=T BraDBF=F KetDBF=T FulRan=T
         wScrn=  0.000000 ICntrl=       500 IOpCl=  0 I1Cent=   200000004 NGrid=           0
         NMat0=    1 NMatS0=      1 NMatT0=    0 NMatD0=    1 NMtDS0=    0 NMtDT0=    0
 Petite list used in FoFCou.
 Harris En= -706.358956930836    
 Leave Link  401 at Tue Jan  7 22:45:39 2020, MaxMem=  4294967296 cpu:              36.9 elap:               2.6
 (Enter /home/cwagen/sw/g16/g16/l502.exe)
 Keep R1 ints in memory in canonical form, NReq=45236517.
 FoFCou: FMM=F IPFlag=           0 FMFlag=           0 FMFlg1=           0
         NFxFlg=           0 DoJE=F BraDBF=F KetDBF=F FulRan=T
         wScrn=  0.000000 ICntrl=       600 IOpCl=  0 I1Cent=           0 NGrid=           0
         NMat0=    1 NMatS0=   7750 NMatT0=    0 NMatD0=    1 NMtDS0=    0 NMtDT0=    0
 Symmetry not used in FoFCou.
 Two-electron integral symmetry not used.
 Closed shell SCF:
 Using DIIS extrapolation, IDIIS=  1040.
 NGot=  4294967296 LenX=  4264898079 LenY=  4264882262
 Requested convergence on RMS density matrix=1.00D-08 within 128 cycles.
 Requested convergence on MAX density matrix=1.00D-06.
 Requested convergence on             energy=1.00D-06.
 No special actions if energy rises.

 Cycle   1  Pass 1  IDiag  1:
 Inv3:  Mode=1 IEnd=     3441123.
 Iteration    1 A*A^-1 deviation from unit magnitude is 3.11D-15 for   1071.
 Iteration    1 A*A^-1 deviation from orthogonality  is 2.52D-15 for    574     81.
 Iteration    1 A^-1*A deviation from unit magnitude is 2.66D-15 for   1071.
 Iteration    1 A^-1*A deviation from orthogonality  is 1.72D-15 for   1061    828.
 E= -706.310211049882    
 DIIS: error= 4.97D-03 at cycle   1 NSaved=   1.
 NSaved= 1 IEnMin= 1 EnMin= -706.310211049882     IErMin= 1 ErrMin= 4.97D-03
 ErrMax= 4.97D-03  0.00D+00 EMaxC= 1.00D-01 BMatC= 1.11D-02 BMatP= 1.11D-02
 IDIUse=3 WtCom= 9.50D-01 WtEn= 4.97D-02
 Coeff-Com:  0.100D+01
 Coeff-En:   0.100D+01
 Coeff:      0.100D+01
 Gap=     0.528 Goal=   None    Shift=    0.000
 GapD=    0.528 DampG=2.000 DampE=1.000 DampFc=2.0000 IDamp=-1.
 RMSDP=8.05D-03 MaxDP=3.02D-01              OVMax= 4.38D-02

 Cycle   2  Pass 1  IDiag  1:
 E= -706.325542146598     Delta-E=       -0.015331096716 Rises=F Damp=F
 DIIS: error= 1.96D-03 at cycle   2 NSaved=   2.
 NSaved= 2 IEnMin= 2 EnMin= -706.325542146598     IErMin= 2 ErrMin= 1.96D-03
 ErrMax= 1.96D-03  0.00D+00 EMaxC= 1.00D-01 BMatC= 1.12D-03 BMatP= 1.11D-02
 IDIUse=3 WtCom= 9.80D-01 WtEn= 1.96D-02
 Coeff-Com:  0.908D-01 0.909D+00
 Coeff-En:   0.000D+00 0.100D+01
 Coeff:      0.890D-01 0.911D+00
 Gap=     0.211 Goal=   None    Shift=    0.000
 RMSDP=5.62D-03 MaxDP=3.37D-01 DE=-1.53D-02 OVMax= 2.70D-02

 Cycle   3  Pass 1  IDiag  1:
 E= -706.323713766952     Delta-E=        0.001828379646 Rises=F Damp=F
 DIIS: error= 3.62D-03 at cycle   3 NSaved=   3.
 NSaved= 3 IEnMin= 2 EnMin= -706.325542146598     IErMin= 2 ErrMin= 1.96D-03
 ErrMax= 3.62D-03  0.00D+00 EMaxC= 1.00D-01 BMatC= 3.42D-03 BMatP= 1.12D-03
 IDIUse=3 WtCom= 1.43D-01 WtEn= 8.57D-01
 Coeff-Com: -0.309D-01 0.656D+00 0.375D+00
 Coeff-En:   0.000D+00 0.708D+00 0.292D+00
 Coeff:     -0.440D-02 0.701D+00 0.303D+00
 Gap=     0.199 Goal=   None    Shift=    0.000
 RMSDP=2.93D-03 MaxDP=1.78D-01 DE= 1.83D-03 OVMax= 1.60D-02

 Cycle   4  Pass 1  IDiag  1:
 E= -706.326412413922     Delta-E=       -0.002698646970 Rises=F Damp=F
 DIIS: error= 6.10D-04 at cycle   4 NSaved=   4.
 NSaved= 4 IEnMin= 4 EnMin= -706.326412413922     IErMin= 4 ErrMin= 6.10D-04
 ErrMax= 6.10D-04  0.00D+00 EMaxC= 1.00D-01 BMatC= 7.65D-05 BMatP= 1.12D-03
 IDIUse=3 WtCom= 9.94D-01 WtEn= 6.10D-03
 Coeff-Com: -0.154D-01 0.260D+00 0.539D-01 0.702D+00
 Coeff-En:   0.000D+00 0.000D+00 0.000D+00 0.100D+01
 Coeff:     -0.154D-01 0.258D+00 0.535D-01 0.703D+00
 Gap=     0.197 Goal=   None    Shift=    0.000
 RMSDP=7.40D-04 MaxDP=4.82D-02 DE=-2.70D-03 OVMax= 3.09D-03

 Cycle   5  Pass 1  IDiag  1:
 E= -706.326460912012     Delta-E=       -0.000048498090 Rises=F Damp=F
 DIIS: error= 1.95D-04 at cycle   5 NSaved=   5.
 NSaved= 5 IEnMin= 5 EnMin= -706.326460912012     IErMin= 5 ErrMin= 1.95D-04
 ErrMax= 1.95D-04  0.00D+00 EMaxC= 1.00D-01 BMatC= 1.66D-05 BMatP= 7.65D-05
 IDIUse=3 WtCom= 9.98D-01 WtEn= 1.95D-03
 Coeff-Com: -0.647D-02 0.880D-01-0.124D-01 0.505D+00 0.426D+00
 Coeff-En:   0.000D+00 0.000D+00 0.000D+00 0.145D+00 0.855D+00
 Coeff:     -0.646D-02 0.878D-01-0.124D-01 0.504D+00 0.427D+00
 Gap=     0.197 Goal=   None    Shift=    0.000
 RMSDP=1.27D-04 MaxDP=5.96D-03 DE=-4.85D-05 OVMax= 1.18D-03

 Cycle   6  Pass 1  IDiag  1:
 E= -706.326474139401     Delta-E=       -0.000013227389 Rises=F Damp=F
 DIIS: error= 4.43D-05 at cycle   6 NSaved=   6.
 NSaved= 6 IEnMin= 6 EnMin= -706.326474139401     IErMin= 6 ErrMin= 4.43D-05
 ErrMax= 4.43D-05  0.00D+00 EMaxC= 1.00D-01 BMatC= 6.31D-07 BMatP= 1.66D-05
 IDIUse=1 WtCom= 1.00D+00 WtEn= 0.00D+00
 Coeff-Com: -0.926D-03 0.443D-02-0.139D-01 0.156D+00 0.215D+00 0.639D+00
 Coeff:     -0.926D-03 0.443D-02-0.139D-01 0.156D+00 0.215D+00 0.639D+00
 Gap=     0.197 Goal=   None    Shift=    0.000
 RMSDP=6.32D-05 MaxDP=3.98D-03 DE=-1.32D-05 OVMax= 1.85D-04

 Cycle   7  Pass 1  IDiag  1:
 E= -706.326474659484     Delta-E=       -0.000000520083 Rises=F Damp=F
 DIIS: error= 1.67D-05 at cycle   7 NSaved=   7.
 NSaved= 7 IEnMin= 7 EnMin= -706.326474659484     IErMin= 7 ErrMin= 1.67D-05
 ErrMax= 1.67D-05  0.00D+00 EMaxC= 1.00D-01 BMatC= 6.39D-08 BMatP= 6.31D-07
 IDIUse=1 WtCom= 1.00D+00 WtEn= 0.00D+00
 Coeff-Com:  0.115D-03-0.674D-02-0.683D-02 0.350D-01 0.728D-01 0.336D+00
 Coeff-Com:  0.570D+00
 Coeff:      0.115D-03-0.674D-02-0.683D-02 0.350D-01 0.728D-01 0.336D+00
 Coeff:      0.570D+00
 Gap=     0.197 Goal=   None    Shift=    0.000
 RMSDP=2.01D-05 MaxDP=1.51D-03 DE=-5.20D-07 OVMax= 5.88D-05

 Cycle   8  Pass 1  IDiag  1:
 E= -706.326474720149     Delta-E=       -0.000000060665 Rises=F Damp=F
 DIIS: error= 1.85D-06 at cycle   8 NSaved=   8.
 NSaved= 8 IEnMin= 8 EnMin= -706.326474720149     IErMin= 8 ErrMin= 1.85D-06
 ErrMax= 1.85D-06  0.00D+00 EMaxC= 1.00D-01 BMatC= 1.11D-09 BMatP= 6.39D-08
 IDIUse=1 WtCom= 1.00D+00 WtEn= 0.00D+00
 Coeff-Com:  0.919D-04-0.235D-02-0.158D-02 0.177D-02 0.889D-02 0.591D-01
 Coeff-Com:  0.152D+00 0.783D+00
 Coeff:      0.919D-04-0.235D-02-0.158D-02 0.177D-02 0.889D-02 0.591D-01
 Coeff:      0.152D+00 0.783D+00
 Gap=     0.197 Goal=   None    Shift=    0.000
 RMSDP=1.73D-06 MaxDP=5.08D-05 DE=-6.07D-08 OVMax= 9.90D-06

 Cycle   9  Pass 1  IDiag  1:
 E= -706.326474721291     Delta-E=       -0.000000001142 Rises=F Damp=F
 DIIS: error= 2.83D-07 at cycle   9 NSaved=   9.
 NSaved= 9 IEnMin= 9 EnMin= -706.326474721291     IErMin= 9 ErrMin= 2.83D-07
 ErrMax= 2.83D-07  0.00D+00 EMaxC= 1.00D-01 BMatC= 3.10D-11 BMatP= 1.11D-09
 IDIUse=1 WtCom= 1.00D+00 WtEn= 0.00D+00
 Coeff-Com:  0.997D-05-0.919D-04-0.430D-04-0.886D-03-0.135D-02-0.354D-02
 Coeff-Com:  0.347D-03 0.141D+00 0.865D+00
 Coeff:      0.997D-05-0.919D-04-0.430D-04-0.886D-03-0.135D-02-0.354D-02
 Coeff:      0.347D-03 0.141D+00 0.865D+00
 Gap=     0.197 Goal=   None    Shift=    0.000
 RMSDP=6.46D-07 MaxDP=5.05D-05 DE=-1.14D-09 OVMax= 2.76D-06

 Cycle  10  Pass 1  IDiag  1:
 E= -706.326474721327     Delta-E=       -0.000000000036 Rises=F Damp=F
 DIIS: error= 1.19D-07 at cycle  10 NSaved=  10.
 NSaved=10 IEnMin=10 EnMin= -706.326474721327     IErMin=10 ErrMin= 1.19D-07
 ErrMax= 1.19D-07  0.00D+00 EMaxC= 1.00D-01 BMatC= 4.89D-12 BMatP= 3.10D-11
 IDIUse=1 WtCom= 1.00D+00 WtEn= 0.00D+00
 Coeff-Com:  0.489D-06 0.593D-04 0.594D-04-0.467D-03-0.917D-03-0.399D-02
 Coeff-Com: -0.611D-02 0.220D-01 0.356D+00 0.633D+00
 Coeff:      0.489D-06 0.593D-04 0.594D-04-0.467D-03-0.917D-03-0.399D-02
 Coeff:     -0.611D-02 0.220D-01 0.356D+00 0.633D+00
 Gap=     0.197 Goal=   None    Shift=    0.000
 RMSDP=9.49D-08 MaxDP=4.15D-06 DE=-3.62D-11 OVMax= 5.36D-07

 Cycle  11  Pass 1  IDiag  1:
 E= -706.326474721334     Delta-E=       -0.000000000007 Rises=F Damp=F
 DIIS: error= 5.35D-08 at cycle  11 NSaved=  11.
 NSaved=11 IEnMin=11 EnMin= -706.326474721334     IErMin=11 ErrMin= 5.35D-08
 ErrMax= 5.35D-08  0.00D+00 EMaxC= 1.00D-01 BMatC= 5.16D-13 BMatP= 4.89D-12
 IDIUse=1 WtCom= 1.00D+00 WtEn= 0.00D+00
 Coeff-Com: -0.596D-06 0.338D-04 0.335D-04-0.128D-03-0.270D-03-0.141D-02
 Coeff-Com: -0.255D-02-0.374D-02 0.783D-01 0.279D+00 0.651D+00
 Coeff:     -0.596D-06 0.338D-04 0.335D-04-0.128D-03-0.270D-03-0.141D-02
 Coeff:     -0.255D-02-0.374D-02 0.783D-01 0.279D+00 0.651D+00
 Gap=     0.197 Goal=   None    Shift=    0.000
 RMSDP=2.72D-08 MaxDP=1.34D-06 DE=-6.82D-12 OVMax= 2.74D-07

 Cycle  12  Pass 1  IDiag  1:
 E= -706.326474721332     Delta-E=        0.000000000003 Rises=F Damp=F
 DIIS: error= 6.80D-09 at cycle  12 NSaved=  12.
 NSaved=12 IEnMin=11 EnMin= -706.326474721334     IErMin=12 ErrMin= 6.80D-09
 ErrMax= 6.80D-09  0.00D+00 EMaxC= 1.00D-01 BMatC= 1.73D-14 BMatP= 5.16D-13
 IDIUse=1 WtCom= 1.00D+00 WtEn= 0.00D+00
 Coeff-Com: -0.231D-06 0.726D-05 0.815D-05-0.180D-04-0.357D-04-0.233D-03
 Coeff-Com: -0.445D-03-0.276D-02 0.448D-02 0.531D-01 0.217D+00 0.729D+00
 Coeff:     -0.231D-06 0.726D-05 0.815D-05-0.180D-04-0.357D-04-0.233D-03
 Coeff:     -0.445D-03-0.276D-02 0.448D-02 0.531D-01 0.217D+00 0.729D+00
 Gap=     0.197 Goal=   None    Shift=    0.000
 RMSDP=4.85D-09 MaxDP=1.24D-07 DE= 2.50D-12 OVMax= 4.48D-08

 Error on total polarization charges =  0.02386
 SCF Done:  E(RB3LYP) =  -706.326474721     A.U. after   12 cycles
            NFock= 12  Conv=0.48D-08     -V/T= 2.0039
 KE= 7.035686642368D+02 PE=-2.239416765238D+03 EE= 5.493360280240D+02
 SMD-CDS (non-electrostatic) energy       (kcal/mol) =      -0.48
 (included in total energy above)
 Leave Link  502 at Tue Jan  7 22:46:09 2020, MaxMem=  4294967296 cpu:             388.8 elap:              30.2
 (Enter /home/cwagen/sw/g16/g16/l701.exe)
 ... and contract with generalized density number  0.
 Compute integral first derivatives.
 D1PCM: PCM CHGder 1st derivatives, ID1Alg=3 FixD1E=F DoIter=F DoCFld=F I1PDM=0.
 GePol: Maximum number of non-zero 1st derivatives   =     321
 Leave Link  701 at Tue Jan  7 22:46:14 2020, MaxMem=  4294967296 cpu:              63.6 elap:               4.6
 (Enter /home/cwagen/sw/g16/g16/l702.exe)
 L702 exits ... SP integral derivatives will be done elsewhere.
 Leave Link  702 at Tue Jan  7 22:46:14 2020, MaxMem=  4294967296 cpu:               1.1 elap:               0.1
 (Enter /home/cwagen/sw/g16/g16/l703.exe)
 Integral derivatives from FoFJK, PRISM(SPDF).
 Compute integral first derivatives, UseDBF=F ICtDFT=           0.
 Calling FoFJK, ICntrl=      2127 FMM=F ISym2X=0 I1Cent= 0 IOpClX= 0 NMat=1 NMatS=1 NMatT=0.
 FoFJK:  IHMeth= 1 ICntrl=    2127 DoSepK=F KAlg= 0 I1Cent=           0 FoldK=F
 IRaf=         0 NMat=       1 IRICut=       1 DoRegI=T DoRafI=F ISym2E= 0 IDoP0=0 IntGTp=1.
 FoFCou: FMM=F IPFlag=           0 FMFlag=      100000 FMFlg1=         800
         NFxFlg=           0 DoJE=F BraDBF=F KetDBF=F FulRan=T
         wScrn=  0.000000 ICntrl=      2127 IOpCl=  0 I1Cent=           0 NGrid=           0
         NMat0=    1 NMatS0=      1 NMatT0=    0 NMatD0=    1 NMtDS0=    0 NMtDT0=    0
 Symmetry not used in FoFCou.
 Leave Link  703 at Tue Jan  7 22:46:16 2020, MaxMem=  4294967296 cpu:              36.1 elap:               2.5
 (Enter /home/cwagen/sw/g16/g16/l716.exe)
 Dipole        =-1.26511525D+00 5.48184179D-02-1.93253313D+00
 ***** Axes restored to original set *****
 -------------------------------------------------------------------
 Center     Atomic                   Forces (Hartrees/Bohr)
 Number     Number              X              Y              Z
 -------------------------------------------------------------------
      1        6           0.096143156   -0.212997104   -0.053302275
      2        8           0.004071306   -0.006970060   -0.025144078
      3        6           0.002749552   -0.006770631    0.003795319
      4        1           0.000400101    0.000304584    0.001351809
      5        1           0.001406437    0.002494081   -0.001738021
      6        1           0.000722426    0.000093868    0.000073453
      7       17          -0.178025546    0.199758470    0.067017420
      8        6           0.075365365    0.027123302    0.008760994
      9        7          -0.002832797   -0.003036509   -0.000814620
 -------------------------------------------------------------------
 Cartesian Forces:  Max     0.212997104 RMS     0.072221260
 Leave Link  716 at Tue Jan  7 22:46:16 2020, MaxMem=  4294967296 cpu:               1.3 elap:               0.1
 (Enter /home/cwagen/sw/g16/g16/l103.exe)

 GradGradGradGradGradGradGradGradGradGradGradGradGradGradGradGradGradGrad
 Berny optimization.
 Using GEDIIS/GDIIS optimizer.
 FormGI is forming the generalized inverse of G from B-inverse, IUseBI=4.
 Internal  Forces:  Max     0.275764573 RMS     0.051715056
 Search for a local minimum.
 Step number   2 out of a maximum of   41
 All quantities printed in internal units (Hartrees-Bohrs-Radians)
 RMS Force = .57777D-02 SwitMx=.10000D-02 MixMth= 1
 Mixed Optimization -- RFO/linear search
 Update second derivatives using D2CorX and points    1    2
 DE= -7.99D-03 DEPred=-9.32D-03 R= 8.57D-01
 TightC=F SS=  1.41D+00  RLast= 3.45D-01 DXNew= 5.0454D-01 1.0357D+00
 Trust test= 8.57D-01 RLast= 3.45D-01 DXMaxT set to 5.05D-01
 ITU=  1  0
 Use linear search instead of GDIIS.
     Eigenvalues ---    0.00230   0.04696   0.05149   0.05297   0.05876
     Eigenvalues ---    0.09374   0.11566   0.15992   0.16000   0.16193
     Eigenvalues ---    0.24714   0.25000   0.25645   0.27939   0.33966
     Eigenvalues ---    0.34062   0.34278   0.54251   1.220941000.00000
     Eigenvalues --- 1000.000001000.000001000.000001000.000001000.00000
     Eigenvalues --- 1000.000001000.000001000.000001000.000001000.00000
     Eigenvalues --- 1000.00000
 RFO step:  Lambda=-3.05163140D-03 EMin= 2.30016059D-03
 Quartic linear search produced a step of -0.04130.
 Iteration  1 RMS(Cart)=  0.03499020 RMS(Int)=  0.00099712
 Iteration  2 RMS(Cart)=  0.00112903 RMS(Int)=  0.00010546
 Iteration  3 RMS(Cart)=  0.00000049 RMS(Int)=  0.00010546
 Iteration  1 RMS(Cart)=  0.00000000 RMS(Int)=  0.00000000
 ITry= 1 IFail=0 DXMaxC= 1.07D-01 DCOld= 1.00D+10 DXMaxT= 5.05D-01 DXLimC= 3.00D+00 Rises=F
 Variable       Old X    -DE/DX   Delta X   Delta X   Delta X     New X
                                 (Linear)    (Quad)   (Total)
    R1        2.53502   0.02548  -0.00342   0.05467   0.05125   2.58627
    R2        3.01532   0.00459  -0.00290   0.03194   0.02904   3.04437
    R3        2.83459   0.27576   0.00000   0.00000   0.00000   2.83459
    R4        2.64562   0.07677   0.00000   0.00000   0.00000   2.64562
    R5        2.07454   0.00143  -0.00005   0.00431   0.00426   2.07880
    R6        2.07698  -0.00200  -0.00009  -0.00512  -0.00522   2.07177
    R7        2.06869   0.00036   0.00000   0.00100   0.00100   2.06969
    R8        2.20855  -0.00366   0.00003  -0.00304  -0.00301   2.20554
    A1        1.90273   0.00459   0.00388   0.00076   0.00437   1.90710
    A2        1.98828  -0.00172   0.00127   0.01265   0.01356   2.00184
    A3        1.89603  -0.00615  -0.00015  -0.04625  -0.04658   1.84946
    A4        1.88113   0.00901   0.00178   0.03500   0.03654   1.91767
    A5        1.81983   0.00001  -0.00198  -0.00367  -0.00577   1.81406
    A6        1.96735  -0.00500  -0.00548   0.00143  -0.00414   1.96321
    A7        1.97483   0.00072  -0.00004   0.00503   0.00498   1.97981
    A8        1.88106  -0.00394  -0.00007  -0.02454  -0.02462   1.85644
    A9        1.90783   0.00022  -0.00027   0.00374   0.00345   1.91128
   A10        1.89912   0.00159   0.00018   0.00663   0.00680   1.90591
   A11        1.90799  -0.00017   0.00002   0.00166   0.00165   1.90964
   A12        1.89117   0.00162   0.00018   0.00742   0.00758   1.89875
   A13        3.15540  -0.00393  -0.00223  -0.06350  -0.06573   3.08967
   A14        3.09399  -0.00204  -0.00681  -0.00336  -0.01018   3.08382
    D1        3.09153  -0.00347  -0.00192  -0.00515  -0.00711   3.08442
    D2       -1.09106  -0.00373  -0.00176  -0.01048  -0.01229  -1.10335
    D3        0.96086  -0.00390  -0.00172  -0.01342  -0.01519   0.94567
    D4       -1.02536   0.00298   0.00407   0.03302   0.03716  -0.98820
    D5        1.07523   0.00272   0.00423   0.02769   0.03198   1.10721
    D6        3.12715   0.00255   0.00426   0.02475   0.02908  -3.12695
    D7        1.06914   0.00153  -0.00239   0.04953   0.04712   1.11626
    D8       -3.11345   0.00128  -0.00223   0.04420   0.04194  -3.07151
    D9       -1.06153   0.00111  -0.00220   0.04126   0.03904  -1.02249
         Item               Value     Threshold  Converged?
 Maximum Force            0.025482     0.000450     NO 
 RMS     Force            0.005778     0.000300     NO 
 Maximum Displacement     0.107354     0.001800     NO 
 RMS     Displacement     0.035253     0.001200     NO 
 Predicted change in Energy=-1.573210D-03
 Lowest energy point so far.  Saving SCF results.
 GradGradGradGradGradGradGradGradGradGradGradGradGradGradGradGradGradGrad

 Leave Link  103 at Tue Jan  7 22:46:20 2020, MaxMem=  4294967296 cpu:              47.4 elap:               3.4
 (Enter /home/cwagen/sw/g16/g16/l202.exe)
                          Input orientation:                          
 ---------------------------------------------------------------------
 Center     Atomic      Atomic             Coordinates (Angstroms)
 Number     Number       Type             X           Y           Z
 ---------------------------------------------------------------------
      1          6           0       -0.176320   -0.229725   -0.184014
      2          8           0       -0.271035   -0.691900   -1.468722
      3          6           0       -0.332022   -1.465089    0.838230
      4          1           0       -0.209316   -1.178190    1.893099
      5          1           0       -1.341883   -1.864672    0.688371
      6          1           0        0.396299   -2.243022    0.585439
      7         17           0       -1.156680    0.849759    0.167563
      8          6           0        1.152392    0.179236   -0.018857
      9          7           0        2.283659    0.447387    0.083612
 ---------------------------------------------------------------------
                    Distance matrix (angstroms):
                    1          2          3          4          5
     1  C    0.000000
     2  O    1.368595   0.000000
     3  C    1.611009   2.433839   0.000000
     4  H    2.283653   3.397371   1.100052   0.000000
     5  H    2.189211   2.678649   1.096332   1.790345   0.000000
     6  H    2.230093   2.659115   1.095233   1.791818   1.781859
     7  Cl   1.500000   2.416301   2.547229   2.826225   2.770140
     8  C    1.400000   2.210685   2.375266   2.711536   3.301384
     9  N    2.565463   3.199090   3.326981   3.483054   4.342339
                    6          7          8          9
     6  H    0.000000
     7  Cl   3.485924   0.000000
     8  C    2.608484   2.411673   0.000000
     9  N    3.324494   3.464807   1.167121   0.000000
 Stoichiometry    C3H3ClNO(1-)
 Framework group  C1[X(C3H3ClNO)]
 Deg. of freedom    21
 Full point group                 C1      NOp   1
 RotChk:  IX=0 Diff= 9.50D-02
 Largest Abelian subgroup         C1      NOp   1
 Largest concise Abelian subgroup C1      NOp   1
                         Standard orientation:                         
 ---------------------------------------------------------------------
 Center     Atomic      Atomic             Coordinates (Angstroms)
 Number     Number       Type             X           Y           Z
 ---------------------------------------------------------------------
      1          6           0       -0.099844    0.176957    0.179197
      2          8           0       -0.122425    0.524185    1.502819
      3          6           0       -0.211230    1.507963   -0.721561
      4          1           0       -0.142026    1.312203   -1.801840
      5          1           0       -1.188328    1.951791   -0.497420
      6          1           0        0.572719    2.214479   -0.428651
      7         17           0       -1.157498   -0.805164   -0.229223
      8          6           0        1.194193   -0.293857   -0.073396
      9          7           0        2.302256   -0.618650   -0.243327
 ---------------------------------------------------------------------
 Rotational constants (GHZ):           4.1995839           2.6719897           2.3722680
 Leave Link  202 at Tue Jan  7 22:46:20 2020, MaxMem=  4294967296 cpu:               2.2 elap:               0.2
 (Enter /home/cwagen/sw/g16/g16/l301.exe)
 Standard basis: 6-31+G(d) (6D, 7F)
 Ernie: Thresh=  0.10000D-02 Tol=  0.10000D-05 Strict=F.
 There are   124 symmetry adapted cartesian basis functions of A   symmetry.
 There are   124 symmetry adapted basis functions of A   symmetry.
   124 basis functions,   228 primitive gaussians,   124 cartesian basis functions
    27 alpha electrons       27 beta electrons
       nuclear repulsion energy       278.7471678136 Hartrees.
 IExCor=  402 DFT=T Ex+Corr=B3LYP ExCW=0 ScaHFX=  0.200000
 ScaDFX=  0.800000  0.720000  1.000000  0.810000 ScalE2=  1.000000  1.000000
 IRadAn=      5 IRanWt=     -1 IRanGd=            0 ICorTp=0 IEmpDi=  4
 NAtoms=    9 NActive=    9 NUniq=    9 SFac= 1.00D+00 NAtFMM=   60 NAOKFM=F Big=F
 Integral buffers will be    131072 words long.
 Raffenetti 2 integral format.
 Two-electron integral symmetry is turned on.
 ------------------------------------------------------------------------------
 Polarizable Continuum Model (PCM)
 =================================
 Model                : PCM.
 Atomic radii         : SMD-Coulomb.
 Polarization charges : Total charges.
 Charge compensation  : None.
 Solution method      : On-the-fly selection.
 Cavity type          : VdW (van der Waals Surface) (Alpha=1.000).
 Cavity algorithm     : GePol (No added spheres)
                        Default sphere list used, NSphG=    9.
                        Lebedev-Laikov grids with approx.  5.0 points / Ang**2.
                        Smoothing algorithm: York/Karplus (Gamma=1.0000).
                        Polarization charges: spherical gaussians, with
                                              point-specific exponents (IZeta= 3).
                        Self-potential: point-specific (ISelfS= 7).
                        Self-field    : sphere-specific E.n sum rule (ISelfD= 2).
 1st derivatives      : Analytical E(r).r(x)/FMM algorithm (CHGder, D1EAlg=3).
                        Cavity 1st derivative terms included.
 Solvent              : TetraHydroFuran, Eps=   7.425700 Eps(inf)=   1.974025
 ------------------------------------------------------------------------------
 Spheres list:
 ISph  on   Nord     Re0    Alpha      Xe            Ye            Ze
    1   C      1    1.8500  1.000     -0.099844      0.176957      0.179197
    2   O      2    2.2940  1.000     -0.122425      0.524185      1.502819
    3   C      3    1.8500  1.000     -0.211230      1.507963     -0.721561
    4   H      4    1.2000  1.000     -0.142026      1.312203     -1.801840
    5   H      5    1.2000  1.000     -1.188328      1.951791     -0.497420
    6   H      6    1.2000  1.000      0.572719      2.214479     -0.428651
    7  Cl      7    2.3800  1.000     -1.157498     -0.805164     -0.229223
    8   C      8    1.8500  1.000      1.194193     -0.293857     -0.073396
    9   N      9    1.8900  1.000      2.302256     -0.618650     -0.243327
 ------------------------------------------------------------------------------
 GePol: Number of generator spheres                  =       9
 GePol: Total number of spheres                      =       9
 GePol: Number of exposed spheres                    =       8 ( 88.89%)
 GePol: Number of points                             =    1079
 GePol: Average weight of points                     =       0.14
 GePol: Minimum weight of points                     =   0.16D-11
 GePol: Maximum weight of points                     =    0.18138
 GePol: Number of points with low weight             =      32
 GePol: Fraction of low-weight points (<1% of avg)   =       2.97%
 GePol: Cavity surface area                          =    145.715 Ang**2
 GePol: Cavity volume                                =    134.395 Ang**3
 ------------------------------------------------------------------------------
 Atomic radii for non-electrostatic terms: SMD-CDS.
 ------------------------------------------------------------------------------
 PCM non-electrostatic energy =        -0.0006518099 Hartrees.
 Nuclear repulsion after PCM non-electrostatic terms =      278.7465160037 Hartrees.
 Leave Link  301 at Tue Jan  7 22:46:20 2020, MaxMem=  4294967296 cpu:               3.6 elap:               0.3
 (Enter /home/cwagen/sw/g16/g16/l302.exe)
 NPDir=0 NMtPBC=     1 NCelOv=     1 NCel=       1 NClECP=     1 NCelD=      1
         NCelK=      1 NCelE2=     1 NClLst=     1 CellRange=     0.0.
 One-electron integrals computed using PRISM.
 One-electron integral symmetry used in STVInt
 NBasis=   124 RedAO= T EigKep=  2.01D-05  NBF=   124
 NBsUse=   124 1.00D-06 EigRej= -1.00D+00 NBFU=   124
 Precomputing XC quadrature grid using
 IXCGrd= 4 IRadAn=           5 IRanWt=          -1 IRanGd=           0 AccXCQ= 0.00D+00.
 Generated NRdTot=       0 NPtTot=           0 NUsed=           0 NTot=          32
 NSgBfM=   124   124   124   124   124 MxSgAt=     9 MxSgA2=     9.
 Leave Link  302 at Tue Jan  7 22:46:22 2020, MaxMem=  4294967296 cpu:              22.0 elap:               1.9
 (Enter /home/cwagen/sw/g16/g16/l303.exe)
 DipDrv:  MaxL=1.
 Leave Link  303 at Tue Jan  7 22:46:22 2020, MaxMem=  4294967296 cpu:               2.3 elap:               0.2
 (Enter /home/cwagen/sw/g16/g16/l401.exe)
[...]
      5        1           0.000008369   -0.000020135   -0.000018728
      6        1           0.000023038   -0.000006921   -0.000018392
      7       17          -0.174942049    0.193007269    0.061973127
      8        6           0.070632142    0.021468052    0.007906443
      9        7          -0.000024284    0.000034578    0.000014631
 -------------------------------------------------------------------
 Cartesian Forces:  Max     0.214439782 RMS     0.071736008
 Leave Link  716 at Tue Jan  7 22:50:50 2020, MaxMem=  4294967296 cpu:               1.4 elap:               0.2
 (Enter /home/cwagen/sw/g16/g16/l103.exe)

 GradGradGradGradGradGradGradGradGradGradGradGradGradGradGradGradGradGrad
 Berny optimization.
 Using GEDIIS/GDIIS optimizer.
 FormGI is forming the generalized inverse of G from B-inverse, IUseBI=4.
 Internal  Forces:  Max     0.267754030 RMS     0.049904336
 Search for a local minimum.
 Step number   8 out of a maximum of   41
 All quantities printed in internal units (Hartrees-Bohrs-Radians)
 RMS Force = .12100D-04 SwitMx=.10000D-02 MixMth= 2
 Mixed Optimization -- En-DIIS/RFO-DIIS
 Swapping is turned off.
 Update second derivatives using D2CorX and points    1    2    3    4    5
                                                      6    7    8
 DE= -5.27D-07 DEPred=-2.06D-07 R= 2.56D+00
 Trust test= 2.56D+00 RLast= 6.33D-03 DXMaxT set to 2.52D-01
 ITU=  0 -1  1  1  1  1  1  0
     Eigenvalues ---    0.00394   0.05165   0.05396   0.06005   0.07845
     Eigenvalues ---    0.08869   0.11341   0.12150   0.14945   0.16767
     Eigenvalues ---    0.18300   0.25375   0.26519   0.32531   0.33735
     Eigenvalues ---    0.34151   0.34972   0.43748   1.219931000.00000
     Eigenvalues --- 1000.000001000.000001000.000001000.000001000.00000
     Eigenvalues --- 1000.000001000.000001000.000001000.000001000.00000
     Eigenvalues --- 1000.00000
 En-DIIS/RFO-DIIS/Sim-DIIS IScMMF=       -3 using points:     8    7    6    5    4
 RFO step:  Lambda=-7.72280664D-05.
 NNeg= 0 NGDIIS= 5 SimSw=  2.50D-03 Rises=F DC= -5.27D-07 SmlDif=  1.00D-05
 NRisDI= 0 DoIntr=F SqrtH=F CThrHd= 10.0 CDAdj=  3.0
 RMS Error=  0.1667754268D-03 NUsed= 5 OKEnD=F EnDIS=F
 InvSVX:  RCond= 2.37D-07 Info=           0 Equed=N FErr=  6.88D-15 BErr=  3.86D-17
 DidBck=F Rises=F RFO-DIIS coefs:    0.92458    0.08898   -0.02361    0.00705    0.00300
 Iteration  1 RMS(Cart)=  0.00016766 RMS(Int)=  0.00000006
 Iteration  2 RMS(Cart)=  0.00000002 RMS(Int)=  0.00000006
 Iteration  1 RMS(Cart)=  0.00000000 RMS(Int)=  0.00000000
 ITry= 1 IFail=0 DXMaxC= 4.67D-04 DCOld= 1.00D+10 DXMaxT= 2.52D-01 DXLimC= 3.00D+00 Rises=F
 Variable       Old X    -DE/DX   Delta X   Delta X   Delta X     New X
                                 (Linear)    (Quad)   (Total)
    R1        2.60726   0.00000  -0.00001   0.00001   0.00000   2.60726
    R2        3.01117   0.00003   0.00003   0.00011   0.00013   3.01130
    R3        2.83459   0.26775   0.00000   0.00000   0.00000   2.83459
    R4        2.64562   0.07424   0.00000   0.00000   0.00000   2.64562
    R5        2.07717   0.00001  -0.00001   0.00004   0.00003   2.07720
    R6        2.07145   0.00000  -0.00001   0.00003   0.00002   2.07147
    R7        2.06708   0.00000   0.00000   0.00002   0.00002   2.06710
    R8        2.20674  -0.00001   0.00000  -0.00001  -0.00001   2.20673
    A1        1.90747   0.00000   0.00001  -0.00005  -0.00004   1.90743
    A2        1.99619  -0.00003   0.00002  -0.00015  -0.00012   1.99607
    A3        1.83341   0.00000   0.00000  -0.00001  -0.00001   1.83339
    A4        1.91935   0.00004   0.00000   0.00015   0.00015   1.91949
    A5        1.82842  -0.00002  -0.00003  -0.00003  -0.00006   1.82836
    A6        1.96980   0.00000  -0.00001   0.00009   0.00008   1.96989
    A7        1.97040   0.00001  -0.00002   0.00007   0.00006   1.97045
    A8        1.85754  -0.00001  -0.00004   0.00000  -0.00004   1.85750
    A9        1.90861   0.00001   0.00000   0.00006   0.00006   1.90867
   A10        1.90996   0.00000   0.00003  -0.00005  -0.00003   1.90993
   A11        1.91281  -0.00001   0.00002  -0.00010  -0.00008   1.91273
   A12        1.90294   0.00000   0.00001   0.00002   0.00003   1.90297
   A13        3.11975   0.00001   0.00009   0.00001   0.00010   3.11984
   A14        3.08424   0.00000  -0.00001  -0.00004  -0.00006   3.08418
    D1        3.09391   0.00000  -0.00028   0.00001  -0.00026   3.09365
    D2       -1.09367   0.00000  -0.00028  -0.00001  -0.00029  -1.09396
    D3        0.95952   0.00000  -0.00029   0.00005  -0.00024   0.95928
    D4       -0.98447  -0.00001  -0.00024  -0.00010  -0.00034  -0.98481
    D5        1.11115  -0.00001  -0.00025  -0.00012  -0.00037   1.11077
    D6       -3.11886  -0.00001  -0.00026  -0.00007  -0.00033  -3.11918
    D7        1.13694   0.00001  -0.00027   0.00006  -0.00020   1.13674
    D8       -3.05063   0.00000  -0.00027   0.00004  -0.00023  -3.05086
    D9       -0.99745   0.00001  -0.00028   0.00010  -0.00018  -0.99763
         Item               Value     Threshold  Converged?
 Maximum Force            0.000040     0.000450     YES
 RMS     Force            0.000012     0.000300     YES
 Maximum Displacement     0.000467     0.001800     YES
 RMS     Displacement     0.000168     0.001200     YES
 Predicted change in Energy=-1.220498D-08
 Optimization completed.
    -- Stationary point found.
                           ----------------------------
                           !   Optimized Parameters   !
                           ! (Angstroms and Degrees)  !
 --------------------------                            --------------------------
 ! Name  Definition              Value          Derivative Info.                !
 --------------------------------------------------------------------------------
 ! R1    R(1,2)                  1.3797         -DE/DX =    0.0                 !
 ! R2    R(1,3)                  1.5934         -DE/DX =    0.0                 !
 ! R3    R(1,7)                  1.5            -DE/DX =    0.2678              !
 ! R4    R(1,8)                  1.4            -DE/DX =    0.0742              !
 ! R5    R(3,4)                  1.0992         -DE/DX =    0.0                 !
 ! R6    R(3,5)                  1.0962         -DE/DX =    0.0                 !
 ! R7    R(3,6)                  1.0939         -DE/DX =    0.0                 !
 ! R8    R(8,9)                  1.1678         -DE/DX =    0.0                 !
 ! A1    A(2,1,3)              109.2898         -DE/DX =    0.0                 !
 ! A2    A(2,1,7)              114.3734         -DE/DX =    0.0                 !
 ! A3    A(2,1,8)              105.0464         -DE/DX =    0.0                 !
 ! A4    A(3,1,7)              109.9704         -DE/DX =    0.0                 !
 ! A5    A(3,1,8)              104.7606         -DE/DX =    0.0                 !
 ! A6    A(7,1,8)              112.8613         -DE/DX =    0.0                 !
 ! A7    A(1,3,4)              112.8953         -DE/DX =    0.0                 !
 ! A8    A(1,3,5)              106.4292         -DE/DX =    0.0                 !
 ! A9    A(1,3,6)              109.355          -DE/DX =    0.0                 !
 ! A10   A(4,3,5)              109.4326         -DE/DX =    0.0                 !
 ! A11   A(4,3,6)              109.596          -DE/DX =    0.0                 !
 ! A12   A(5,3,6)              109.0305         -DE/DX =    0.0                 !
 ! A13   L(1,8,9,6,-1)         178.7482         -DE/DX =    0.0                 !
 ! A14   L(1,8,9,6,-2)         176.7139         -DE/DX =    0.0                 !
 ! D1    D(2,1,3,4)            177.2679         -DE/DX =    0.0                 !
 ! D2    D(2,1,3,5)            -62.6625         -DE/DX =    0.0                 !
 ! D3    D(2,1,3,6)             54.9764         -DE/DX =    0.0                 !
 ! D4    D(7,1,3,4)            -56.4057         -DE/DX =    0.0                 !
 ! D5    D(7,1,3,5)             63.6639         -DE/DX =    0.0                 !
 ! D6    D(7,1,3,6)           -178.6973         -DE/DX =    0.0                 !
 ! D7    D(8,1,3,4)             65.1419         -DE/DX =    0.0                 !
 ! D8    D(8,1,3,5)           -174.7884         -DE/DX =    0.0                 !
 ! D9    D(8,1,3,6)            -57.1496         -DE/DX =    0.0                 !
 --------------------------------------------------------------------------------
 Lowest energy point so far.  Saving SCF results.
 Largest change from initial coordinates is atom    4       0.069 Angstoms.
 GradGradGradGradGradGradGradGradGradGradGradGradGradGradGradGradGradGrad

 Leave Link  103 at Tue Jan  7 22:50:55 2020, MaxMem=  4294967296 cpu:              68.3 elap:               5.6
 (Enter /home/cwagen/sw/g16/g16/l202.exe)
                          Input orientation:                          
 ---------------------------------------------------------------------
 Center     Atomic      Atomic             Coordinates (Angstroms)
 Number     Number       Type             X           Y           Z
 ---------------------------------------------------------------------
      1          6           0       -0.172010   -0.237587   -0.166062
      2          8           0       -0.264623   -0.694428   -1.464639
      3          6           0       -0.337814   -1.464749    0.836753
      4          1           0       -0.225822   -1.173805    1.890807
      5          1           0       -1.345463   -1.864330    0.673801
      6          1           0        0.396403   -2.236895    0.589301
      7         17           0       -1.151924    0.843727    0.181112
      8          6           0        1.159919    0.167176   -0.017302
      9          7           0        2.286428    0.464676    0.060949
 ---------------------------------------------------------------------
                    Distance matrix (angstroms):
                    1          2          3          4          5
     1  C    0.000000
     2  O    1.379704   0.000000
     3  C    1.593441   2.427994   0.000000
     4  H    2.260555   3.389738   1.099191   0.000000
     5  H    2.174547   2.666423   1.096164   1.792072   0.000000
     6  H    2.211538   2.652325   1.093854   1.791994   1.783267
     7  Cl   1.500000   2.421099   2.534107   2.801991   2.759306
     8  C    1.400000   2.206007   2.373983   2.712819   3.298724
     9  N    2.566833   3.190424   3.348313   3.513460   4.357808
                    6          7          8          9
     6  H    0.000000
     7  Cl   3.471911   0.000000
     8  C    2.594318   2.416963   0.000000
     9  N    3.339138   3.461270   1.167755   0.000000
 Stoichiometry    C3H3ClNO(1-)
 Framework group  C1[X(C3H3ClNO)]
 Deg. of freedom    21
 Full point group                 C1      NOp   1
 RotChk:  IX=0 Diff= 1.74D-15
 Largest Abelian subgroup         C1      NOp   1
 Largest concise Abelian subgroup C1      NOp   1
                         Standard orientation:                         
 ---------------------------------------------------------------------
 Center     Atomic      Atomic             Coordinates (Angstroms)
 Number     Number       Type             X           Y           Z
 ---------------------------------------------------------------------
      1          6           0       -0.099332    0.184002    0.165206
      2          8           0       -0.104678    0.538083    1.498691
      3          6           0       -0.256786    1.494171   -0.727946
      4          1           0       -0.211916    1.284703   -1.806061
      5          1           0       -1.234810    1.922664   -0.480083
      6          1           0        0.524852    2.211204   -0.460693
      7         17           0       -1.145802   -0.822174   -0.212298
      8          6           0        1.202663   -0.264878   -0.086423
      9          7           0        2.308379   -0.603720   -0.248378
 ---------------------------------------------------------------------
 Rotational constants (GHZ):           4.2082030           2.6763211           2.3717938
 Leave Link  202 at Tue Jan  7 22:50:55 2020, MaxMem=  4294967296 cpu:               3.1 elap:               0.3
 (Enter /home/cwagen/sw/g16/g16/l601.exe)
 Copying SCF densities to generalized density rwf, IOpCl= 0 IROHF=0.

 **********************************************************************

            Population analysis using the SCF density.

 **********************************************************************

 Orbital symmetries:
       Occupied  (A) (A) (A) (A) (A) (A) (A) (A) (A) (A) (A) (A)
                 (A) (A) (A) (A) (A) (A) (A) (A) (A) (A) (A) (A)
                 (A) (A) (A)
       Virtual   (A) (A) (A) (A) (A) (A) (A) (A) (A) (A) (A) (A)
                 (A) (A) (A) (A) (A) (A) (A) (A) (A) (A) (A) (A)
                 (A) (A) (A) (A) (A) (A) (A) (A) (A) (A) (A) (A)
                 (A) (A) (A) (A) (A) (A) (A) (A) (A) (A) (A) (A)
                 (A) (A) (A) (A) (A) (A) (A) (A) (A) (A) (A) (A)
                 (A) (A) (A) (A) (A) (A) (A) (A) (A) (A) (A) (A)
                 (A) (A) (A) (A) (A) (A) (A) (A) (A) (A) (A) (A)
                 (A) (A) (A) (A) (A) (A) (A) (A) (A) (A) (A) (A)
                 (A)
 The electronic state is 1-A.
 Alpha  occ. eigenvalues -- -101.51681 -19.02379 -14.31055 -10.25140 -10.20429
 Alpha  occ. eigenvalues --  -10.15498  -9.44137  -7.20439  -7.19502  -7.19468
 Alpha  occ. eigenvalues --   -0.97077  -0.87585  -0.83793  -0.69657  -0.62643
 Alpha  occ. eigenvalues --   -0.49541  -0.43328  -0.40563  -0.37438  -0.35801
 Alpha  occ. eigenvalues --   -0.35483  -0.31575  -0.30715  -0.27915  -0.26235
 Alpha  occ. eigenvalues --   -0.17668  -0.17051
 Alpha virt. eigenvalues --    0.02656   0.04357   0.04772   0.05414   0.06353
 Alpha virt. eigenvalues --    0.07352   0.07833   0.09614   0.09813   0.10148
 Alpha virt. eigenvalues --    0.10255   0.11500   0.14103   0.14468   0.15224
 Alpha virt. eigenvalues --    0.16617   0.17003   0.19214   0.22610   0.23763
 Alpha virt. eigenvalues --    0.24768   0.25615   0.26452   0.26822   0.27272
 Alpha virt. eigenvalues --    0.28653   0.29331   0.31377   0.35385   0.36232
 Alpha virt. eigenvalues --    0.38667   0.40294   0.43100   0.55965   0.63296
 Alpha virt. eigenvalues --    0.63582   0.65374   0.66522   0.68823   0.71511
 Alpha virt. eigenvalues --    0.73191   0.76233   0.78520   0.80793   0.82761
 Alpha virt. eigenvalues --    0.88153   0.89176   0.91828   0.95398   0.97632
 Alpha virt. eigenvalues --    1.02357   1.03749   1.06136   1.07687   1.10579
 Alpha virt. eigenvalues --    1.11020   1.16560   1.18129   1.27593   1.33861
 Alpha virt. eigenvalues --    1.38194   1.40335   1.42598   1.51817   1.54933
 Alpha virt. eigenvalues --    1.56479   1.58518   1.61166   1.72951   1.76359
 Alpha virt. eigenvalues --    1.86243   1.89381   1.94231   1.96772   1.99729
 Alpha virt. eigenvalues --    2.01779   2.08586   2.09099   2.17735   2.25794
 Alpha virt. eigenvalues --    2.29531   2.36148   2.36691   2.44200   2.54697
 Alpha virt. eigenvalues --    2.69973   2.87230   2.91761   2.99644   3.08728
 Alpha virt. eigenvalues --    3.33163   4.19175   4.26484   4.38672   4.43409
 Alpha virt. eigenvalues --    4.47062   4.87007
          Condensed to atoms (all electrons):
               1          2          3          4          5          6
     1  C   10.626893   0.717368   0.717021  -0.111358  -0.105065  -0.102460
     2  O    0.717368   8.794054  -0.240766   0.011965  -0.003322  -0.005148
     3  C    0.717021  -0.240766   5.917922   0.312349   0.403598   0.410496
     4  H   -0.111358   0.011965   0.312349   0.536475  -0.028680  -0.031814
     5  H   -0.105065  -0.003322   0.403598  -0.028680   0.489070  -0.022274
     6  H   -0.102460  -0.005148   0.410496  -0.031814  -0.022274   0.495909
     7  Cl  -1.974414  -0.246682  -0.312140   0.038562   0.012323   0.019275
     8  C   -3.687152  -0.257699  -0.520015   0.068134   0.033833   0.017361
     9  N   -0.004363  -0.042414  -0.040646  -0.002849   0.000928  -0.000598
               7          8          9
     1  C   -1.974414  -3.687152  -0.004363
     2  O   -0.246682  -0.257699  -0.042414
     3  C   -0.312140  -0.520015  -0.040646
     4  H    0.038562   0.068134  -0.002849
     5  H    0.012323   0.033833   0.000928
     6  H    0.019275   0.017361  -0.000598
     7  Cl  18.344752   1.047261  -0.039195
     8  C    1.047261   8.419951   0.454017
     9  N   -0.039195   0.454017   7.404107
 Mulliken charges:
               1
     1  C   -0.076469
     2  O   -0.727356
     3  C   -0.647818
     4  H    0.207217
     5  H    0.219589
     6  H    0.219255
     7  Cl   0.110259
     8  C    0.424311
     9  N   -0.728987
 Sum of Mulliken charges =  -1.00000
 Mulliken charges with hydrogens summed into heavy atoms:
               1
     1  C   -0.076469
     2  O   -0.727356
     3  C   -0.001757
     7  Cl   0.110259
     8  C    0.424311
     9  N   -0.728987
 Electronic spatial extent (au):  <R**2>=            612.0298
 Charge=             -1.0000 electrons
 Dipole moment (field-independent basis, Debye):
    X=             -3.5778    Y=              0.3335    Z=             -5.1022  Tot=              6.2405
 Quadrupole moment (field-independent basis, Debye-Ang):
   XX=            -59.5860   YY=            -47.4088   ZZ=            -55.4814
   XY=              3.4618   XZ=              2.1233   YZ=             -3.9323
 Traceless Quadrupole moment (field-independent basis, Debye-Ang):
   XX=             -5.4272   YY=              6.7499   ZZ=             -1.3226
   XY=              3.4618   XZ=              2.1233   YZ=             -3.9323
 Octapole moment (field-independent basis, Debye-Ang**2):
  XXX=            -46.1680  YYY=             -3.5815  ZZZ=            -17.5139  XYY=             -5.5365
  XXY=              9.2062  XXZ=              3.3608  XZZ=             -2.1763  YZZ=             -6.4507
  YYZ=             -2.2425  XYZ=             -1.0726
 Hexadecapole moment (field-independent basis, Debye-Ang**3):
 XXXX=           -525.1773 YYYY=           -263.8166 ZZZZ=           -218.0048 XXXY=             35.6742
 XXXZ=             14.5805 YYYX=             12.8123 YYYZ=              0.1193 ZZZX=              4.0130
 ZZZY=             -6.6296 XXYY=           -118.0484 XXZZ=           -108.8440 YYZZ=            -83.1063
 XXYZ=             -2.7245 YYXZ=              2.4128 ZZXY=              3.6303
 N-N= 2.788655440095D+02 E-N=-2.236681136024D+03  KE= 7.034716422385D+02
 No NMR shielding tensors so no spin-rotation constants.
 Leave Link  601 at Tue Jan  7 22:50:57 2020, MaxMem=  4294967296 cpu:              17.3 elap:               1.5
 (Enter /home/cwagen/sw/g16/g16/l9999.exe)
 1\1\GINC-NODE025\FOpt\RB3LYP\6-31+G(d)\C3H3Cl1N1O1(1-)\CWAGEN\07-Jan-2
 020\0\\#p opt=modredundant b3lyp/6-31+g(d) scrf=(smd, solvent=tetrahyd
 rofuran)\\title\\-1,1\C,-0.1720104904,-0.2375869468,-0.166062156\O,-0.
 2646230389,-0.6944284551,-1.4646393076\C,-0.337813889,-1.4647487902,0.
 8367529551\H,-0.2258219321,-1.1738049052,1.8908067963\H,-1.3454626479,
 -1.864330261,0.6738011149\H,0.3964027616,-2.2368952125,0.5893005198\Cl
 ,-1.1519242147,0.8437266279,0.181112236\C,1.1599193811,0.1671762581,-0
 .0173020285\N,2.2864284403,0.4646764348,0.0609488199\\Version=AS64L-G1
 6RevA.03\State=1-A\HF=-706.3281482\RMSD=2.774e-09\RMSF=7.174e-02\Dipol
 e=-1.3016926,0.0936406,2.0796316\Quadrupole=-4.4155902,4.7603465,-0.34
 47563,-2.433401,-1.3320689,-3.1694287\PG=C01 [X(C3H3Cl1N1O1)]\\@


 FROM AN ANONYMOUS WRITER, ON PERSPECTIVE:

 MAN, DESPITE HIS ARTISTIC PRETENSIONS, HIS SOPHISTICATION AND MANY 
 ACCOMPLISHMENTS, OWES THE FACT OF HIS EXISTENCE TO A SIX-INCH LAYER OF 
 TOPSOIL AND THE FACT THAT IT RAINS.
 Job cpu time:       0 days  1 hours 23 minutes  8.5 seconds.
 Elapsed time:       0 days  0 hours  6 minutes 18.2 seconds.
 File lengths (MBytes):  RWF=     51 Int=      0 D2E=      0 Chk=      4 Scr=      1
 Normal termination of Gaussian 16 at Tue Jan  7 22:50:57 2020.
