 Entering Gaussian System, Link 0=g16
 Input=scan_300_150.gjf
 Output=scan_300_150.out
 Initial command:
 /home/cwagen/sw/g16/g16/l1.exe "/scratch/users/cwagen/cwagen_scan_300_150/Gau-61470.inp" -scrdir="/scratch/users/cwagen/cwagen_scan_300_150/"
 Entering Link 1 = /home/cwagen/sw/g16/g16/l1.exe PID=     61471.
  
 Copyright (c) 1988,1990,1992,1993,1995,1998,2003,2009,2016,
            Gaussian, Inc.  All Rights Reserved.
  
 This is part of the Gaussian(R) 16 program.  It is based on
 the Gaussian(R) 09 system (copyright 2009, Gaussian, Inc.),
 the Gaussian(R) 03 system (copyright 2003, Gaussian, Inc.),
 the Gaussian(R) 98 system (copyright 1998, Gaussian, Inc.),
 the Gaussian(R) 94 system (copyright 1995, Gaussian, Inc.),
 the Gaussian 92(TM) system (copyright 1992, Gaussian, Inc.),
 the Gaussian 90(TM) system (copyright 1990, Gaussian, Inc.),
 the Gaussian 88(TM) system (copyright 1988, Gaussian, Inc.),
 the Gaussian 86(TM) system (copyright 1986, Carnegie Mellon
 University), and the Gaussian 82(TM) system (copyright 1983,
 Carnegie Mellon University). Gaussian is a federally registered
 trademark of Gaussian, Inc.
  
 This software contains proprietary and confidential information,
 including trade secrets, belonging to Gaussian, Inc.
  
 This software is provided under written license and may be
 used, copied, transmitted, or stored only in accord with that
 written license.
  
 The following legend is applicable only to US Government
 contracts under FAR:
  
                    RESTRICTED RIGHTS LEGEND
  
 Use, reproduction and disclosure by the US Government is
 subject to restrictions as set forth in subparagraphs (a)
 and (c) of the Commercial Computer Software - Restricted
 Rights clause in FAR 52.227-19.
  
 Gaussian, Inc.
 340 Quinnipiac St., Bldg. 40, Wallingford CT 06492
  
  
 ---------------------------------------------------------------
 Warning -- This program may not be used in any manner that
 competes with the business of Gaussian, Inc. or will provide
 assistance to any competitor of Gaussian, Inc.  The licensee
 of this program is prohibited from giving any competitor of
 Gaussian, Inc. access to this program.  By using this program,
 the user acknowledges that Gaussian, Inc. is engaged in the
 business of creating and licensing software in the field of
 computational chemistry and represents and warrants to the
 licensee that it is not a competitor of Gaussian, Inc. and that
 it will not use this program in any manner prohibited above.
 ---------------------------------------------------------------
  

 Cite this work as:
 Gaussian 16, Revision A.03,
 M. J. Frisch, G. W. Trucks, H. B. Schlegel, G. E. Scuseria, 
 M. A. Robb, J. R. Cheeseman, G. Scalmani, V. Barone, 
 G. A. Petersson, H. Nakatsuji, X. Li, M. Caricato, A. V. Marenich, 
 J. Bloino, B. G. Janesko, R. Gomperts, B. Mennucci, H. P. Hratchian, 
 J. V. Ortiz, A. F. Izmaylov, J. L. Sonnenberg, D. Williams-Young, 
 F. Ding, F. Lipparini, F. Egidi, J. Goings, B. Peng, A. Petrone, 
 T. Henderson, D. Ranasinghe, V. G. Zakrzewski, J. Gao, N. Rega, 
 G. Zheng, W. Liang, M. Hada, M. Ehara, K. Toyota, R. Fukuda, 
 J. Hasegawa, M. Ishida, T. Nakajima, Y. Honda, O. Kitao, H. Nakai, 
 T. Vreven, K. Throssell, J. A. Montgomery, Jr., J. E. Peralta, 
 F. Ogliaro, M. J. Bearpark, J. J. Heyd, E. N. Brothers, K. N. Kudin, 
 V. N. Staroverov, T. A. Keith, R. Kobayashi, J. Normand, 
 K. Raghavachari, A. P. Rendell, J. C. Burant, S. S. Iyengar, 
 J. Tomasi, M. Cossi, J. M. Millam, M. Klene, C. Adamo, R. Cammi, 
 J. W. Ochterski, R. L. Martin, K. Morokuma, O. Farkas, 
 J. B. Foresman, and D. J. Fox, Gaussian, Inc., Wallingford CT, 2016.
 
 ******************************************
 Gaussian 16:  AS64L-G16RevA.03 25-Dec-2016
                 8-Jan-2020 
 ******************************************
 %nprocshared=16
 Will use up to   16 processors via shared memory.
 %mem=32GB
 ----------------------------------------------------------------------
 #p opt=modredundant b3lyp/6-31+g(d) scrf=(smd, solvent=tetrahydrofuran
 )
 ----------------------------------------------------------------------
 1/18=120,19=15,26=3,38=1/1,3;
 2/9=110,12=2,17=6,18=5,40=1/2;
 3/5=1,6=6,7=11,11=2,25=1,30=1,70=32201,71=1,72=20,74=-5/1,2,3;
 4//1;
 5/5=2,38=5,53=20/2;
 6/7=2,8=2,9=2,10=2,28=1/1;
 7//1,2,3,16;
 1/18=20,19=15,26=3/3(2);
 2/9=110/2;
 99//99;
 2/9=110/2;
 3/5=1,6=6,7=11,11=2,25=1,30=1,70=32205,71=1,72=20,74=-5/1,2,3;
 4/5=5,16=3,69=1/1;
 5/5=2,38=5,53=20/2;
 7//1,2,3,16;
 1/18=20,19=15,26=3/3(-5);
 2/9=110/2;
 6/7=2,8=2,9=2,10=2,19=2,28=1/1;
 99/9=1/99;
 Leave Link    1 at Wed Jan  8 02:11:55 2020, MaxMem=  4294967296 cpu:               1.3 elap:               0.1
 (Enter /home/cwagen/sw/g16/g16/l101.exe)
 -----
 title
 -----
 Symbolic Z-matrix:
 Charge = -1 Multiplicity = 1
 6                    -0.19426  -0.292    -0.21291 
 8                    -0.25532  -0.66526  -1.45426 
 6                    -0.33095  -1.45422   0.81632 
 1                    -0.18039  -1.13044   1.85373 
 1                    -1.34067  -1.87301   0.71427 
 1                     0.39707  -2.23395   0.57058 
 17                   -1.99048   1.98666   0.54955 
 6                     1.19642   0.19498   0.0679 
 7                     2.33099   0.47528   0.0982 
 
 Add virtual bond connecting atoms Cl7        and C1         Dist= 5.67D+00.
 The following ModRedundant input section has been read:
 B       1       7 F                                                           
 B       1       8 F                                                           
 
 ITRead=  0  0  0  0  0  0  0  0  0
 MicOpt= -1 -1 -1 -1 -1 -1 -1 -1 -1
 NAtoms=      9 NQM=        9 NQMF=       0 NMMI=      0 NMMIF=      0
                NMic=       0 NMicF=      0.
                    Isotopes and Nuclear Properties:
 (Nuclear quadrupole moments (NQMom) in fm**2, nuclear magnetic moments (NMagM)
  in nuclear magnetons)

  Atom         1           2           3           4           5           6           7           8           9
 IAtWgt=          12          16          12           1           1           1          35          12          14
 AtmWgt=  12.0000000  15.9949146  12.0000000   1.0078250   1.0078250   1.0078250  34.9688527  12.0000000  14.0030740
 NucSpn=           0           0           0           1           1           1           3           0           2
 AtZEff=   0.0000000   0.0000000   0.0000000   0.0000000   0.0000000   0.0000000   0.0000000   0.0000000   0.0000000
 NQMom=    0.0000000   0.0000000   0.0000000   0.0000000   0.0000000   0.0000000  -8.1650000   0.0000000   2.0440000
 NMagM=    0.0000000   0.0000000   0.0000000   2.7928460   2.7928460   2.7928460   0.8218740   0.0000000   0.4037610
 AtZNuc=   6.0000000   8.0000000   6.0000000   1.0000000   1.0000000   1.0000000  17.0000000   6.0000000   7.0000000
 Leave Link  101 at Wed Jan  8 02:11:56 2020, MaxMem=  4294967296 cpu:               6.8 elap:               0.6
 (Enter /home/cwagen/sw/g16/g16/l103.exe)

 GradGradGradGradGradGradGradGradGradGradGradGradGradGradGradGradGradGrad
 Berny optimization.
 Initialization pass.
                           ----------------------------
                           !    Initial Parameters    !
                           ! (Angstroms and Degrees)  !
 --------------------------                            --------------------------
 ! Name  Definition              Value          Derivative Info.                !
 --------------------------------------------------------------------------------
 ! R1    R(1,2)                  1.2977         estimate D2E/DX2                !
 ! R2    R(1,3)                  1.5584         estimate D2E/DX2                !
 ! R3    R(1,7)                  3.0            Frozen                          !
 ! R4    R(1,8)                  1.5            Frozen                          !
 ! R5    R(3,4)                  1.0971         estimate D2E/DX2                !
 ! R6    R(3,5)                  1.0979         estimate D2E/DX2                !
 ! R7    R(3,6)                  1.0947         estimate D2E/DX2                !
 ! R8    R(8,9)                  1.1691         estimate D2E/DX2                !
 ! A1    A(2,1,3)              114.4006         estimate D2E/DX2                !
 ! A2    A(2,1,7)              115.6846         estimate D2E/DX2                !
 ! A3    A(2,1,8)              108.426          estimate D2E/DX2                !
 ! A4    A(3,1,7)              110.248          estimate D2E/DX2                !
 ! A5    A(3,1,8)              101.5248         estimate D2E/DX2                !
 ! A6    A(7,1,8)              105.1256         estimate D2E/DX2                !
 ! A7    A(1,3,4)              113.1005         estimate D2E/DX2                !
 ! A8    A(1,3,5)              107.683          estimate D2E/DX2                !
 ! A9    A(1,3,6)              108.9421         estimate D2E/DX2                !
 ! A10   A(4,3,5)              109.0662         estimate D2E/DX2                !
 ! A11   A(4,3,6)              109.3417         estimate D2E/DX2                !
 ! A12   A(5,3,6)              108.6067         estimate D2E/DX2                !
 ! A13   L(1,8,9,6,-1)         177.6482         estimate D2E/DX2                !
 ! A14   L(1,8,9,6,-2)         167.588          estimate D2E/DX2                !
 ! D1    D(2,1,3,4)            174.4714         estimate D2E/DX2                !
 ! D2    D(2,1,3,5)            -64.9488         estimate D2E/DX2                !
 ! D3    D(2,1,3,6)             52.6633         estimate D2E/DX2                !
 ! D4    D(7,1,3,4)            -53.1046         estimate D2E/DX2                !
 ! D5    D(7,1,3,5)             67.4752         estimate D2E/DX2                !
 ! D6    D(7,1,3,6)           -174.9127         estimate D2E/DX2                !
 ! D7    D(8,1,3,4)             57.938          estimate D2E/DX2                !
 ! D8    D(8,1,3,5)            178.5177         estimate D2E/DX2                !
 ! D9    D(8,1,3,6)            -63.8702         estimate D2E/DX2                !
 --------------------------------------------------------------------------------
 Trust Radius=3.00D-01 FncErr=1.00D-07 GrdErr=1.00D-06 EigMax=2.50D+02 EigMin=1.00D-04
 Number of steps in this run=     41 maximum allowed number of steps=    100.
 GradGradGradGradGradGradGradGradGradGradGradGradGradGradGradGradGradGrad

 Leave Link  103 at Wed Jan  8 02:11:56 2020, MaxMem=  4294967296 cpu:               0.7 elap:               0.2
 (Enter /home/cwagen/sw/g16/g16/l202.exe)
                          Input orientation:                          
 ---------------------------------------------------------------------
 Center     Atomic      Atomic             Coordinates (Angstroms)
 Number     Number       Type             X           Y           Z
 ---------------------------------------------------------------------
      1          6           0       -0.194263   -0.291999   -0.212908
      2          8           0       -0.255321   -0.665256   -1.454255
      3          6           0       -0.330945   -1.454221    0.816316
      4          1           0       -0.180394   -1.130438    1.853734
      5          1           0       -1.340665   -1.873010    0.714272
      6          1           0        0.397068   -2.233949    0.570583
      7         17           0       -1.990480    1.986656    0.549545
      8          6           0        1.196420    0.194981    0.067898
      9          7           0        2.330991    0.475279    0.098201
 ---------------------------------------------------------------------
                    Distance matrix (angstroms):
                    1          2          3          4          5
     1  C    0.000000
     2  O    1.297687   0.000000
     3  C    1.558443   2.404928   0.000000
     4  H    2.230287   3.341377   1.097150   0.000000
     5  H    2.161827   2.709087   1.097876   1.787740   0.000000
     6  H    2.175937   2.643176   1.094698   1.788205   1.780629
     7  Cl   3.000000   3.749484   3.829472   3.833222   3.917450
     8  C    1.500000   2.272556   2.369143   2.615638   3.336343
     9  N    2.657520   3.224895   3.365199   3.459375   4.401711
                    6          7          8          9
     6  H    0.000000
     7  Cl   4.849158   0.000000
     8  C    2.606023   3.687603   0.000000
     9  N    3.362011   4.600335   1.169075   0.000000
 Stoichiometry    C3H3ClNO(1-)
 Framework group  C1[X(C3H3ClNO)]
 Deg. of freedom    21
 Full point group                 C1      NOp   1
 Largest Abelian subgroup         C1      NOp   1
 Largest concise Abelian subgroup C1      NOp   1
                         Standard orientation:                         
 ---------------------------------------------------------------------
 Center     Atomic      Atomic             Coordinates (Angstroms)
 Number     Number       Type             X           Y           Z
 ---------------------------------------------------------------------
      1          6           0       -0.521634   -0.423808    0.211224
      2          8           0       -0.899777   -0.831193    1.383844
      3          6           0       -0.965372   -1.345443   -0.964543
      4          1           0       -0.719120   -0.933329   -1.951082
      5          1           0       -0.456748   -2.310639   -0.841941
      6          1           0       -2.045789   -1.509214   -0.899426
      7         17           0        2.386335    0.265569   -0.050455
      8          6           0       -1.255011    0.844844   -0.109213
      9          7           0       -1.956534    1.776357   -0.192195
 ---------------------------------------------------------------------
 Rotational constants (GHZ):           3.4466300           1.4375883           1.2547402
 Leave Link  202 at Wed Jan  8 02:11:56 2020, MaxMem=  4294967296 cpu:               1.4 elap:               0.1
 (Enter /home/cwagen/sw/g16/g16/l301.exe)
 Standard basis: 6-31+G(d) (6D, 7F)
 Ernie: Thresh=  0.10000D-02 Tol=  0.10000D-05 Strict=F.
 There are   124 symmetry adapted cartesian basis functions of A   symmetry.
 There are   124 symmetry adapted basis functions of A   symmetry.
   124 basis functions,   228 primitive gaussians,   124 cartesian basis functions
    27 alpha electrons       27 beta electrons
       nuclear repulsion energy       228.3073183878 Hartrees.
 IExCor=  402 DFT=T Ex+Corr=B3LYP ExCW=0 ScaHFX=  0.200000
 ScaDFX=  0.800000  0.720000  1.000000  0.810000 ScalE2=  1.000000  1.000000
 IRadAn=      5 IRanWt=     -1 IRanGd=            0 ICorTp=0 IEmpDi=  4
 NAtoms=    9 NActive=    9 NUniq=    9 SFac= 1.00D+00 NAtFMM=   60 NAOKFM=F Big=F
 Integral buffers will be    131072 words long.
 Raffenetti 2 integral format.
 Two-electron integral symmetry is turned on.
 ------------------------------------------------------------------------------
 Polarizable Continuum Model (PCM)
 =================================
 Model                : PCM.
 Atomic radii         : SMD-Coulomb.
 Polarization charges : Total charges.
 Charge compensation  : None.
 Solution method      : On-the-fly selection.
 Cavity type          : VdW (van der Waals Surface) (Alpha=1.000).
 Cavity algorithm     : GePol (No added spheres)
                        Default sphere list used, NSphG=    9.
                        Lebedev-Laikov grids with approx.  5.0 points / Ang**2.
                        Smoothing algorithm: York/Karplus (Gamma=1.0000).
                        Polarization charges: spherical gaussians, with
                                              point-specific exponents (IZeta= 3).
                        Self-potential: point-specific (ISelfS= 7).
                        Self-field    : sphere-specific E.n sum rule (ISelfD= 2).
 1st derivatives      : Analytical E(r).r(x)/FMM algorithm (CHGder, D1EAlg=3).
                        Cavity 1st derivative terms included.
 Solvent              : TetraHydroFuran, Eps=   7.425700 Eps(inf)=   1.974025
 ------------------------------------------------------------------------------
 Spheres list:
 ISph  on   Nord     Re0    Alpha      Xe            Ye            Ze
    1   C      1    1.8500  1.000     -0.521634     -0.423808      0.211224
    2   O      2    2.2940  1.000     -0.899777     -0.831193      1.383844
    3   C      3    1.8500  1.000     -0.965372     -1.345443     -0.964543
    4   H      4    1.2000  1.000     -0.719120     -0.933329     -1.951082
    5   H      5    1.2000  1.000     -0.456748     -2.310639     -0.841941
    6   H      6    1.2000  1.000     -2.045789     -1.509214     -0.899426
    7  Cl      7    2.3800  1.000      2.386335      0.265569     -0.050455
    8   C      8    1.8500  1.000     -1.255011      0.844844     -0.109213
    9   N      9    1.8900  1.000     -1.956534      1.776357     -0.192195
 ------------------------------------------------------------------------------
 GePol: Number of generator spheres                  =       9
 GePol: Total number of spheres                      =       9
 GePol: Number of exposed spheres                    =       9 (100.00%)
 GePol: Number of points                             =    1248
 GePol: Average weight of points                     =       0.14
 GePol: Minimum weight of points                     =   0.25D-10
 GePol: Maximum weight of points                     =    0.18138
 GePol: Number of points with low weight             =      38
 GePol: Fraction of low-weight points (<1% of avg)   =       3.04%
 GePol: Cavity surface area                          =    171.967 Ang**2
 GePol: Cavity volume                                =    153.539 Ang**3
 ------------------------------------------------------------------------------
 Atomic radii for non-electrostatic terms: SMD-CDS.
 ------------------------------------------------------------------------------
 PCM non-electrostatic energy =        -0.0013641001 Hartrees.
 Nuclear repulsion after PCM non-electrostatic terms =      228.3059542877 Hartrees.
 Leave Link  301 at Wed Jan  8 02:11:56 2020, MaxMem=  4294967296 cpu:               1.9 elap:               0.2
 (Enter /home/cwagen/sw/g16/g16/l302.exe)
 NPDir=0 NMtPBC=     1 NCelOv=     1 NCel=       1 NClECP=     1 NCelD=      1
         NCelK=      1 NCelE2=     1 NClLst=     1 CellRange=     0.0.
 One-electron integrals computed using PRISM.
 One-electron integral symmetry used in STVInt
 NBasis=   124 RedAO= T EigKep=  5.54D-05  NBF=   124
 NBsUse=   124 1.00D-06 EigRej= -1.00D+00 NBFU=   124
 Precomputing XC quadrature grid using
 IXCGrd= 4 IRadAn=           5 IRanWt=          -1 IRanGd=           0 AccXCQ= 0.00D+00.
 Generated NRdTot=       0 NPtTot=           0 NUsed=           0 NTot=          32
 NSgBfM=   123   123   123   123   123 MxSgAt=     9 MxSgA2=     9.
 Leave Link  302 at Wed Jan  8 02:11:58 2020, MaxMem=  4294967296 cpu:              22.7 elap:               1.8
 (Enter /home/cwagen/sw/g16/g16/l303.exe)
 DipDrv:  MaxL=1.
 Leave Link  303 at Wed Jan  8 02:11:58 2020, MaxMem=  4294967296 cpu:               3.0 elap:               0.3
 (Enter /home/cwagen/sw/g16/g16/l401.exe)
 ExpMin= 4.38D-02 ExpMax= 2.52D+04 ExpMxC= 3.78D+03 IAcc=3 IRadAn=         5 AccDes= 0.00D+00
 Harris functional with IExCor=  402 and IRadAn=       5 diagonalized for initial guess.
 HarFok:  IExCor=  402 AccDes= 0.00D+00 IRadAn=         5 IDoV= 1 UseB2=F ITyADJ=14
 ICtDFT=  3500011 ScaDFX=  1.000000  1.000000  1.000000  1.000000
 FoFCou: FMM=F IPFlag=           0 FMFlag=      100000 FMFlg1=           0
         NFxFlg=           0 DoJE=T BraDBF=F KetDBF=T FulRan=T
         wScrn=  0.000000 ICntrl=       500 IOpCl=  0 I1Cent=   200000004 NGrid=           0
         NMat0=    1 NMatS0=      1 NMatT0=    0 NMatD0=    1 NMtDS0=    0 NMtDT0=    0
 Petite list used in FoFCou.
 Harris En= -706.370094296283    
 JPrj=0 DoOrth=F DoCkMO=F.
 Leave Link  401 at Wed Jan  8 02:12:00 2020, MaxMem=  4294967296 cpu:              23.1 elap:               1.7
 (Enter /home/cwagen/sw/g16/g16/l502.exe)
 Keep R1 ints in memory in canonical form, NReq=45236517.
 FoFCou: FMM=F IPFlag=           0 FMFlag=           0 FMFlg1=           0
         NFxFlg=           0 DoJE=F BraDBF=F KetDBF=F FulRan=T
         wScrn=  0.000000 ICntrl=       600 IOpCl=  0 I1Cent=           0 NGrid=           0
         NMat0=    1 NMatS0=   7750 NMatT0=    0 NMatD0=    1 NMtDS0=    0 NMtDT0=    0
 Symmetry not used in FoFCou.
 Two-electron integral symmetry not used.
 Closed shell SCF:
 Using DIIS extrapolation, IDIIS=  1040.
 NGot=  4294967296 LenX=  4264898079 LenY=  4264882262
 Requested convergence on RMS density matrix=1.00D-08 within 128 cycles.
 Requested convergence on MAX density matrix=1.00D-06.
 Requested convergence on             energy=1.00D-06.
 No special actions if energy rises.

 Cycle   1  Pass 1  IDiag  1:
 Inv3:  Mode=1 IEnd=     4672512.
 Iteration    1 A*A^-1 deviation from unit magnitude is 3.55D-15 for   1242.
 Iteration    1 A*A^-1 deviation from orthogonality  is 2.41D-15 for    328     84.
 Iteration    1 A^-1*A deviation from unit magnitude is 3.77D-15 for   1242.
 Iteration    1 A^-1*A deviation from orthogonality  is 1.15D-15 for   1231   1227.
 E= -706.241160683839    
 DIIS: error= 2.42D-02 at cycle   1 NSaved=   1.
 NSaved= 1 IEnMin= 1 EnMin= -706.241160683839     IErMin= 1 ErrMin= 2.42D-02
 ErrMax= 2.42D-02  0.00D+00 EMaxC= 1.00D-01 BMatC= 1.77D-01 BMatP= 1.77D-01
 IDIUse=3 WtCom= 7.58D-01 WtEn= 2.42D-01
 Coeff-Com:  0.100D+01
 Coeff-En:   0.100D+01
 Coeff:      0.100D+01
 Gap=     0.114 Goal=   None    Shift=    0.000
 GapD=    0.114 DampG=1.000 DampE=0.500 DampFc=0.5000 IDamp=-1.
 Damping current iteration by 5.00D-01
 RMSDP=1.38D-02 MaxDP=4.00D-01              OVMax= 2.63D-01

 Cycle   2  Pass 1  IDiag  1:
 E= -706.239532793010     Delta-E=        0.001627890829 Rises=F Damp=T
 DIIS: error= 1.64D-02 at cycle   2 NSaved=   2.
 NSaved= 2 IEnMin= 1 EnMin= -706.241160683839     IErMin= 2 ErrMin= 1.64D-02
 ErrMax= 1.64D-02  0.00D+00 EMaxC= 1.00D-01 BMatC= 6.58D-02 BMatP= 1.77D-01
 IDIUse=3 WtCom= 8.36D-01 WtEn= 1.64D-01
 Coeff-Com:  0.346D+00 0.654D+00
 Coeff-En:   0.504D+00 0.496D+00
 Coeff:      0.372D+00 0.628D+00
 Gap=     0.151 Goal=   None    Shift=    0.000
 RMSDP=4.97D-03 MaxDP=1.89D-01 DE= 1.63D-03 OVMax= 2.27D-01

 Cycle   3  Pass 1  IDiag  1:
 E= -706.363475497678     Delta-E=       -0.123942704669 Rises=F Damp=F
 DIIS: error= 1.17D-02 at cycle   3 NSaved=   3.
 NSaved= 3 IEnMin= 3 EnMin= -706.363475497678     IErMin= 3 ErrMin= 1.17D-02
 ErrMax= 1.17D-02  0.00D+00 EMaxC= 1.00D-01 BMatC= 3.63D-02 BMatP= 6.58D-02
 IDIUse=3 WtCom= 8.83D-01 WtEn= 1.17D-01
 Coeff-Com:  0.134D+00 0.413D+00 0.453D+00
 Coeff-En:   0.000D+00 0.000D+00 0.100D+01
 Coeff:      0.118D+00 0.365D+00 0.517D+00
 Gap=     0.136 Goal=   None    Shift=    0.000
 RMSDP=2.43D-03 MaxDP=5.85D-02 DE=-1.24D-01 OVMax= 7.71D-02

 Cycle   4  Pass 1  IDiag  1:
 E= -706.391810396867     Delta-E=       -0.028334899188 Rises=F Damp=F
 DIIS: error= 5.59D-03 at cycle   4 NSaved=   4.
 NSaved= 4 IEnMin= 4 EnMin= -706.391810396867     IErMin= 4 ErrMin= 5.59D-03
 ErrMax= 5.59D-03  0.00D+00 EMaxC= 1.00D-01 BMatC= 7.70D-03 BMatP= 3.63D-02
 IDIUse=3 WtCom= 9.44D-01 WtEn= 5.59D-02
 Coeff-Com:  0.373D-01 0.908D-01 0.316D+00 0.555D+00
 Coeff-En:   0.000D+00 0.000D+00 0.196D+00 0.804D+00
 Coeff:      0.352D-01 0.857D-01 0.310D+00 0.569D+00
 Gap=     0.120 Goal=   None    Shift=    0.000
 RMSDP=1.25D-03 MaxDP=4.83D-02 DE=-2.83D-02 OVMax= 4.43D-02

 Cycle   5  Pass 1  IDiag  1:
 E= -706.397027920287     Delta-E=       -0.005217523421 Rises=F Damp=F
 DIIS: error= 2.35D-03 at cycle   5 NSaved=   5.
 NSaved= 5 IEnMin= 5 EnMin= -706.397027920287     IErMin= 5 ErrMin= 2.35D-03
 ErrMax= 2.35D-03  0.00D+00 EMaxC= 1.00D-01 BMatC= 1.68D-03 BMatP= 7.70D-03
 IDIUse=3 WtCom= 9.77D-01 WtEn= 2.35D-02
 Coeff-Com:  0.107D-01 0.817D-02 0.169D+00 0.423D+00 0.390D+00
 Coeff-En:   0.000D+00 0.000D+00 0.000D+00 0.189D+00 0.811D+00
 Coeff:      0.104D-01 0.798D-02 0.165D+00 0.417D+00 0.400D+00
 Gap=     0.126 Goal=   None    Shift=    0.000
 RMSDP=5.54D-04 MaxDP=2.50D-02 DE=-5.22D-03 OVMax= 1.49D-02

 Cycle   6  Pass 1  IDiag  1:
 E= -706.398542678557     Delta-E=       -0.001514758270 Rises=F Damp=F
 DIIS: error= 5.39D-04 at cycle   6 NSaved=   6.
 NSaved= 6 IEnMin= 6 EnMin= -706.398542678557     IErMin= 6 ErrMin= 5.39D-04
 ErrMax= 5.39D-04  0.00D+00 EMaxC= 1.00D-01 BMatC= 8.73D-05 BMatP= 1.68D-03
 IDIUse=3 WtCom= 9.95D-01 WtEn= 5.39D-03
 Coeff-Com:  0.292D-02-0.471D-02 0.637D-01 0.175D+00 0.243D+00 0.520D+00
 Coeff-En:   0.000D+00 0.000D+00 0.000D+00 0.000D+00 0.565D-02 0.994D+00
 Coeff:      0.290D-02-0.468D-02 0.633D-01 0.174D+00 0.242D+00 0.522D+00
 Gap=     0.128 Goal=   None    Shift=    0.000
 RMSDP=1.11D-04 MaxDP=4.03D-03 DE=-1.51D-03 OVMax= 2.99D-03

 Cycle   7  Pass 1  IDiag  1:
 E= -706.398616677757     Delta-E=       -0.000073999201 Rises=F Damp=F
 DIIS: error= 1.39D-04 at cycle   7 NSaved=   7.
 NSaved= 7 IEnMin= 7 EnMin= -706.398616677757     IErMin= 7 ErrMin= 1.39D-04
 ErrMax= 1.39D-04  0.00D+00 EMaxC= 1.00D-01 BMatC= 4.44D-06 BMatP= 8.73D-05
 IDIUse=3 WtCom= 9.99D-01 WtEn= 1.39D-03
 Coeff-Com:  0.944D-03-0.296D-02 0.171D-01 0.438D-01 0.888D-01 0.252D+00
 Coeff-Com:  0.600D+00
 Coeff-En:   0.000D+00 0.000D+00 0.000D+00 0.000D+00 0.000D+00 0.000D+00
 Coeff-En:   0.100D+01
 Coeff:      0.942D-03-0.296D-02 0.171D-01 0.438D-01 0.887D-01 0.252D+00
 Coeff:      0.601D+00
 Gap=     0.127 Goal=   None    Shift=    0.000
 RMSDP=6.57D-05 MaxDP=3.36D-03 DE=-7.40D-05 OVMax= 1.55D-03

 Cycle   8  Pass 1  IDiag  1:
 E= -706.398621317028     Delta-E=       -0.000004639271 Rises=F Damp=F
 DIIS: error= 4.26D-05 at cycle   8 NSaved=   8.
 NSaved= 8 IEnMin= 8 EnMin= -706.398621317028     IErMin= 8 ErrMin= 4.26D-05
 ErrMax= 4.26D-05  0.00D+00 EMaxC= 1.00D-01 BMatC= 4.90D-07 BMatP= 4.44D-06
 IDIUse=1 WtCom= 1.00D+00 WtEn= 0.00D+00
 Coeff-Com:  0.190D-03-0.135D-02 0.232D-02 0.378D-02 0.231D-01 0.816D-01
 Coeff-Com:  0.307D+00 0.583D+00
 Coeff:      0.190D-03-0.135D-02 0.232D-02 0.378D-02 0.231D-01 0.816D-01
 Coeff:      0.307D+00 0.583D+00
 Gap=     0.127 Goal=   None    Shift=    0.000
 RMSDP=1.24D-05 MaxDP=4.41D-04 DE=-4.64D-06 OVMax= 5.15D-04

 Cycle   9  Pass 1  IDiag  1:
 E= -706.398621826126     Delta-E=       -0.000000509097 Rises=F Damp=F
 DIIS: error= 1.12D-05 at cycle   9 NSaved=   9.
 NSaved= 9 IEnMin= 9 EnMin= -706.398621826126     IErMin= 9 ErrMin= 1.12D-05
 ErrMax= 1.12D-05  0.00D+00 EMaxC= 1.00D-01 BMatC= 3.10D-08 BMatP= 4.90D-07
 IDIUse=1 WtCom= 1.00D+00 WtEn= 0.00D+00
 Coeff-Com:  0.272D-04-0.171D-03-0.753D-03-0.307D-02-0.265D-03 0.243D-02
 Coeff-Com:  0.272D-01 0.209D+00 0.765D+00
 Coeff:      0.272D-04-0.171D-03-0.753D-03-0.307D-02-0.265D-03 0.243D-02
 Coeff:      0.272D-01 0.209D+00 0.765D+00
 Gap=     0.127 Goal=   None    Shift=    0.000
 RMSDP=3.56D-06 MaxDP=1.22D-04 DE=-5.09D-07 OVMax= 8.71D-05

 Cycle  10  Pass 1  IDiag  1:
 E= -706.398621865850     Delta-E=       -0.000000039724 Rises=F Damp=F
 DIIS: error= 1.86D-06 at cycle  10 NSaved=  10.
 NSaved=10 IEnMin=10 EnMin= -706.398621865850     IErMin=10 ErrMin= 1.86D-06
 ErrMax= 1.86D-06  0.00D+00 EMaxC= 1.00D-01 BMatC= 9.29D-10 BMatP= 3.10D-08
 IDIUse=1 WtCom= 1.00D+00 WtEn= 0.00D+00
 Coeff-Com:  0.242D-05-0.101D-04-0.286D-03-0.913D-03-0.107D-02-0.324D-02
 Coeff-Com: -0.948D-02 0.352D-01 0.245D+00 0.735D+00
 Coeff:      0.242D-05-0.101D-04-0.286D-03-0.913D-03-0.107D-02-0.324D-02
 Coeff:     -0.948D-02 0.352D-01 0.245D+00 0.735D+00
 Gap=     0.127 Goal=   None    Shift=    0.000
 RMSDP=8.32D-07 MaxDP=1.78D-05 DE=-3.97D-08 OVMax= 2.94D-05

 Cycle  11  Pass 1  IDiag  1:
 E= -706.398621867024     Delta-E=       -0.000000001174 Rises=F Damp=F
 DIIS: error= 6.54D-07 at cycle  11 NSaved=  11.
 NSaved=11 IEnMin=11 EnMin= -706.398621867024     IErMin=11 ErrMin= 6.54D-07
 ErrMax= 6.54D-07  0.00D+00 EMaxC= 1.00D-01 BMatC= 1.62D-10 BMatP= 9.29D-10
 IDIUse=1 WtCom= 1.00D+00 WtEn= 0.00D+00
 Coeff-Com: -0.300D-07 0.155D-04-0.689D-04-0.156D-03-0.551D-03-0.189D-02
 Coeff-Com: -0.782D-02-0.422D-02 0.327D-01 0.327D+00 0.654D+00
 Coeff:     -0.300D-07 0.155D-04-0.689D-04-0.156D-03-0.551D-03-0.189D-02
 Coeff:     -0.782D-02-0.422D-02 0.327D-01 0.327D+00 0.654D+00
 Gap=     0.127 Goal=   None    Shift=    0.000
 RMSDP=2.67D-07 MaxDP=5.00D-06 DE=-1.17D-09 OVMax= 6.12D-06

 Cycle  12  Pass 1  IDiag  1:
 E= -706.398621867240     Delta-E=       -0.000000000216 Rises=F Damp=F
 DIIS: error= 1.15D-07 at cycle  12 NSaved=  12.
 NSaved=12 IEnMin=12 EnMin= -706.398621867240     IErMin=12 ErrMin= 1.15D-07
 ErrMax= 1.15D-07  0.00D+00 EMaxC= 1.00D-01 BMatC= 4.99D-12 BMatP= 1.62D-10
 IDIUse=1 WtCom= 1.00D+00 WtEn= 0.00D+00
 Coeff-Com: -0.333D-06 0.341D-05 0.661D-05 0.368D-04-0.477D-04-0.197D-03
 Coeff-Com: -0.143D-02-0.307D-02-0.114D-01 0.280D-01 0.160D+00 0.828D+00
 Coeff:     -0.333D-06 0.341D-05 0.661D-05 0.368D-04-0.477D-04-0.197D-03
 Coeff:     -0.143D-02-0.307D-02-0.114D-01 0.280D-01 0.160D+00 0.828D+00
 Gap=     0.127 Goal=   None    Shift=    0.000
 RMSDP=5.86D-08 MaxDP=9.82D-07 DE=-2.16D-10 OVMax= 2.95D-06

 Cycle  13  Pass 1  IDiag  1:
 E= -706.398621867252     Delta-E=       -0.000000000012 Rises=F Damp=F
 DIIS: error= 3.87D-08 at cycle  13 NSaved=  13.
 NSaved=13 IEnMin=13 EnMin= -706.398621867252     IErMin=13 ErrMin= 3.87D-08
 ErrMax= 3.87D-08  0.00D+00 EMaxC= 1.00D-01 BMatC= 3.34D-13 BMatP= 4.99D-12
 IDIUse=1 WtCom= 1.00D+00 WtEn= 0.00D+00
 Coeff-Com:  0.180D-06-0.108D-05 0.427D-05 0.897D-05 0.285D-04 0.868D-04
 Coeff-Com:  0.319D-03 0.301D-03-0.309D-02-0.174D-01-0.317D-01 0.230D-01
 Coeff-Com:  0.103D+01
 Coeff:      0.180D-06-0.108D-05 0.427D-05 0.897D-05 0.285D-04 0.868D-04
 Coeff:      0.319D-03 0.301D-03-0.309D-02-0.174D-01-0.317D-01 0.230D-01
 Coeff:      0.103D+01
 Gap=     0.127 Goal=   None    Shift=    0.000
 RMSDP=2.34D-08 MaxDP=6.68D-07 DE=-1.16D-11 OVMax= 1.41D-06

 Cycle  14  Pass 1  IDiag  1:
 E= -706.398621867251     Delta-E=        0.000000000001 Rises=F Damp=F
 DIIS: error= 9.31D-09 at cycle  14 NSaved=  14.
 NSaved=14 IEnMin=13 EnMin= -706.398621867252     IErMin=14 ErrMin= 9.31D-09
 ErrMax= 9.31D-09  0.00D+00 EMaxC= 1.00D-01 BMatC= 1.69D-14 BMatP= 3.34D-13
 IDIUse=1 WtCom= 1.00D+00 WtEn= 0.00D+00
 Coeff-Com:  0.126D-06-0.401D-06 0.243D-08-0.112D-05 0.453D-05 0.145D-04
 Coeff-Com:  0.124D-03 0.230D-03 0.703D-03-0.302D-02-0.115D-01-0.548D-01
 Coeff-Com:  0.800D-01 0.988D+00
 Coeff:      0.126D-06-0.401D-06 0.243D-08-0.112D-05 0.453D-05 0.145D-04
 Coeff:      0.124D-03 0.230D-03 0.703D-03-0.302D-02-0.115D-01-0.548D-01
 Coeff:      0.800D-01 0.988D+00
 Gap=     0.127 Goal=   None    Shift=    0.000
 RMSDP=8.17D-09 MaxDP=3.99D-07 DE= 9.09D-13 OVMax= 3.64D-07

 Error on total polarization charges =  0.02331
 SCF Done:  E(RB3LYP) =  -706.398621867     A.U. after   14 cycles
            NFock= 14  Conv=0.82D-08     -V/T= 2.0059
 KE= 7.022440231560D+02 PE=-2.134111474179D+03 EE= 4.971628748681D+02
 SMD-CDS (non-electrostatic) energy       (kcal/mol) =      -0.86
 (included in total energy above)
 Leave Link  502 at Wed Jan  8 02:12:36 2020, MaxMem=  4294967296 cpu:             468.7 elap:              36.1
 (Enter /home/cwagen/sw/g16/g16/l601.exe)
 Copying SCF densities to generalized density rwf, IOpCl= 0 IROHF=0.

 **********************************************************************

            Population analysis using the SCF density.

 **********************************************************************

 Orbital symmetries:
       Occupied  (A) (A) (A) (A) (A) (A) (A) (A) (A) (A) (A) (A)
                 (A) (A) (A) (A) (A) (A) (A) (A) (A) (A) (A) (A)
                 (A) (A) (A)
       Virtual   (A) (A) (A) (A) (A) (A) (A) (A) (A) (A) (A) (A)
                 (A) (A) (A) (A) (A) (A) (A) (A) (A) (A) (A) (A)
                 (A) (A) (A) (A) (A) (A) (A) (A) (A) (A) (A) (A)
                 (A) (A) (A) (A) (A) (A) (A) (A) (A) (A) (A) (A)
                 (A) (A) (A) (A) (A) (A) (A) (A) (A) (A) (A) (A)
                 (A) (A) (A) (A) (A) (A) (A) (A) (A) (A) (A) (A)
                 (A) (A) (A) (A) (A) (A) (A) (A) (A) (A) (A) (A)
                 (A) (A) (A) (A) (A) (A) (A) (A) (A) (A) (A) (A)
                 (A)
 The electronic state is 1-A.
 Alpha  occ. eigenvalues -- -101.43759 -19.16174 -14.34641 -10.32000 -10.23887
 Alpha  occ. eigenvalues --  -10.18810  -9.35022  -7.10964  -7.10728  -7.10726
 Alpha  occ. eigenvalues --   -1.02194  -0.90604  -0.74767  -0.68486  -0.63119
 Alpha  occ. eigenvalues --   -0.47884  -0.43652  -0.43266  -0.39360  -0.37727
 Alpha  occ. eigenvalues --   -0.36502  -0.33166  -0.32339  -0.26295  -0.23171
 Alpha  occ. eigenvalues --   -0.22759  -0.22726
 Alpha virt. eigenvalues --   -0.10049   0.02004   0.02712   0.03817   0.05201
 Alpha virt. eigenvalues --    0.06172   0.06831   0.08637   0.09453   0.09648
 Alpha virt. eigenvalues --    0.09863   0.10912   0.11667   0.13221   0.13836
 Alpha virt. eigenvalues --    0.14746   0.15526   0.16467   0.18962   0.20612
 Alpha virt. eigenvalues --    0.23121   0.23916   0.24550   0.25727   0.26026
 Alpha virt. eigenvalues --    0.26969   0.29353   0.30449   0.33023   0.34186
 Alpha virt. eigenvalues --    0.35953   0.37132   0.40686   0.59567   0.64732
 Alpha virt. eigenvalues --    0.65996   0.67197   0.67343   0.69103   0.70436
 Alpha virt. eigenvalues --    0.73027   0.75213   0.79854   0.79898   0.81048
 Alpha virt. eigenvalues --    0.86689   0.87319   0.96004   0.96733   0.97751
 Alpha virt. eigenvalues --    0.98025   0.98695   0.98895   0.99312   1.01110
 Alpha virt. eigenvalues --    1.05247   1.09796   1.12910   1.13849   1.20682
 Alpha virt. eigenvalues --    1.25591   1.28640   1.30288   1.31839   1.41285
 Alpha virt. eigenvalues --    1.44914   1.53488   1.56617   1.57154   1.67429
 Alpha virt. eigenvalues --    1.69751   1.77163   1.77982   1.85942   1.88941
 Alpha virt. eigenvalues --    1.93835   1.98256   2.03112   2.07980   2.13567
 Alpha virt. eigenvalues --    2.20697   2.25635   2.30211   2.41326   2.48012
 Alpha virt. eigenvalues --    2.68770   2.77299   2.81024   2.88150   3.00278
 Alpha virt. eigenvalues --    3.23405   4.10139   4.16663   4.31286   4.32914
 Alpha virt. eigenvalues --    4.38875   4.65924
          Condensed to atoms (all electrons):
               1          2          3          4          5          6
     1  C    5.999991   0.553600  -0.062770  -0.095916  -0.099641   0.041534
     2  O    0.553600   8.164016  -0.142343   0.008718   0.003770  -0.015264
     3  C   -0.062770  -0.142343   5.872333   0.376172   0.392345   0.364745
     4  H   -0.095916   0.008718   0.376172   0.467883  -0.019160  -0.029693
     5  H   -0.099641   0.003770   0.392345  -0.019160   0.459153  -0.022091
     6  H    0.041534  -0.015264   0.364745  -0.029693  -0.022091   0.449558
     7  Cl   0.191801  -0.022461  -0.084465   0.002644  -0.000683   0.000359
     8  C   -0.787279  -0.176611   0.000281   0.044716   0.041701  -0.053858
     9  N   -0.118812  -0.015741   0.020377  -0.001541  -0.000143  -0.000355
               7          8          9
     1  C    0.191801  -0.787279  -0.118812
     2  O   -0.022461  -0.176611  -0.015741
     3  C   -0.084465   0.000281   0.020377
     4  H    0.002644   0.044716  -0.001541
     5  H   -0.000683   0.041701  -0.000143
     6  H    0.000359  -0.053858  -0.000355
     7  Cl  17.779692  -0.064018  -0.008936
     8  C   -0.064018   6.134400   0.560964
     9  N   -0.008936   0.560964   7.109081
 Mulliken charges:
               1
     1  C    0.377491
     2  O   -0.357683
     3  C   -0.736675
     4  H    0.246177
     5  H    0.244749
     6  H    0.265064
     7  Cl  -0.793933
     8  C    0.299704
     9  N   -0.544894
 Sum of Mulliken charges =  -1.00000
 Mulliken charges with hydrogens summed into heavy atoms:
               1
     1  C    0.377491
     2  O   -0.357683
     3  C    0.019315
     7  Cl  -0.793933
     8  C    0.299704
     9  N   -0.544894
 Electronic spatial extent (au):  <R**2>=            959.9741
 Charge=             -1.0000 electrons
 Dipole moment (field-independent basis, Debye):
    X=             -6.2643    Y=             -3.8937    Z=             -2.7369  Tot=              7.8672
 Quadrupole moment (field-independent basis, Debye-Ang):
   XX=            -74.4037   YY=            -52.7502   ZZ=            -49.4215
   XY=              4.6799   XZ=              3.0063   YZ=              4.2823
 Traceless Quadrupole moment (field-independent basis, Debye-Ang):
   XX=            -15.5453   YY=              6.1083   ZZ=              9.4370
   XY=              4.6799   XZ=              3.0063   YZ=              4.2823
 Octapole moment (field-independent basis, Debye-Ang**2):
  XXX=            -52.8390  YYY=            -22.7138  ZZZ=             -5.0094  XYY=              9.1918
  XXY=            -25.0035  XXZ=              1.0845  XZZ=             -1.7291  YZZ=              0.2930
  YYZ=             -0.7271  XYZ=             -4.9845
 Hexadecapole moment (field-independent basis, Debye-Ang**3):
 XXXX=          -1034.1206 YYYY=           -356.3177 ZZZZ=           -187.6649 XXXY=             34.0370
 XXXZ=              0.2246 YYYX=             34.5510 YYYZ=              7.7780 ZZZX=              4.2970
 ZZZY=              4.5101 XXYY=           -236.6212 XXZZ=           -183.3802 YYZZ=            -90.0431
 XXYZ=              7.4722 YYXZ=             -1.1338 ZZXY=             -0.0397
 N-N= 2.283059542877D+02 E-N=-2.134111474602D+03  KE= 7.022440231560D+02
 No NMR shielding tensors so no spin-rotation constants.
 Leave Link  601 at Wed Jan  8 02:12:37 2020, MaxMem=  4294967296 cpu:              13.6 elap:               1.2
 (Enter /home/cwagen/sw/g16/g16/l701.exe)
 ... and contract with generalized density number  0.
 Compute integral first derivatives.
 D1PCM: PCM CHGder 1st derivatives, ID1Alg=3 FixD1E=F DoIter=F DoCFld=F I1PDM=0.
 GePol: Maximum number of non-zero 1st derivatives   =     411
 Leave Link  701 at Wed Jan  8 02:12:42 2020, MaxMem=  4294967296 cpu:              53.3 elap:               4.2
 (Enter /home/cwagen/sw/g16/g16/l702.exe)
 L702 exits ... SP integral derivatives will be done elsewhere.
 Leave Link  702 at Wed Jan  8 02:12:42 2020, MaxMem=  4294967296 cpu:               1.2 elap:               0.2
 (Enter /home/cwagen/sw/g16/g16/l703.exe)
 Integral derivatives from FoFJK, PRISM(SPDF).
 Compute integral first derivatives, UseDBF=F ICtDFT=           0.
 Calling FoFJK, ICntrl=      2127 FMM=F ISym2X=0 I1Cent= 0 IOpClX= 0 NMat=1 NMatS=1 NMatT=0.
 FoFJK:  IHMeth= 1 ICntrl=    2127 DoSepK=F KAlg= 0 I1Cent=           0 FoldK=F
 IRaf=         0 NMat=       1 IRICut=       1 DoRegI=T DoRafI=F ISym2E= 0 IDoP0=0 IntGTp=1.
 FoFCou: FMM=F IPFlag=           0 FMFlag=      100000 FMFlg1=         800
         NFxFlg=           0 DoJE=F BraDBF=F KetDBF=F FulRan=T
         wScrn=  0.000000 ICntrl=      2127 IOpCl=  0 I1Cent=           0 NGrid=           0
         NMat0=    1 NMatS0=      1 NMatT0=    0 NMatD0=    1 NMtDS0=    0 NMtDT0=    0
 Symmetry not used in FoFCou.
 Leave Link  703 at Wed Jan  8 02:12:44 2020, MaxMem=  4294967296 cpu:              31.7 elap:               2.4
 (Enter /home/cwagen/sw/g16/g16/l716.exe)
 Dipole        =-2.46458167D+00-1.53191190D+00-1.07676808D+00
 ***** Axes restored to original set *****
 -------------------------------------------------------------------
 Center     Atomic                   Forces (Hartrees/Bohr)
 Number     Number              X              Y              Z
 -------------------------------------------------------------------
      1        6           0.070419655   -0.089541988   -0.054617932
      2        8          -0.025819063    0.043071310    0.056955588
      3        6          -0.043260258    0.016621000    0.008049684
      4        1          -0.000972592    0.001185417   -0.002584499
      5        1           0.001309721   -0.003578586    0.003518503
      6        1           0.001768785    0.004642265   -0.004448563
      7       17           0.007517082   -0.009193795   -0.001852489
      8        6           0.000477218    0.042052243   -0.009911999
      9        7          -0.011440547   -0.005257866    0.004891707
 -------------------------------------------------------------------
 Cartesian Forces:  Max     0.089541988 RMS     0.031158027
 Leave Link  716 at Wed Jan  8 02:12:44 2020, MaxMem=  4294967296 cpu:               0.8 elap:               0.1
 (Enter /home/cwagen/sw/g16/g16/l103.exe)

 GradGradGradGradGradGradGradGradGradGradGradGradGradGradGradGradGradGrad
 Berny optimization.
 FormGI is forming the generalized inverse of G from B-inverse, IUseBI=4.
 Internal  Forces:  Max     0.065662327 RMS     0.021348332
 Search for a local minimum.
 Step number   1 out of a maximum of   41
 All quantities printed in internal units (Hartrees-Bohrs-Radians)
 RMS Force = .21960D-01 SwitMx=.10000D-02 MixMth= 1
 Mixed Optimization -- RFO/linear search
 Second derivative matrix not updated -- first step.
 ITU=  0
     Eigenvalues ---    0.00230   0.04746   0.04746   0.05330   0.05908
     Eigenvalues ---    0.07453   0.10176   0.16000   0.16000   0.16000
     Eigenvalues ---    0.25000   0.25000   0.25000   0.26946   0.33918
     Eigenvalues ---    0.33999   0.34275   0.67840   1.220341000.00000
     Eigenvalues --- 1000.000001000.000001000.000001000.000001000.00000
     Eigenvalues --- 1000.000001000.000001000.000001000.000001000.00000
     Eigenvalues --- 1000.00000
 RFO step:  Lambda=-5.26916001D-02 EMin= 2.30000000D-03
 Linear search not attempted -- first point.
 Maximum step size (   0.300) exceeded in Quadratic search.
    -- Step size scaled by   0.771
 Iteration  1 RMS(Cart)=  0.10263062 RMS(Int)=  0.00843438
 Iteration  2 RMS(Cart)=  0.00820258 RMS(Int)=  0.00606943
 Iteration  3 RMS(Cart)=  0.00001481 RMS(Int)=  0.00606942
 Iteration  4 RMS(Cart)=  0.00000006 RMS(Int)=  0.00606942
 Iteration  1 RMS(Cart)=  0.00000000 RMS(Int)=  0.00000000
 ITry= 1 IFail=0 DXMaxC= 2.65D-01 DCOld= 1.00D+10 DXMaxT= 3.00D-01 DXLimC= 3.00D+00 Rises=F
 Variable       Old X    -DE/DX   Delta X   Delta X   Delta X     New X
                                 (Linear)    (Quad)   (Total)
    R1        2.45227  -0.06566   0.00000  -0.06923  -0.06923   2.38305
    R2        2.94503  -0.00734   0.00000  -0.01755  -0.01755   2.92748
    R3        5.66918  -0.01195   0.00000   0.00000   0.00000   5.66918
    R4        2.83459   0.00099   0.00000   0.00000   0.00000   2.83459
    R5        2.07331  -0.00224   0.00000  -0.00439  -0.00439   2.06892
    R6        2.07468  -0.00017   0.00000  -0.00034  -0.00034   2.07435
    R7        2.06868  -0.00152   0.00000  -0.00297  -0.00297   2.06571
    R8        2.20923  -0.01224   0.00000  -0.00741  -0.00741   2.20182
    A1        1.99667   0.03537   0.00000   0.09443   0.08133   2.07800
    A2        2.01908  -0.02047   0.00000  -0.09276  -0.09095   1.92813
    A3        1.89239  -0.00971   0.00000   0.05463   0.03275   1.92514
    A4        1.92419  -0.02826   0.00000  -0.10714  -0.10277   1.82142
    A5        1.77194   0.05745   0.00000   0.17627   0.16365   1.93559
    A6        1.83479  -0.02909   0.00000  -0.09943  -0.09171   1.74308
    A7        1.97398  -0.00235   0.00000  -0.00915  -0.00943   1.96455
    A8        1.87942   0.00971   0.00000   0.03857   0.03874   1.91816
    A9        1.90140  -0.01012   0.00000  -0.03948  -0.03952   1.86188
   A10        1.90356  -0.00234   0.00000  -0.00339  -0.00346   1.90011
   A11        1.90837   0.00471   0.00000   0.01100   0.01051   1.91888
   A12        1.89554   0.00052   0.00000   0.00319   0.00365   1.89919
   A13        3.10055  -0.00780   0.00000  -0.06005  -0.06005   3.04049
   A14        2.92496   0.00848   0.00000   0.06525   0.06525   2.99021
    D1        3.04510   0.01985   0.00000   0.11489   0.12035  -3.11773
    D2       -1.13357   0.02211   0.00000   0.13132   0.13682  -0.99675
    D3        0.91915   0.02265   0.00000   0.13518   0.14027   1.05942
    D4       -0.92685  -0.00395   0.00000  -0.03328  -0.03135  -0.95820
    D5        1.17766  -0.00170   0.00000  -0.01684  -0.01488   1.16279
    D6       -3.05280  -0.00116   0.00000  -0.01298  -0.01143  -3.06423
    D7        1.01121  -0.01966   0.00000  -0.10027  -0.10731   0.90390
    D8        3.11572  -0.01740   0.00000  -0.08383  -0.09085   3.02488
    D9       -1.11475  -0.01686   0.00000  -0.07997  -0.08739  -1.20214
         Item               Value     Threshold  Converged?
 Maximum Force            0.065662     0.000450     NO 
 RMS     Force            0.021960     0.000300     NO 
 Maximum Displacement     0.265175     0.001800     NO 
 RMS     Displacement     0.099748     0.001200     NO 
 Predicted change in Energy=-3.000726D-02
 Lowest energy point so far.  Saving SCF results.
 GradGradGradGradGradGradGradGradGradGradGradGradGradGradGradGradGradGrad

 Leave Link  103 at Wed Jan  8 02:12:48 2020, MaxMem=  4294967296 cpu:              52.7 elap:               4.1
 (Enter /home/cwagen/sw/g16/g16/l202.exe)
                          Input orientation:                          
 ---------------------------------------------------------------------
 Center     Atomic      Atomic             Coordinates (Angstroms)
 Number     Number       Type             X           Y           Z
 ---------------------------------------------------------------------
      1          6           0       -0.103595   -0.374501   -0.228014
      2          8           0       -0.259297   -0.644224   -1.450006
      3          6           0       -0.373947   -1.476881    0.826283
      4          1           0       -0.229502   -1.121786    1.851803
      5          1           0       -1.400728   -1.850575    0.721321
      6          1           0        0.321677   -2.292608    0.612694
      7         17           0       -1.898448    1.887995    0.584152
      8          6           0        1.234381    0.265018   -0.002547
      9          7           0        2.341868    0.615604    0.087700
 ---------------------------------------------------------------------
                    Distance matrix (angstroms):
                    1          2          3          4          5
     1  C    0.000000
     2  O    1.261054   0.000000
     3  C    1.549153   2.426511   0.000000
     4  H    2.213578   3.336300   1.094828   0.000000
     5  H    2.182335   2.733644   1.097699   1.783505   0.000000
     6  H    2.137003   2.703596   1.093126   1.791651   1.781537
     7  Cl   3.000000   3.638235   3.702043   3.667574   3.774049
     8  C    1.500000   2.270008   2.511552   2.739488   3.455940
     9  N    2.657118   3.273801   3.507086   3.569668   4.526648
                    6          7          8          9
     6  H    0.000000
     7  Cl   4.733626   0.000000
     8  C    2.784421   3.576715   0.000000
     9  N    3.579732   4.454854   1.165154   0.000000
 Stoichiometry    C3H3ClNO(1-)
 Framework group  C1[X(C3H3ClNO)]
 Deg. of freedom    21
 Full point group                 C1      NOp   1
 RotChk:  IX=0 Diff= 7.23D-02
 Largest Abelian subgroup         C1      NOp   1
 Largest concise Abelian subgroup C1      NOp   1
                         Standard orientation:                         
 ---------------------------------------------------------------------
 Center     Atomic      Atomic             Coordinates (Angstroms)
 Number     Number       Type             X           Y           Z
 ---------------------------------------------------------------------
      1          6           0       -0.602238   -0.452834    0.211611
      2          8           0       -0.864533   -0.805693    1.393537
      3          6           0       -0.842402   -1.456133   -0.944067
      4          1           0       -0.557423   -1.049141   -1.919665
      5          1           0       -0.273154   -2.377192   -0.763653
      6          1           0       -1.909334   -1.693876   -0.936474
      7         17           0        2.291772    0.295669   -0.042253
      8          6           0       -1.237874    0.872109   -0.089207
      9          7           0       -1.886980    1.822931   -0.268603
 ---------------------------------------------------------------------
 Rotational constants (GHZ):           3.2644564           1.5377900           1.3039539
 Leave Link  202 at Wed Jan  8 02:12:48 2020, MaxMem=  4294967296 cpu:               1.2 elap:               0.1
 (Enter /home/cwagen/sw/g16/g16/l301.exe)
 Standard basis: 6-31+G(d) (6D, 7F)
 Ernie: Thresh=  0.10000D-02 Tol=  0.10000D-05 Strict=F.
 There are   124 symmetry adapted cartesian basis functions of A   symmetry.
 There are   124 symmetry adapted basis functions of A   symmetry.
   124 basis functions,   228 primitive gaussians,   124 cartesian basis functions
    27 alpha electrons       27 beta electrons
       nuclear repulsion energy       229.9812760231 Hartrees.
 IExCor=  402 DFT=T Ex+Corr=B3LYP ExCW=0 ScaHFX=  0.200000
 ScaDFX=  0.800000  0.720000  1.000000  0.810000 ScalE2=  1.000000  1.000000
 IRadAn=      5 IRanWt=     -1 IRanGd=            0 ICorTp=0 IEmpDi=  4
 NAtoms=    9 NActive=    9 NUniq=    9 SFac= 1.00D+00 NAtFMM=   60 NAOKFM=F Big=F
 Integral buffers will be    131072 words long.
 Raffenetti 2 integral format.
 Two-electron integral symmetry is turned on.
 ------------------------------------------------------------------------------
 Polarizable Continuum Model (PCM)
 =================================
 Model                : PCM.
 Atomic radii         : SMD-Coulomb.
 Polarization charges : Total charges.
 Charge compensation  : None.
 Solution method      : On-the-fly selection.
 Cavity type          : VdW (van der Waals Surface) (Alpha=1.000).
 Cavity algorithm     : GePol (No added spheres)
                        Default sphere list used, NSphG=    9.
                        Lebedev-Laikov grids with approx.  5.0 points / Ang**2.
                        Smoothing algorithm: York/Karplus (Gamma=1.0000).
                        Polarization charges: spherical gaussians, with
                                              point-specific exponents (IZeta= 3).
                        Self-potential: point-specific (ISelfS= 7).
                        Self-field    : sphere-specific E.n sum rule (ISelfD= 2).
 1st derivatives      : Analytical E(r).r(x)/FMM algorithm (CHGder, D1EAlg=3).
                        Cavity 1st derivative terms included.
 Solvent              : TetraHydroFuran, Eps=   7.425700 Eps(inf)=   1.974025
 ------------------------------------------------------------------------------
 Spheres list:
 ISph  on   Nord     Re0    Alpha      Xe            Ye            Ze
    1   C      1    1.8500  1.000     -0.602238     -0.452834      0.211611
    2   O      2    2.2940  1.000     -0.864533     -0.805693      1.393537
    3   C      3    1.8500  1.000     -0.842402     -1.456133     -0.944067
    4   H      4    1.2000  1.000     -0.557423     -1.049141     -1.919665
    5   H      5    1.2000  1.000     -0.273154     -2.377192     -0.763653
    6   H      6    1.2000  1.000     -1.909334     -1.693876     -0.936474
    7  Cl      7    2.3800  1.000      2.291772      0.295669     -0.042253
    8   C      8    1.8500  1.000     -1.237874      0.872109     -0.089207
    9   N      9    1.8900  1.000     -1.886980      1.822931     -0.268603
 ------------------------------------------------------------------------------
 GePol: Number of generator spheres                  =       9
 GePol: Total number of spheres                      =       9
 GePol: Number of exposed spheres                    =       9 (100.00%)
 GePol: Number of points                             =    1242
 GePol: Average weight of points                     =       0.14
 GePol: Minimum weight of points                     =   0.45D-08
 GePol: Maximum weight of points                     =    0.18138
 GePol: Number of points with low weight             =      33
 GePol: Fraction of low-weight points (<1% of avg)   =       2.66%
 GePol: Cavity surface area                          =    170.202 Ang**2
 GePol: Cavity volume                                =    152.845 Ang**3
 ------------------------------------------------------------------------------
 Atomic radii for non-electrostatic terms: SMD-CDS.
 ------------------------------------------------------------------------------
 PCM non-electrostatic energy =        -0.0014601081 Hartrees.
 Nuclear repulsion after PCM non-electrostatic terms =      229.9798159150 Hartrees.
 Leave Link  301 at Wed Jan  8 02:12:49 2020, MaxMem=  4294967296 cpu:               1.9 elap:               0.2
 (Enter /home/cwagen/sw/g16/g16/l302.exe)
 NPDir=0 NMtPBC=     1 NCelOv=     1 NCel=       1 NClECP=     1 NCelD=      1
         NCelK=      1 NCelE2=     1 NClLst=     1 CellRange=     0.0.
 One-electron integrals computed using PRISM.
 One-electron integral symmetry used in STVInt
 NBasis=   124 RedAO= T EigKep=  5.55D-05  NBF=   124
 NBsUse=   124 1.00D-06 EigRej= -1.00D+00 NBFU=   124
 Precomputing XC quadrature grid using
 IXCGrd= 4 IRadAn=           5 IRanWt=          -1 IRanGd=           0 AccXCQ= 0.00D+00.
 Generated NRdTot=       0 NPtTot=           0 NUsed=           0 NTot=          32
 NSgBfM=   123   123   123   123   123 MxSgAt=     9 MxSgA2=     9.
 Leave Link  302 at Wed Jan  8 02:12:51 2020, MaxMem=  4294967296 cpu:              23.2 elap:               1.8
 (Enter /home/cwagen/sw/g16/g16/l303.exe)
 DipDrv:  MaxL=1.
 Leave Link  303 at Wed Jan  8 02:12:51 2020, MaxMem=  4294967296 cpu:               3.0 elap:               0.3
 (Enter /home/cwagen/sw/g16/g16/l401.exe)
 Initial guess from the checkpoint file:  "/scratch/users/cwagen/cwagen_scan_300_150/Gau-61471.chk"
 B after Tr=     0.000000    0.000000    0.000000
         Rot=    0.999851    0.014680    0.006084   -0.006695 Ang=   1.98 deg.
 Guess basis will be translated and rotated to current coordinates.
 JPrj=2 DoOrth=T DoCkMO=T.
 Generating alternative initial guess.
 ExpMin= 4.38D-02 ExpMax= 2.52D+04 ExpMxC= 3.78D+03 IAcc=2 IRadAn=         4 AccDes= 0.00D+00
 Harris functional with IExCor=  402 and IRadAn=       4 diagonalized for initial guess.
 HarFok:  IExCor=  402 AccDes= 0.00D+00 IRadAn=         4 IDoV= 1 UseB2=F ITyADJ=14
 ICtDFT=  3500011 ScaDFX=  1.000000  1.000000  1.000000  1.000000
 FoFCou: FMM=F IPFlag=           0 FMFlag=      100000 FMFlg1=           0
         NFxFlg=           0 DoJE=T BraDBF=F KetDBF=T FulRan=T
         wScrn=  0.000000 ICntrl=       500 IOpCl=  0 I1Cent=   200000004 NGrid=           0
         NMat0=    1 NMatS0=      1 NMatT0=    0 NMatD0=    1 NMtDS0=    0 NMtDT0=    0
 Petite list used in FoFCou.
 Harris En= -706.400948898256    
 Leave Link  401 at Wed Jan  8 02:12:54 2020, MaxMem=  4294967296 cpu:              40.2 elap:               3.3
 (Enter /home/cwagen/sw/g16/g16/l502.exe)
 Keep R1 ints in memory in canonical form, NReq=45236517.
 FoFCou: FMM=F IPFlag=           0 FMFlag=           0 FMFlg1=           0
         NFxFlg=           0 DoJE=F BraDBF=F KetDBF=F FulRan=T
         wScrn=  0.000000 ICntrl=       600 IOpCl=  0 I1Cent=           0 NGrid=           0
         NMat0=    1 NMatS0=   7750 NMatT0=    0 NMatD0=    1 NMtDS0=    0 NMtDT0=    0
 Symmetry not used in FoFCou.
 Two-electron integral symmetry not used.
 Closed shell SCF:
 Using DIIS extrapolation, IDIIS=  1040.
 NGot=  4294967296 LenX=  4264898079 LenY=  4264882262
 Requested convergence on RMS density matrix=1.00D-08 within 128 cycles.
 Requested convergence on MAX density matrix=1.00D-06.
 Requested convergence on             energy=1.00D-06.
 No special actions if energy rises.

 Cycle   1  Pass 1  IDiag  1:
 Inv3:  Mode=1 IEnd=     4627692.
 Iteration    1 A*A^-1 deviation from unit magnitude is 3.55D-15 for   1230.
 Iteration    1 A*A^-1 deviation from orthogonality  is 1.85D-15 for   1241    915.
 Iteration    1 A^-1*A deviation from unit magnitude is 4.00D-15 for   1230.
 Iteration    1 A^-1*A deviation from orthogonality  is 1.73D-15 for   1241    915.
 E= -706.410252147464    
 DIIS: error= 5.37D-03 at cycle   1 NSaved=   1.
 NSaved= 1 IEnMin= 1 EnMin= -706.410252147464     IErMin= 1 ErrMin= 5.37D-03
 ErrMax= 5.37D-03  0.00D+00 EMaxC= 1.00D-01 BMatC= 1.08D-02 BMatP= 1.08D-02
 IDIUse=3 WtCom= 9.46D-01 WtEn= 5.37D-02
 Coeff-Com:  0.100D+01
 Coeff-En:   0.100D+01
 Coeff:      0.100D+01
 Gap=     0.528 Goal=   None    Shift=    0.000
 GapD=    0.528 DampG=2.000 DampE=1.000 DampFc=2.0000 IDamp=-1.
 RMSDP=2.54D-03 MaxDP=4.39D-02              OVMax= 4.14D-02

 Cycle   2  Pass 1  IDiag  1:
 E= -706.428871009034     Delta-E=       -0.018618861570 Rises=F Damp=F
 DIIS: error= 1.16D-03 at cycle   2 NSaved=   2.
 NSaved= 2 IEnMin= 2 EnMin= -706.428871009034     IErMin= 2 ErrMin= 1.16D-03
 ErrMax= 1.16D-03  0.00D+00 EMaxC= 1.00D-01 BMatC= 4.59D-04 BMatP= 1.08D-02
 IDIUse=3 WtCom= 9.88D-01 WtEn= 1.16D-02
 Coeff-Com:  0.189D-02 0.998D+00
 Coeff-En:   0.000D+00 0.100D+01
 Coeff:      0.187D-02 0.998D+00
 Gap=     0.147 Goal=   None    Shift=    0.000
 RMSDP=5.97D-04 MaxDP=1.06D-02 DE=-1.86D-02 OVMax= 2.03D-02

 Cycle   3  Pass 1  IDiag  1:
 E= -706.428261907131     Delta-E=        0.000609101903 Rises=F Damp=F
 DIIS: error= 2.68D-03 at cycle   3 NSaved=   3.
 NSaved= 3 IEnMin= 2 EnMin= -706.428871009034     IErMin= 2 ErrMin= 1.16D-03
 ErrMax= 2.68D-03  0.00D+00 EMaxC= 1.00D-01 BMatC= 1.29D-03 BMatP= 4.59D-04
 IDIUse=3 WtCom= 1.62D-01 WtEn= 8.38D-01
 Coeff-Com: -0.362D-01 0.663D+00 0.373D+00
 Coeff-En:   0.000D+00 0.680D+00 0.320D+00
 Coeff:     -0.587D-02 0.677D+00 0.329D+00
 Gap=     0.141 Goal=   None    Shift=    0.000
 RMSDP=4.35D-04 MaxDP=1.62D-02 DE= 6.09D-04 OVMax= 1.33D-02

 Cycle   4  Pass 1  IDiag  1:
 E= -706.429381761462     Delta-E=       -0.001119854331 Rises=F Damp=F
 DIIS: error= 3.10D-04 at cycle   4 NSaved=   4.
 NSaved= 4 IEnMin= 4 EnMin= -706.429381761462     IErMin= 4 ErrMin= 3.10D-04
 ErrMax= 3.10D-04  0.00D+00 EMaxC= 1.00D-01 BMatC= 4.58D-05 BMatP= 4.59D-04
 IDIUse=3 WtCom= 9.97D-01 WtEn= 3.10D-03
 Coeff-Com: -0.230D-01 0.268D+00 0.189D+00 0.565D+00
 Coeff-En:   0.000D+00 0.000D+00 0.000D+00 0.100D+01
 Coeff:     -0.229D-01 0.267D+00 0.189D+00 0.567D+00
 Gap=     0.140 Goal=   None    Shift=    0.000
 RMSDP=1.08D-04 MaxDP=3.01D-03 DE=-1.12D-03 OVMax= 1.97D-03

 Cycle   5  Pass 1  IDiag  1:
 E= -706.429419543465     Delta-E=       -0.000037782004 Rises=F Damp=F
 DIIS: error= 9.99D-05 at cycle   5 NSaved=   5.
 NSaved= 5 IEnMin= 5 EnMin= -706.429419543465     IErMin= 5 ErrMin= 9.99D-05
 ErrMax= 9.99D-05  0.00D+00 EMaxC= 1.00D-01 BMatC= 4.29D-06 BMatP= 4.58D-05
 IDIUse=1 WtCom= 1.00D+00 WtEn= 0.00D+00
 Coeff-Com: -0.506D-02 0.460D-01 0.483D-01 0.265D+00 0.646D+00
 Coeff:     -0.506D-02 0.460D-01 0.483D-01 0.265D+00 0.646D+00
 Gap=     0.141 Goal=   None    Shift=    0.000
 RMSDP=7.25D-05 MaxDP=4.14D-03 DE=-3.78D-05 OVMax= 1.21D-03

 Cycle   6  Pass 1  IDiag  1:
 E= -706.429423925761     Delta-E=       -0.000004382296 Rises=F Damp=F
 DIIS: error= 3.89D-05 at cycle   6 NSaved=   6.
 NSaved= 6 IEnMin= 6 EnMin= -706.429423925761     IErMin= 6 ErrMin= 3.89D-05
 ErrMax= 3.89D-05  0.00D+00 EMaxC= 1.00D-01 BMatC= 3.76D-07 BMatP= 4.29D-06
 IDIUse=1 WtCom= 1.00D+00 WtEn= 0.00D+00
 Coeff-Com: -0.511D-03-0.384D-02 0.465D-02 0.739D-01 0.301D+00 0.624D+00
 Coeff:     -0.511D-03-0.384D-02 0.465D-02 0.739D-01 0.301D+00 0.624D+00
 Gap=     0.141 Goal=   None    Shift=    0.000
 RMSDP=1.95D-05 MaxDP=1.08D-03 DE=-4.38D-06 OVMax= 2.92D-04

 Cycle   7  Pass 1  IDiag  1:
 E= -706.429424268346     Delta-E=       -0.000000342585 Rises=F Damp=F
 DIIS: error= 1.57D-05 at cycle   7 NSaved=   7.
 NSaved= 7 IEnMin= 7 EnMin= -706.429424268346     IErMin= 7 ErrMin= 1.57D-05
 ErrMax= 1.57D-05  0.00D+00 EMaxC= 1.00D-01 BMatC= 9.73D-08 BMatP= 3.76D-07
 IDIUse=1 WtCom= 1.00D+00 WtEn= 0.00D+00
 Coeff-Com:  0.420D-03-0.941D-02-0.386D-02 0.125D-01 0.118D+00 0.391D+00
 Coeff-Com:  0.491D+00
 Coeff:      0.420D-03-0.941D-02-0.386D-02 0.125D-01 0.118D+00 0.391D+00
 Coeff:      0.491D+00
 Gap=     0.141 Goal=   None    Shift=    0.000
 RMSDP=3.38D-06 MaxDP=6.00D-05 DE=-3.43D-07 OVMax= 1.01D-04

 Cycle   8  Pass 1  IDiag  1:
 E= -706.429424341750     Delta-E=       -0.000000073404 Rises=F Damp=F
 DIIS: error= 6.19D-06 at cycle   8 NSaved=   8.
 NSaved= 8 IEnMin= 8 EnMin= -706.429424341750     IErMin= 8 ErrMin= 6.19D-06
 ErrMax= 6.19D-06  0.00D+00 EMaxC= 1.00D-01 BMatC= 1.84D-08 BMatP= 9.73D-08
 IDIUse=1 WtCom= 1.00D+00 WtEn= 0.00D+00
 Coeff-Com:  0.334D-03-0.594D-02-0.314D-02 0.166D-03 0.470D-01 0.184D+00
 Coeff-Com:  0.343D+00 0.435D+00
 Coeff:      0.334D-03-0.594D-02-0.314D-02 0.166D-03 0.470D-01 0.184D+00
 Coeff:      0.343D+00 0.435D+00
 Gap=     0.141 Goal=   None    Shift=    0.000
 RMSDP=1.46D-06 MaxDP=3.66D-05 DE=-7.34D-08 OVMax= 5.35D-05

 Cycle   9  Pass 1  IDiag  1:
 E= -706.429424358208     Delta-E=       -0.000000016457 Rises=F Damp=F
 DIIS: error= 1.88D-06 at cycle   9 NSaved=   9.
 NSaved= 9 IEnMin= 9 EnMin= -706.429424358208     IErMin= 9 ErrMin= 1.88D-06
 ErrMax= 1.88D-06  0.00D+00 EMaxC= 1.00D-01 BMatC= 7.47D-10 BMatP= 1.84D-08
 IDIUse=1 WtCom= 1.00D+00 WtEn= 0.00D+00
 Coeff-Com:  0.585D-04-0.699D-03-0.670D-03-0.243D-02-0.135D-02-0.981D-03
 Coeff-Com:  0.537D-01 0.188D+00 0.764D+00
 Coeff:      0.585D-04-0.699D-03-0.670D-03-0.243D-02-0.135D-02-0.981D-03
 Coeff:      0.537D-01 0.188D+00 0.764D+00
 Gap=     0.141 Goal=   None    Shift=    0.000
 RMSDP=4.97D-07 MaxDP=1.20D-05 DE=-1.65D-08 OVMax= 1.89D-05

 Cycle  10  Pass 1  IDiag  1:
 E= -706.429424359267     Delta-E=       -0.000000001060 Rises=F Damp=F
 DIIS: error= 3.33D-07 at cycle  10 NSaved=  10.
 NSaved=10 IEnMin=10 EnMin= -706.429424359267     IErMin=10 ErrMin= 3.33D-07
 ErrMax= 3.33D-07  0.00D+00 EMaxC= 1.00D-01 BMatC= 3.94D-11 BMatP= 7.47D-10
 IDIUse=1 WtCom= 1.00D+00 WtEn= 0.00D+00
 Coeff-Com: -0.263D-05 0.206D-03 0.141D-04-0.764D-03-0.346D-02-0.133D-01
 Coeff-Com: -0.836D-02 0.377D-01 0.262D+00 0.726D+00
 Coeff:     -0.263D-05 0.206D-03 0.141D-04-0.764D-03-0.346D-02-0.133D-01
 Coeff:     -0.836D-02 0.377D-01 0.262D+00 0.726D+00
 Gap=     0.141 Goal=   None    Shift=    0.000
 RMSDP=1.56D-07 MaxDP=5.94D-06 DE=-1.06D-09 OVMax= 5.79D-06

 Cycle  11  Pass 1  IDiag  1:
 E= -706.429424359330     Delta-E=       -0.000000000063 Rises=F Damp=F
 DIIS: error= 8.79D-08 at cycle  11 NSaved=  11.
 NSaved=11 IEnMin=11 EnMin= -706.429424359330     IErMin=11 ErrMin= 8.79D-08
 ErrMax= 8.79D-08  0.00D+00 EMaxC= 1.00D-01 BMatC= 2.22D-12 BMatP= 3.94D-11
 IDIUse=1 WtCom= 1.00D+00 WtEn= 0.00D+00
 Coeff-Com: -0.547D-05 0.113D-03 0.644D-04-0.334D-04-0.858D-03-0.343D-02
 Coeff-Com: -0.720D-02-0.511D-02 0.787D-02 0.175D+00 0.834D+00
 Coeff:     -0.547D-05 0.113D-03 0.644D-04-0.334D-04-0.858D-03-0.343D-02
 Coeff:     -0.720D-02-0.511D-02 0.787D-02 0.175D+00 0.834D+00
 Gap=     0.141 Goal=   None    Shift=    0.000
 RMSDP=5.22D-08 MaxDP=2.41D-06 DE=-6.29D-11 OVMax= 2.67D-06

 Cycle  12  Pass 1  IDiag  1:
 E= -706.429424359337     Delta-E=       -0.000000000007 Rises=F Damp=F
 DIIS: error= 2.74D-08 at cycle  12 NSaved=  12.
 NSaved=12 IEnMin=12 EnMin= -706.429424359337     IErMin=12 ErrMin= 2.74D-08
 ErrMax= 2.74D-08  0.00D+00 EMaxC= 1.00D-01 BMatC= 1.46D-13 BMatP= 2.22D-12
 IDIUse=1 WtCom= 1.00D+00 WtEn= 0.00D+00
 Coeff-Com: -0.231D-06-0.908D-05 0.540D-05 0.593D-04 0.233D-03 0.946D-03
 Coeff-Com: -0.456D-04-0.391D-02-0.223D-01-0.507D-01 0.112D+00 0.964D+00
 Coeff:     -0.231D-06-0.908D-05 0.540D-05 0.593D-04 0.233D-03 0.946D-03
 Coeff:     -0.456D-04-0.391D-02-0.223D-01-0.507D-01 0.112D+00 0.964D+00
 Gap=     0.141 Goal=   None    Shift=    0.000
 RMSDP=1.70D-08 MaxDP=5.70D-07 DE=-7.28D-12 OVMax= 9.24D-07

 Cycle  13  Pass 1  IDiag  1:
 E= -706.429424359339     Delta-E=       -0.000000000001 Rises=F Damp=F
 DIIS: error= 7.61D-09 at cycle  13 NSaved=  13.
 NSaved=13 IEnMin=13 EnMin= -706.429424359339     IErMin=13 ErrMin= 7.61D-09
 ErrMax= 7.61D-09  0.00D+00 EMaxC= 1.00D-01 BMatC= 1.67D-14 BMatP= 1.46D-13
 IDIUse=1 WtCom= 1.00D+00 WtEn= 0.00D+00
 Coeff-Com:  0.120D-06-0.780D-05-0.120D-05 0.219D-04 0.112D-03 0.465D-03
 Coeff-Com:  0.289D-03-0.119D-02-0.829D-02-0.261D-01 0.640D-02 0.356D+00
 Coeff-Com:  0.672D+00
 Coeff:      0.120D-06-0.780D-05-0.120D-05 0.219D-04 0.112D-03 0.465D-03
 Coeff:      0.289D-03-0.119D-02-0.829D-02-0.261D-01 0.640D-02 0.356D+00
 Coeff:      0.672D+00
 Gap=     0.141 Goal=   None    Shift=    0.000
 RMSDP=2.32D-09 MaxDP=5.95D-08 DE=-1.25D-12 OVMax= 1.24D-07

 Error on total polarization charges =  0.02360
 SCF Done:  E(RB3LYP) =  -706.429424359     A.U. after   13 cycles
            NFock= 13  Conv=0.23D-08     -V/T= 2.0058
 KE= 7.023262695173D+02 PE=-2.137618852349D+03 EE= 4.988833425572D+02
 SMD-CDS (non-electrostatic) energy       (kcal/mol) =      -0.92
 (included in total energy above)
 Leave Link  502 at Wed Jan  8 02:13:30 2020, MaxMem=  4294967296 cpu:             473.5 elap:              35.6
 (Enter /home/cwagen/sw/g16/g16/l701.exe)
 ... and contract with generalized density number  0.
 Compute integral first derivatives.
 D1PCM: PCM CHGder 1st derivatives, ID1Alg=3 FixD1E=F DoIter=F DoCFld=F I1PDM=0.
 GePol: Maximum number of non-zero 1st derivatives   =     400
 Leave Link  701 at Wed Jan  8 02:13:34 2020, MaxMem=  4294967296 cpu:              49.3 elap:               4.2
 (Enter /home/cwagen/sw/g16/g16/l702.exe)
 L702 exits ... SP integral derivatives will be done elsewhere.
 Leave Link  702 at Wed Jan  8 02:13:34 2020, MaxMem=  4294967296 cpu:               0.9 elap:               0.2
 (Enter /home/cwagen/sw/g16/g16/l703.exe)
 Integral derivatives from FoFJK, PRISM(SPDF).
 Compute integral first derivatives, UseDBF=F ICtDFT=           0.
 Calling FoFJK, ICntrl=      2127 FMM=F ISym2X=0 I1Cent= 0 IOpClX= 0 NMat=1 NMatS=1 NMatT=0.
 FoFJK:  IHMeth= 1 ICntrl=    2127 DoSepK=F KAlg= 0 I1Cent=           0 FoldK=F
 IRaf=         0 NMat=       1 IRICut=       1 DoRegI=T DoRafI=F ISym2E= 0 IDoP0=0 IntGTp=1.
 FoFCou: FMM=F IPFlag=           0 FMFlag=      100000 FMFlg1=         800
         NFxFlg=           0 DoJE=F BraDBF=F KetDBF=F FulRan=T
         wScrn=  0.000000 ICntrl=      2127 IOpCl=  0 I1Cent=           0 NGrid=           0
         NMat0=    1 NMatS0=      1 NMatT0=    0 NMatD0=    1 NMtDS0=    0 NMtDT0=    0
 Symmetry not used in FoFCou.
 Leave Link  703 at Wed Jan  8 02:13:37 2020, MaxMem=  4294967296 cpu:              31.9 elap:               2.5
 (Enter /home/cwagen/sw/g16/g16/l716.exe)
 Dipole        =-2.69097007D+00-1.72697881D+00-1.03594026D+00
 ***** Axes restored to original set *****
 -------------------------------------------------------------------
 Center     Atomic                   Forces (Hartrees/Bohr)
 Number     Number              X              Y              Z
 -------------------------------------------------------------------
      1        6           0.044429981   -0.060259821   -0.042793539
      2        8          -0.018237903    0.023578245    0.038109482
      3        6          -0.022801756    0.023231703    0.001582206
      4        1           0.000668771    0.000224009   -0.001265125
      5        1           0.002078945    0.000271253   -0.000404123
      6        1           0.002787933    0.000948543   -0.001847490
      7       17           0.004891614   -0.005369510   -0.000594120
      8        6          -0.008340487    0.018827734    0.007121017
      9        7          -0.005477098   -0.001452157    0.000091693
 -------------------------------------------------------------------
 Cartesian Forces:  Max     0.060259821 RMS     0.020564538
 Leave Link  716 at Wed Jan  8 02:13:37 2020, MaxMem=  4294967296 cpu:               0.7 elap:               0.1
 (Enter /home/cwagen/sw/g16/g16/l103.exe)

 GradGradGradGradGradGradGradGradGradGradGradGradGradGradGradGradGradGrad
 Berny optimization.
 Using GEDIIS/GDIIS optimizer.
 FormGI is forming the generalized inverse of G from B-inverse, IUseBI=4.
 Internal  Forces:  Max     0.039723914 RMS     0.011964987
 Search for a local minimum.
 Step number   2 out of a maximum of   41
 All quantities printed in internal units (Hartrees-Bohrs-Radians)
 RMS Force = .12279D-01 SwitMx=.10000D-02 MixMth= 1
 Mixed Optimization -- RFO/linear search
 Update second derivatives using D2CorX and points    1    2
 DE= -3.08D-02 DEPred=-3.00D-02 R= 1.03D+00
 TightC=F SS=  1.41D+00  RLast= 4.00D-01 DXNew= 5.0454D-01 1.1987D+00
 Trust test= 1.03D+00 RLast= 4.00D-01 DXMaxT set to 5.05D-01
 ITU=  1  0
 Use linear search instead of GDIIS.
     Eigenvalues ---    0.00230   0.04603   0.04750   0.05376   0.05928
     Eigenvalues ---    0.06092   0.09315   0.15940   0.16000   0.16251
     Eigenvalues ---    0.24671   0.25000   0.25391   0.32048   0.33980
     Eigenvalues ---    0.34016   0.34533   0.60890   1.218891000.00000
     Eigenvalues --- 1000.000001000.000001000.000001000.000001000.00000
     Eigenvalues --- 1000.000001000.000001000.000001000.000001000.00000
     Eigenvalues --- 1000.00000
 RFO step:  Lambda=-1.60348956D-02 EMin= 2.30165695D-03
 Quartic linear search produced a step of  1.16358.
 Iteration  1 RMS(Cart)=  0.14695495 RMS(Int)=  0.02875177
 Iteration  2 RMS(Cart)=  0.02272678 RMS(Int)=  0.02096023
 Iteration  3 RMS(Cart)=  0.00086606 RMS(Int)=  0.02095198
 Iteration  4 RMS(Cart)=  0.00003774 RMS(Int)=  0.02095196
 Iteration  5 RMS(Cart)=  0.00000172 RMS(Int)=  0.02095196
 Iteration  6 RMS(Cart)=  0.00000008 RMS(Int)=  0.02095196
 Iteration  1 RMS(Cart)=  0.00000000 RMS(Int)=  0.00000000
 ITry= 1 IFail=0 DXMaxC= 3.90D-01 DCOld= 1.00D+10 DXMaxT= 5.05D-01 DXLimC= 3.00D+00 Rises=F
 Variable       Old X    -DE/DX   Delta X   Delta X   Delta X     New X
                                 (Linear)    (Quad)   (Total)
    R1        2.38305  -0.03972  -0.08055  -0.03440  -0.11495   2.26810
    R2        2.92748  -0.01587  -0.02043  -0.09552  -0.11594   2.81153
    R3        5.66918  -0.00713   0.00000   0.00000   0.00000   5.66918
    R4        2.83459  -0.00381   0.00000   0.00000   0.00000   2.83459
    R5        2.06892  -0.00104  -0.00511  -0.00026  -0.00536   2.06356
    R6        2.07435  -0.00200  -0.00039  -0.01173  -0.01212   2.06223
    R7        2.06571   0.00140  -0.00346   0.01258   0.00912   2.07483
    R8        2.20182  -0.00564  -0.00862  -0.00058  -0.00920   2.19262
    A1        2.07800   0.01504   0.09463   0.03794   0.07247   2.15046
    A2        1.92813  -0.00902  -0.10583  -0.03421  -0.12971   1.79842
    A3        1.92514   0.00099   0.03811   0.15369   0.12469   2.04983
    A4        1.82142  -0.01595  -0.11958  -0.08013  -0.18384   1.63758
    A5        1.93559   0.01529   0.19042  -0.03921   0.08989   2.02548
    A6        1.74308  -0.01299  -0.10671  -0.07441  -0.15869   1.58439
    A7        1.96455  -0.00045  -0.01097   0.00947  -0.00201   1.96254
    A8        1.91816   0.00087   0.04507  -0.04449   0.00067   1.91883
    A9        1.86188  -0.00446  -0.04599   0.00092  -0.04541   1.81646
   A10        1.90011   0.00082  -0.00402   0.02572   0.02158   1.92169
   A11        1.91888   0.00155   0.01223  -0.00612   0.00508   1.92396
   A12        1.89919   0.00170   0.00424   0.01398   0.01860   1.91779
   A13        3.04049   0.00020  -0.06988   0.13763   0.06776   3.10825
   A14        2.99021   0.00109   0.07592  -0.10520  -0.02928   2.96093
    D1       -3.11773   0.01501   0.14004   0.10595   0.25585  -2.86189
    D2       -0.99675   0.01637   0.15920   0.11371   0.28265  -0.71410
    D3        1.05942   0.01631   0.16321   0.10728   0.27971   1.33912
    D4       -0.95820  -0.00017  -0.03647   0.01895  -0.01338  -0.97157
    D5        1.16279   0.00119  -0.01731   0.02671   0.01343   1.17622
    D6       -3.06423   0.00114  -0.01330   0.02028   0.01049  -3.05375
    D7        0.90390  -0.01668  -0.12487  -0.11868  -0.25679   0.64710
    D8        3.02488  -0.01531  -0.10571  -0.11092  -0.22999   2.79489
    D9       -1.20214  -0.01537  -0.10169  -0.11735  -0.23293  -1.43507
         Item               Value     Threshold  Converged?
 Maximum Force            0.039724     0.000450     NO 
 RMS     Force            0.012279     0.000300     NO 
 Maximum Displacement     0.390218     0.001800     NO 
 RMS     Displacement     0.156956     0.001200     NO 
 Predicted change in Energy=-2.530890D-02
 Lowest energy point so far.  Saving SCF results.
 GradGradGradGradGradGradGradGradGradGradGradGradGradGradGradGradGradGrad

 Leave Link  103 at Wed Jan  8 02:13:42 2020, MaxMem=  4294967296 cpu:              63.1 elap:               4.9
 (Enter /home/cwagen/sw/g16/g16/l202.exe)
                          Input orientation:                          
 ---------------------------------------------------------------------
 Center     Atomic      Atomic             Coordinates (Angstroms)
 Number     Number       Type             X           Y           Z
 ---------------------------------------------------------------------
      1          6           0        0.022930   -0.539771   -0.279808
      2          8           0       -0.306703   -0.675417   -1.425881
      3          6           0       -0.405195   -1.462443    0.805978
      4          1           0       -0.248667   -1.037852    1.799789
      5          1           0       -1.454609   -1.731111    0.673872
      6          1           0        0.227473   -2.349098    0.667876
      7         17           0       -1.725267    1.707277    0.666017
      8          6           0        1.252607    0.274360   -0.005789
      9          7           0        2.269842    0.822098    0.101331
 ---------------------------------------------------------------------
                    Distance matrix (angstroms):
                    1          2          3          4          5
     1  C    0.000000
     2  O    1.200225   0.000000
     3  C    1.487800   2.368608   0.000000
     4  H    2.155592   3.246486   1.091989   0.000000
     5  H    2.124128   2.615557   1.091285   1.789579   0.000000
     6  H    2.052707   2.733197   1.097952   1.796470   1.792022
     7  Cl   3.000000   3.473556   3.436466   3.316853   3.449033
     8  C    1.500000   2.313046   2.534514   2.689951   3.436986
     9  N    2.654913   3.348658   3.587685   3.561890   4.551727
                    6          7          8          9
     6  H    0.000000
     7  Cl   4.501930   0.000000
     8  C    2.896076   3.372285   0.000000
     9  N    3.814280   4.130775   1.160284   0.000000
 Stoichiometry    C3H3ClNO(1-)
 Framework group  C1[X(C3H3ClNO)]
 Deg. of freedom    21
 Full point group                 C1      NOp   1
 RotChk:  IX=0 Diff= 1.03D-01
 Largest Abelian subgroup         C1      NOp   1
 Largest concise Abelian subgroup C1      NOp   1
                         Standard orientation:                         
 ---------------------------------------------------------------------
 Center     Atomic      Atomic             Coordinates (Angstroms)
 Number     Number       Type             X           Y           Z
 ---------------------------------------------------------------------
      1          6           0       -0.749688   -0.524171    0.194055
      2          8           0       -0.841934   -0.918909    1.323751
      3          6           0       -0.669116   -1.431571   -0.982245
      4          1           0       -0.314043   -0.920450   -1.879529
      5          1           0       -0.022875   -2.280711   -0.753694
      6          1           0       -1.701808   -1.776060   -1.124978
      7         17           0        2.125612    0.309715    0.000973
      8          6           0       -1.196980    0.879844   -0.086431
      9          7           0       -1.666644    1.931245   -0.228661
 ---------------------------------------------------------------------
 Rotational constants (GHZ):           3.1325518           1.7660435           1.4189322
 Leave Link  202 at Wed Jan  8 02:13:42 2020, MaxMem=  4294967296 cpu:               1.5 elap:               0.2
 (Enter /home/cwagen/sw/g16/g16/l301.exe)
 Standard basis: 6-31+G(d) (6D, 7F)
 Ernie: Thresh=  0.10000D-02 Tol=  0.10000D-05 Strict=F.
 There are   124 symmetry adapted cartesian basis functions of A   symmetry.
 There are   124 symmetry adapted basis functions of A   symmetry.
   124 basis functions,   228 primitive gaussians,   124 cartesian basis functions
    27 alpha electrons       27 beta electrons
       nuclear repulsion energy       236.0530326513 Hartrees.
 IExCor=  402 DFT=T Ex+Corr=B3LYP ExCW=0 ScaHFX=  0.200000
 ScaDFX=  0.800000  0.720000  1.000000  0.810000 ScalE2=  1.000000  1.000000
 IRadAn=      5 IRanWt=     -1 IRanGd=            0 ICorTp=0 IEmpDi=  4
 NAtoms=    9 NActive=    9 NUniq=    9 SFac= 1.00D+00 NAtFMM=   60 NAOKFM=F Big=F
 Integral buffers will be    131072 words long.
 Raffenetti 2 integral format.
 Two-electron integral symmetry is turned on.
 ------------------------------------------------------------------------------
 Polarizable Continuum Model (PCM)
 =================================
 Model                : PCM.
 Atomic radii         : SMD-Coulomb.
 Polarization charges : Total charges.
 Charge compensation  : None.
 Solution method      : On-the-fly selection.
 Cavity type          : VdW (van der Waals Surface) (Alpha=1.000).
 Cavity algorithm     : GePol (No added spheres)
                        Default sphere list used, NSphG=    9.
                        Lebedev-Laikov grids with approx.  5.0 points / Ang**2.
                        Smoothing algorithm: York/Karplus (Gamma=1.0000).
                        Polarization charges: spherical gaussians, with
                                              point-specific exponents (IZeta= 3).
                        Self-potential: point-specific (ISelfS= 7).
                        Self-field    : sphere-specific E.n sum rule (ISelfD= 2).
 1st derivatives      : Analytical E(r).r(x)/FMM algorithm (CHGder, D1EAlg=3).
                        Cavity 1st derivative terms included.
 Solvent              : TetraHydroFuran, Eps=   7.425700 Eps(inf)=   1.974025
 ------------------------------------------------------------------------------
 Spheres list:
 ISph  on   Nord     Re0    Alpha      Xe            Ye            Ze
    1   C      1    1.8500  1.000     -0.749688     -0.524171      0.194055
    2   O      2    2.2940  1.000     -0.841934     -0.918909      1.323751
    3   C      3    1.8500  1.000     -0.669116     -1.431571     -0.982245
    4   H      4    1.2000  1.000     -0.314043     -0.920450     -1.879529
    5   H      5    1.2000  1.000     -0.022875     -2.280711     -0.753694
    6   H      6    1.2000  1.000     -1.701808     -1.776060     -1.124978
    7  Cl      7    2.3800  1.000      2.125612      0.309715      0.000973
    8   C      8    1.8500  1.000     -1.196980      0.879844     -0.086431
    9   N      9    1.8900  1.000     -1.666644      1.931245     -0.228661
 ------------------------------------------------------------------------------
 GePol: Number of generator spheres                  =       9
 GePol: Total number of spheres                      =       9
 GePol: Number of exposed spheres                    =       9 (100.00%)
 GePol: Number of points                             =    1219
 GePol: Average weight of points                     =       0.14
 GePol: Minimum weight of points                     =   0.18D-08
 GePol: Maximum weight of points                     =    0.18138
 GePol: Number of points with low weight             =      28
 GePol: Fraction of low-weight points (<1% of avg)   =       2.30%
 GePol: Cavity surface area                          =    165.960 Ang**2
 GePol: Cavity volume                                =    150.729 Ang**3
 ------------------------------------------------------------------------------
 Atomic radii for non-electrostatic terms: SMD-CDS.
 ------------------------------------------------------------------------------
 PCM non-electrostatic energy =        -0.0015178141 Hartrees.
[...]
      4        1          -0.000008853    0.000047667    0.000008882
      5        1          -0.000000592   -0.000014195    0.000019465
      6        1          -0.000008554    0.000007990    0.000063978
      7       17          -0.000934326    0.001353958    0.000565811
      8        6          -0.002963930   -0.002254723   -0.000783120
      9        7          -0.000022531    0.000008420   -0.000009420
 -------------------------------------------------------------------
 Cartesian Forces:  Max     0.003863665 RMS     0.001109157
 Leave Link  716 at Wed Jan  8 02:19:57 2020, MaxMem=  4294967296 cpu:               1.2 elap:               0.1
 (Enter /home/cwagen/sw/g16/g16/l103.exe)

 GradGradGradGradGradGradGradGradGradGradGradGradGradGradGradGradGradGrad
 Berny optimization.
 Using GEDIIS/GDIIS optimizer.
 FormGI is forming the generalized inverse of G from B-inverse, IUseBI=4.
 Internal  Forces:  Max     0.003811173 RMS     0.000753876
 Search for a local minimum.
 Step number  10 out of a maximum of   41
 All quantities printed in internal units (Hartrees-Bohrs-Radians)
 RMS Force = .21478D-04 SwitMx=.10000D-02 MixMth= 2
 Mixed Optimization -- En-DIIS/RFO-DIIS
 Swapping is turned off.
 Update second derivatives using D2CorX and points    3    4    5    6    7
                                                      8    9   10
 DE= -6.08D-07 DEPred=-2.44D-07 R= 2.49D+00
 Trust test= 2.49D+00 RLast= 6.10D-03 DXMaxT set to 8.49D-01
 ITU=  0  1  1  1  1  1  1  1  1  0
     Eigenvalues ---    0.00223   0.02412   0.04865   0.05041   0.05439
     Eigenvalues ---    0.05913   0.06749   0.15545   0.16069   0.16489
     Eigenvalues ---    0.19290   0.25026   0.28076   0.31366   0.33977
     Eigenvalues ---    0.34040   0.34492   0.84970   1.223401000.00000
     Eigenvalues --- 1000.000001000.000001000.000001000.000001000.00000
     Eigenvalues --- 1000.000001000.000001000.000001000.000001000.00000
     Eigenvalues --- 1000.00000
 En-DIIS/RFO-DIIS/Sim-DIIS IScMMF=       -3 using points:    10    9    8    7    6    5
 RFO step:  Lambda=-6.86876967D-08.
 NNeg= 0 NGDIIS= 6 SimSw=  2.50D-01 Rises=F DC= -6.08D-07 SmlDif=  1.00D-05
 NRisDI= 0 DoIntr=F SqrtH=F CThrHd= 10.0 CDAdj=  3.0
 RMS Error=  0.1409519239D-03 NUsed= 6 OKEnD=F EnDIS=F
 InvSVX:  RCond= 1.04D-07 Info=           0 Equed=N FErr=  1.58D-13 BErr=  8.70D-17
 DidBck=F Rises=F RFO-DIIS coefs:    1.39920   -0.43074   -0.00053    0.01230    0.04476
                  RFO-DIIS coefs:   -0.02499
 Iteration  1 RMS(Cart)=  0.00033614 RMS(Int)=  0.00000033
 Iteration  2 RMS(Cart)=  0.00000005 RMS(Int)=  0.00000033
 Iteration  1 RMS(Cart)=  0.00000000 RMS(Int)=  0.00000000
 ITry= 1 IFail=0 DXMaxC= 8.71D-04 DCOld= 1.00D+10 DXMaxT= 8.49D-01 DXLimC= 3.00D+00 Rises=F
 Variable       Old X    -DE/DX   Delta X   Delta X   Delta X     New X
                                 (Linear)    (Quad)   (Total)
    R1        2.30025  -0.00008  -0.00017   0.00008  -0.00010   2.30015
    R2        2.83687  -0.00002  -0.00005  -0.00002  -0.00007   2.83681
    R3        5.66918   0.00175   0.00000   0.00000   0.00000   5.66918
    R4        2.83459  -0.00381   0.00000   0.00000   0.00000   2.83459
    R5        2.06196   0.00000   0.00000   0.00002   0.00002   2.06198
    R6        2.06497   0.00001   0.00002   0.00002   0.00004   2.06501
    R7        2.08005   0.00000  -0.00001   0.00000  -0.00001   2.08003
    R8        2.19729  -0.00001   0.00000  -0.00001  -0.00001   2.19728
    A1        2.18724   0.00000  -0.00003   0.00006   0.00003   2.18726
    A2        1.83471  -0.00003  -0.00002  -0.00009  -0.00011   1.83460
    A3        2.05816  -0.00001   0.00005  -0.00003   0.00001   2.05818
    A4        1.57875   0.00005   0.00014   0.00004   0.00017   1.57892
    A5        2.02173   0.00001   0.00001   0.00000   0.00001   2.02174
    A6        1.44597  -0.00003  -0.00029  -0.00009  -0.00038   1.44559
    A7        1.95264  -0.00002  -0.00003  -0.00006  -0.00009   1.95255
    A8        1.91278   0.00000   0.00003  -0.00004  -0.00001   1.91277
    A9        1.87474   0.00003   0.00016   0.00010   0.00026   1.87501
   A10        1.92712   0.00000   0.00004  -0.00004   0.00000   1.92712
   A11        1.89558   0.00000  -0.00003   0.00004   0.00001   1.89558
   A12        1.89948  -0.00002  -0.00017   0.00001  -0.00016   1.89932
   A13        3.08459   0.00000  -0.00003  -0.00002  -0.00005   3.08454
   A14        2.96846   0.00002   0.00042  -0.00012   0.00030   2.96876
    D1       -2.67406   0.00001  -0.00013   0.00013   0.00000  -2.67406
    D2       -0.53051   0.00000  -0.00009   0.00001  -0.00008  -0.53059
    D3        1.53043   0.00000  -0.00018   0.00006  -0.00012   1.53031
    D4       -0.77188   0.00001  -0.00006   0.00007   0.00000  -0.77188
    D5        1.37167   0.00000  -0.00002  -0.00006  -0.00007   1.37160
    D6       -2.85058   0.00000  -0.00011  -0.00001  -0.00012  -2.85069
    D7        0.66402  -0.00001  -0.00032  -0.00002  -0.00033   0.66368
    D8        2.80757  -0.00001  -0.00027  -0.00014  -0.00041   2.80716
    D9       -1.41468  -0.00001  -0.00036  -0.00009  -0.00045  -1.41513
         Item               Value     Threshold  Converged?
 Maximum Force            0.000080     0.000450     YES
 RMS     Force            0.000021     0.000300     YES
 Maximum Displacement     0.000871     0.001800     YES
 RMS     Displacement     0.000336     0.001200     YES
 Predicted change in Energy=-2.425540D-08
 Optimization completed.
    -- Stationary point found.
                           ----------------------------
                           !   Optimized Parameters   !
                           ! (Angstroms and Degrees)  !
 --------------------------                            --------------------------
 ! Name  Definition              Value          Derivative Info.                !
 --------------------------------------------------------------------------------
 ! R1    R(1,2)                  1.2172         -DE/DX =   -0.0001              !
 ! R2    R(1,3)                  1.5012         -DE/DX =    0.0                 !
 ! R3    R(1,7)                  3.0            -DE/DX =    0.0018              !
 ! R4    R(1,8)                  1.5            -DE/DX =   -0.0038              !
 ! R5    R(3,4)                  1.0911         -DE/DX =    0.0                 !
 ! R6    R(3,5)                  1.0927         -DE/DX =    0.0                 !
 ! R7    R(3,6)                  1.1007         -DE/DX =    0.0                 !
 ! R8    R(8,9)                  1.1628         -DE/DX =    0.0                 !
 ! A1    A(2,1,3)              125.3194         -DE/DX =    0.0                 !
 ! A2    A(2,1,7)              105.1212         -DE/DX =    0.0                 !
 ! A3    A(2,1,8)              117.924          -DE/DX =    0.0                 !
 ! A4    A(3,1,7)               90.4556         -DE/DX =    0.0                 !
 ! A5    A(3,1,8)              115.8364         -DE/DX =    0.0                 !
 ! A6    A(7,1,8)               82.8477         -DE/DX =    0.0                 !
 ! A7    A(1,3,4)              111.878          -DE/DX =    0.0                 !
 ! A8    A(1,3,5)              109.5944         -DE/DX =    0.0                 !
 ! A9    A(1,3,6)              107.4149         -DE/DX =    0.0                 !
 ! A10   A(4,3,5)              110.4157         -DE/DX =    0.0                 !
 ! A11   A(4,3,6)              108.6086         -DE/DX =    0.0                 !
 ! A12   A(5,3,6)              108.832          -DE/DX =    0.0                 !
 ! A13   L(1,8,9,6,-1)         176.734          -DE/DX =    0.0                 !
 ! A14   L(1,8,9,6,-2)         170.0802         -DE/DX =    0.0                 !
 ! D1    D(2,1,3,4)           -153.2125         -DE/DX =    0.0                 !
 ! D2    D(2,1,3,5)            -30.396          -DE/DX =    0.0                 !
 ! D3    D(2,1,3,6)             87.6872         -DE/DX =    0.0                 !
 ! D4    D(7,1,3,4)            -44.2257         -DE/DX =    0.0                 !
 ! D5    D(7,1,3,5)             78.5909         -DE/DX =    0.0                 !
 ! D6    D(7,1,3,6)           -163.326          -DE/DX =    0.0                 !
 ! D7    D(8,1,3,4)             38.0453         -DE/DX =    0.0                 !
 ! D8    D(8,1,3,5)            160.8618         -DE/DX =    0.0                 !
 ! D9    D(8,1,3,6)            -81.055          -DE/DX =    0.0                 !
 --------------------------------------------------------------------------------
 Lowest energy point so far.  Saving SCF results.
 Largest change from initial coordinates is atom    9       0.778 Angstoms.
 GradGradGradGradGradGradGradGradGradGradGradGradGradGradGradGradGradGrad

 Leave Link  103 at Wed Jan  8 02:19:57 2020, MaxMem=  4294967296 cpu:               3.3 elap:               0.3
 (Enter /home/cwagen/sw/g16/g16/l202.exe)
                          Input orientation:                          
 ---------------------------------------------------------------------
 Center     Atomic      Atomic             Coordinates (Angstroms)
 Number     Number       Type             X           Y           Z
 ---------------------------------------------------------------------
      1          6           0        0.039914   -0.594212   -0.336637
      2          8           0       -0.323085   -0.690174   -1.494519
      3          6           0       -0.416305   -1.473145    0.791622
      4          1           0       -0.359496   -0.961862    1.753885
      5          1           0       -1.436767   -1.814236    0.600869
      6          1           0        0.251454   -2.347752    0.818626
      7         17           0       -1.528165    1.703172    0.787265
      8          6           0        1.206662    0.299966   -0.038065
      9          7           0        2.198197    0.886286    0.120341
 ---------------------------------------------------------------------
                    Distance matrix (angstroms):
                    1          2          3          4          5
     1  C    0.000000
     2  O    1.217238   0.000000
     3  C    1.501209   2.418300   0.000000
     4  H    2.159856   3.259949   1.091140   0.000000
     5  H    2.132596   2.625730   1.092736   1.793460   0.000000
     6  H    2.110518   2.903154   1.100713   1.780073   1.783858
     7  Cl   3.000000   3.519497   3.365300   3.066358   3.523529
     8  C    1.500000   2.332759   2.542897   2.693723   3.444678
     9  N    2.656857   3.383765   3.585129   3.553296   4.553756
                    6          7          8          9
     6  H    0.000000
     7  Cl   4.424705   0.000000
     8  C    2.942236   3.182677   0.000000
     9  N    3.838804   3.872708   1.162758   0.000000
 Stoichiometry    C3H3ClNO(1-)
 Framework group  C1[X(C3H3ClNO)]
 Deg. of freedom    21
 Full point group                 C1      NOp   1
 RotChk:  IX=0 Diff= 8.99D-16
 Largest Abelian subgroup         C1      NOp   1
 Largest concise Abelian subgroup C1      NOp   1
                         Standard orientation:                         
 ---------------------------------------------------------------------
 Center     Atomic      Atomic             Coordinates (Angstroms)
 Number     Number       Type             X           Y           Z
 ---------------------------------------------------------------------
      1          6           0       -0.865702   -0.487689    0.182449
      2          8           0       -1.054207   -0.885764    1.317205
      3          6           0       -0.749337   -1.358637   -1.034734
      4          1           0       -0.145122   -0.890491   -1.813419
      5          1           0       -0.326158   -2.326181   -0.753930
      6          1           0       -1.766146   -1.515618   -1.425919
      7         17           0        2.066247    0.133248    0.047859
      8          6           0       -0.998142    0.983778   -0.076866
      9          7           0       -1.253719    2.104069   -0.254724
 ---------------------------------------------------------------------
 Rotational constants (GHZ):           3.0118492           1.8901585           1.4842331
 Leave Link  202 at Wed Jan  8 02:19:57 2020, MaxMem=  4294967296 cpu:               2.4 elap:               0.2
 (Enter /home/cwagen/sw/g16/g16/l601.exe)
 Copying SCF densities to generalized density rwf, IOpCl= 0 IROHF=0.

 **********************************************************************

            Population analysis using the SCF density.

 **********************************************************************

 Orbital symmetries:
       Occupied  (A) (A) (A) (A) (A) (A) (A) (A) (A) (A) (A) (A)
                 (A) (A) (A) (A) (A) (A) (A) (A) (A) (A) (A) (A)
                 (A) (A) (A)
       Virtual   (A) (A) (A) (A) (A) (A) (A) (A) (A) (A) (A) (A)
                 (A) (A) (A) (A) (A) (A) (A) (A) (A) (A) (A) (A)
                 (A) (A) (A) (A) (A) (A) (A) (A) (A) (A) (A) (A)
                 (A) (A) (A) (A) (A) (A) (A) (A) (A) (A) (A) (A)
                 (A) (A) (A) (A) (A) (A) (A) (A) (A) (A) (A) (A)
                 (A) (A) (A) (A) (A) (A) (A) (A) (A) (A) (A) (A)
                 (A) (A) (A) (A) (A) (A) (A) (A) (A) (A) (A) (A)
                 (A) (A) (A) (A) (A) (A) (A) (A) (A) (A) (A) (A)
                 (A)
 The electronic state is 1-A.
 Alpha  occ. eigenvalues -- -101.41642 -19.15911 -14.34789 -10.31374 -10.23704
 Alpha  occ. eigenvalues --  -10.18118  -9.32986  -7.08813  -7.08742  -7.08739
 Alpha  occ. eigenvalues --   -1.05819  -0.90998  -0.75410  -0.66937  -0.63906
 Alpha  occ. eigenvalues --   -0.48806  -0.44692  -0.44354  -0.39767  -0.37831
 Alpha  occ. eigenvalues --   -0.37097  -0.34136  -0.33637  -0.27415  -0.21525
 Alpha  occ. eigenvalues --   -0.21356  -0.21347
 Alpha virt. eigenvalues --   -0.05889   0.02254   0.02609   0.04346   0.05722
 Alpha virt. eigenvalues --    0.06721   0.07680   0.08760   0.09450   0.10314
 Alpha virt. eigenvalues --    0.10609   0.10845   0.12569   0.13465   0.13780
 Alpha virt. eigenvalues --    0.14209   0.15752   0.17225   0.18880   0.20820
 Alpha virt. eigenvalues --    0.24047   0.24417   0.24846   0.25705   0.26831
 Alpha virt. eigenvalues --    0.28160   0.28968   0.31345   0.33394   0.36150
 Alpha virt. eigenvalues --    0.37877   0.40205   0.47759   0.60471   0.63518
 Alpha virt. eigenvalues --    0.65856   0.67085   0.68444   0.69922   0.71685
 Alpha virt. eigenvalues --    0.75016   0.78263   0.79378   0.82126   0.84310
 Alpha virt. eigenvalues --    0.86053   0.89377   0.95326   0.97506   0.98839
 Alpha virt. eigenvalues --    0.99394   0.99934   1.01059   1.02322   1.04135
 Alpha virt. eigenvalues --    1.04596   1.07601   1.13328   1.15317   1.17252
 Alpha virt. eigenvalues --    1.27773   1.31315   1.34613   1.36623   1.41088
 Alpha virt. eigenvalues --    1.44471   1.53539   1.55210   1.62034   1.66570
 Alpha virt. eigenvalues --    1.71928   1.75804   1.82422   1.85090   1.94023
 Alpha virt. eigenvalues --    1.94691   1.95921   1.99192   2.08636   2.18740
 Alpha virt. eigenvalues --    2.23143   2.29820   2.35214   2.47299   2.58421
 Alpha virt. eigenvalues --    2.71616   2.78578   2.88354   3.01458   3.12096
 Alpha virt. eigenvalues --    3.27816   4.15131   4.18639   4.31844   4.35873
 Alpha virt. eigenvalues --    4.43024   4.71195
          Condensed to atoms (all electrons):
               1          2          3          4          5          6
     1  C    6.000672   0.651620   0.008570  -0.111631  -0.091489   0.042937
     2  O    0.651620   8.093218  -0.126837   0.007881   0.001656  -0.006145
     3  C    0.008570  -0.126837   6.165233   0.396045   0.399132   0.325002
     4  H   -0.111631   0.007881   0.396045   0.446423  -0.018916  -0.024173
     5  H   -0.091489   0.001656   0.399132  -0.018916   0.447042  -0.021942
     6  H    0.042937  -0.006145   0.325002  -0.024173  -0.021942   0.459454
     7  Cl   0.220337  -0.039242  -0.108692   0.000367  -0.003847   0.002715
     8  C   -1.014660  -0.195307  -0.349403   0.044583   0.034154  -0.034460
     9  N   -0.065914  -0.007361  -0.026844   0.001141  -0.000046  -0.001216
               7          8          9
     1  C    0.220337  -1.014660  -0.065914
     2  O   -0.039242  -0.195307  -0.007361
     3  C   -0.108692  -0.349403  -0.026844
     4  H    0.000367   0.044583   0.001141
     5  H   -0.003847   0.034154  -0.000046
     6  H    0.002715  -0.034460  -0.001216
     7  Cl  17.925339  -0.086877  -0.019107
     8  C   -0.086877   6.684004   0.547308
     9  N   -0.019107   0.547308   7.119935
 Mulliken charges:
               1
     1  C    0.359557
     2  O   -0.379484
     3  C   -0.682207
     4  H    0.258281
     5  H    0.254255
     6  H    0.257828
     7  Cl  -0.890993
     8  C    0.370659
     9  N   -0.547896
 Sum of Mulliken charges =  -1.00000
 Mulliken charges with hydrogens summed into heavy atoms:
               1
     1  C    0.359557
     2  O   -0.379484
     3  C    0.088157
     7  Cl  -0.890993
     8  C    0.370659
     9  N   -0.547896
 Electronic spatial extent (au):  <R**2>=            844.4024
 Charge=             -1.0000 electrons
 Dipole moment (field-independent basis, Debye):
    X=             -7.5407    Y=             -4.0397    Z=             -3.0541  Tot=              9.0834
 Quadrupole moment (field-independent basis, Debye-Ang):
   XX=            -67.6107   YY=            -54.7446   ZZ=            -48.6018
   XY=              3.0834   XZ=              2.3372   YZ=              4.7853
 Traceless Quadrupole moment (field-independent basis, Debye-Ang):
   XX=            -10.6250   YY=              2.2411   ZZ=              8.3839
   XY=              3.0834   XZ=              2.3372   YZ=              4.7853
 Octapole moment (field-independent basis, Debye-Ang**2):
  XXX=            -57.1326  YYY=            -32.8648  ZZZ=             -4.5900  XYY=              7.1373
  XXY=            -11.7258  XXZ=             -3.4875  XZZ=             -2.4531  YZZ=             -0.6545
  YYZ=             -0.1132  XYZ=             -5.5469
 Hexadecapole moment (field-independent basis, Debye-Ang**3):
 XXXX=           -754.0195 YYYY=           -436.9836 ZZZZ=           -186.7937 XXXY=             11.6997
 XXXZ=             -1.1727 YYYX=             34.6537 YYYZ=             11.7462 ZZZX=              1.7709
 ZZZY=              4.3511 XXYY=           -195.1584 XXZZ=           -146.0251 YYZZ=            -98.8863
 XXYZ=              6.8324 YYXZ=             -1.1970 ZZXY=             -0.0943
 N-N= 2.372177122172D+02 E-N=-2.152530374074D+03  KE= 7.025453125693D+02
 No NMR shielding tensors so no spin-rotation constants.
 Leave Link  601 at Wed Jan  8 02:19:58 2020, MaxMem=  4294967296 cpu:              13.9 elap:               1.1
 (Enter /home/cwagen/sw/g16/g16/l9999.exe)
 1\1\GINC-NODE004\FOpt\RB3LYP\6-31+G(d)\C3H3Cl1N1O1(1-)\CWAGEN\08-Jan-2
 020\0\\#p opt=modredundant b3lyp/6-31+g(d) scrf=(smd, solvent=tetrahyd
 rofuran)\\title\\-1,1\C,0.0399142247,-0.5942118321,-0.3366369429\O,-0.
 3230854309,-0.6901738549,-1.4945191812\C,-0.4163046505,-1.473144984,0.
 7916218181\H,-0.3594957947,-0.961862345,1.7538846676\H,-1.4367669428,-
 1.8142360289,0.600869359\H,0.2514544573,-2.3477522874,0.81862553\Cl,-1
 .5281652145,1.7031718713,0.7872647249\C,1.2066621255,0.2999659893,-0.0
 380647394\N,2.198197236,0.8862862618,0.1203412439\\Version=AS64L-G16Re
 vA.03\State=1-A\HF=-706.4543431\RMSD=4.274e-09\RMSF=1.109e-03\Dipole=1
 .1710049,-3.3758516,0.0608535\Quadrupole=-5.4348369,2.1370406,3.297796
 3,3.5800326,2.0321615,-5.7889041\PG=C01 [X(C3H3Cl1N1O1)]\\@


 THE DIFFERENCE BETWEEN A NOOSE AND A HALO IS ONLY 12 INCHES.
 Job cpu time:       0 days  1 hours 44 minutes 57.9 seconds.
 Elapsed time:       0 days  0 hours  8 minutes  2.6 seconds.
 File lengths (MBytes):  RWF=     37 Int=      0 D2E=      0 Chk=      3 Scr=      1
 Normal termination of Gaussian 16 at Wed Jan  8 02:19:59 2020.
