 Entering Gaussian System, Link 0=g16
 Input=scan_280_200.gjf
 Output=scan_280_200.out
 Initial command:
 /home/cwagen/sw/g16/g16/l1.exe "/scratch/users/cwagen/cwagen_scan_280_200/Gau-42924.inp" -scrdir="/scratch/users/cwagen/cwagen_scan_280_200/"
 Entering Link 1 = /home/cwagen/sw/g16/g16/l1.exe PID=     42925.
  
 Copyright (c) 1988,1990,1992,1993,1995,1998,2003,2009,2016,
            Gaussian, Inc.  All Rights Reserved.
  
 This is part of the Gaussian(R) 16 program.  It is based on
 the Gaussian(R) 09 system (copyright 2009, Gaussian, Inc.),
 the Gaussian(R) 03 system (copyright 2003, Gaussian, Inc.),
 the Gaussian(R) 98 system (copyright 1998, Gaussian, Inc.),
 the Gaussian(R) 94 system (copyright 1995, Gaussian, Inc.),
 the Gaussian 92(TM) system (copyright 1992, Gaussian, Inc.),
 the Gaussian 90(TM) system (copyright 1990, Gaussian, Inc.),
 the Gaussian 88(TM) system (copyright 1988, Gaussian, Inc.),
 the Gaussian 86(TM) system (copyright 1986, Carnegie Mellon
 University), and the Gaussian 82(TM) system (copyright 1983,
 Carnegie Mellon University). Gaussian is a federally registered
 trademark of Gaussian, Inc.
  
 This software contains proprietary and confidential information,
 including trade secrets, belonging to Gaussian, Inc.
  
 This software is provided under written license and may be
 used, copied, transmitted, or stored only in accord with that
 written license.
  
 The following legend is applicable only to US Government
 contracts under FAR:
  
                    RESTRICTED RIGHTS LEGEND
  
 Use, reproduction and disclosure by the US Government is
 subject to restrictions as set forth in subparagraphs (a)
 and (c) of the Commercial Computer Software - Restricted
 Rights clause in FAR 52.227-19.
  
 Gaussian, Inc.
 340 Quinnipiac St., Bldg. 40, Wallingford CT 06492
  
  
 ---------------------------------------------------------------
 Warning -- This program may not be used in any manner that
 competes with the business of Gaussian, Inc. or will provide
 assistance to any competitor of Gaussian, Inc.  The licensee
 of this program is prohibited from giving any competitor of
 Gaussian, Inc. access to this program.  By using this program,
 the user acknowledges that Gaussian, Inc. is engaged in the
 business of creating and licensing software in the field of
 computational chemistry and represents and warrants to the
 licensee that it is not a competitor of Gaussian, Inc. and that
 it will not use this program in any manner prohibited above.
 ---------------------------------------------------------------
  

 Cite this work as:
 Gaussian 16, Revision A.03,
 M. J. Frisch, G. W. Trucks, H. B. Schlegel, G. E. Scuseria, 
 M. A. Robb, J. R. Cheeseman, G. Scalmani, V. Barone, 
 G. A. Petersson, H. Nakatsuji, X. Li, M. Caricato, A. V. Marenich, 
 J. Bloino, B. G. Janesko, R. Gomperts, B. Mennucci, H. P. Hratchian, 
 J. V. Ortiz, A. F. Izmaylov, J. L. Sonnenberg, D. Williams-Young, 
 F. Ding, F. Lipparini, F. Egidi, J. Goings, B. Peng, A. Petrone, 
 T. Henderson, D. Ranasinghe, V. G. Zakrzewski, J. Gao, N. Rega, 
 G. Zheng, W. Liang, M. Hada, M. Ehara, K. Toyota, R. Fukuda, 
 J. Hasegawa, M. Ishida, T. Nakajima, Y. Honda, O. Kitao, H. Nakai, 
 T. Vreven, K. Throssell, J. A. Montgomery, Jr., J. E. Peralta, 
 F. Ogliaro, M. J. Bearpark, J. J. Heyd, E. N. Brothers, K. N. Kudin, 
 V. N. Staroverov, T. A. Keith, R. Kobayashi, J. Normand, 
 K. Raghavachari, A. P. Rendell, J. C. Burant, S. S. Iyengar, 
 J. Tomasi, M. Cossi, J. M. Millam, M. Klene, C. Adamo, R. Cammi, 
 J. W. Ochterski, R. L. Martin, K. Morokuma, O. Farkas, 
 J. B. Foresman, and D. J. Fox, Gaussian, Inc., Wallingford CT, 2016.
 
 ******************************************
 Gaussian 16:  AS64L-G16RevA.03 25-Dec-2016
                 8-Jan-2020 
 ******************************************
 %nprocshared=16
 Will use up to   16 processors via shared memory.
 %mem=32GB
 ----------------------------------------------------------------------
 #p opt=modredundant b3lyp/6-31+g(d) scrf=(smd, solvent=tetrahydrofuran
 )
 ----------------------------------------------------------------------
 1/18=120,19=15,26=3,38=1/1,3;
 2/9=110,12=2,17=6,18=5,40=1/2;
 3/5=1,6=6,7=11,11=2,25=1,30=1,70=32201,71=1,72=20,74=-5/1,2,3;
 4//1;
 5/5=2,38=5,53=20/2;
 6/7=2,8=2,9=2,10=2,28=1/1;
 7//1,2,3,16;
 1/18=20,19=15,26=3/3(2);
 2/9=110/2;
 99//99;
 2/9=110/2;
 3/5=1,6=6,7=11,11=2,25=1,30=1,70=32205,71=1,72=20,74=-5/1,2,3;
 4/5=5,16=3,69=1/1;
 5/5=2,38=5,53=20/2;
 7//1,2,3,16;
 1/18=20,19=15,26=3/3(-5);
 2/9=110/2;
 6/7=2,8=2,9=2,10=2,19=2,28=1/1;
 99/9=1/99;
 Leave Link    1 at Wed Jan  8 01:48:37 2020, MaxMem=  4294967296 cpu:               1.8 elap:               0.2
 (Enter /home/cwagen/sw/g16/g16/l101.exe)
 -----
 title
 -----
 Symbolic Z-matrix:
 Charge = -1 Multiplicity = 1
 6                    -0.19426  -0.292    -0.21291 
 8                    -0.25532  -0.66526  -1.45426 
 6                    -0.33095  -1.45422   0.81632 
 1                    -0.18039  -1.13044   1.85373 
 1                    -1.34067  -1.87301   0.71427 
 1                     0.39707  -2.23395   0.57058 
 17                   -1.87073   1.83475   0.49872 
 6                     1.65998   0.35731   0.1615 
 7                     2.79455   0.63761   0.1918 
 
 Add virtual bond connecting atoms C8         and C1         Dist= 3.78D+00.
 Add virtual bond connecting atoms Cl7        and C1         Dist= 5.29D+00.
 The following ModRedundant input section has been read:
 B       1       7 F                                                           
 B       1       8 F                                                           
 
 ITRead=  0  0  0  0  0  0  0  0  0
 MicOpt= -1 -1 -1 -1 -1 -1 -1 -1 -1
 NAtoms=      9 NQM=        9 NQMF=       0 NMMI=      0 NMMIF=      0
                NMic=       0 NMicF=      0.
                    Isotopes and Nuclear Properties:
 (Nuclear quadrupole moments (NQMom) in fm**2, nuclear magnetic moments (NMagM)
  in nuclear magnetons)

  Atom         1           2           3           4           5           6           7           8           9
 IAtWgt=          12          16          12           1           1           1          35          12          14
 AtmWgt=  12.0000000  15.9949146  12.0000000   1.0078250   1.0078250   1.0078250  34.9688527  12.0000000  14.0030740
 NucSpn=           0           0           0           1           1           1           3           0           2
 AtZEff=   0.0000000   0.0000000   0.0000000   0.0000000   0.0000000   0.0000000   0.0000000   0.0000000   0.0000000
 NQMom=    0.0000000   0.0000000   0.0000000   0.0000000   0.0000000   0.0000000  -8.1650000   0.0000000   2.0440000
 NMagM=    0.0000000   0.0000000   0.0000000   2.7928460   2.7928460   2.7928460   0.8218740   0.0000000   0.4037610
 AtZNuc=   6.0000000   8.0000000   6.0000000   1.0000000   1.0000000   1.0000000  17.0000000   6.0000000   7.0000000
 Leave Link  101 at Wed Jan  8 01:48:38 2020, MaxMem=  4294967296 cpu:               7.2 elap:               0.6
 (Enter /home/cwagen/sw/g16/g16/l103.exe)

 GradGradGradGradGradGradGradGradGradGradGradGradGradGradGradGradGradGrad
 Berny optimization.
 Initialization pass.
                           ----------------------------
                           !    Initial Parameters    !
                           ! (Angstroms and Degrees)  !
 --------------------------                            --------------------------
 ! Name  Definition              Value          Derivative Info.                !
 --------------------------------------------------------------------------------
 ! R1    R(1,2)                  1.2977         estimate D2E/DX2                !
 ! R2    R(1,3)                  1.5584         estimate D2E/DX2                !
 ! R3    R(1,7)                  2.8            Frozen                          !
 ! R4    R(1,8)                  2.0            Frozen                          !
 ! R5    R(3,4)                  1.0971         estimate D2E/DX2                !
 ! R6    R(3,5)                  1.0979         estimate D2E/DX2                !
 ! R7    R(3,6)                  1.0947         estimate D2E/DX2                !
 ! R8    R(8,9)                  1.1691         estimate D2E/DX2                !
 ! A1    A(2,1,3)              114.4006         estimate D2E/DX2                !
 ! A2    A(2,1,7)              115.6846         estimate D2E/DX2                !
 ! A3    A(2,1,8)              108.426          estimate D2E/DX2                !
 ! A4    A(3,1,7)              110.248          estimate D2E/DX2                !
 ! A5    A(3,1,8)              101.5248         estimate D2E/DX2                !
 ! A6    A(7,1,8)              105.1256         estimate D2E/DX2                !
 ! A7    A(1,3,4)              113.1005         estimate D2E/DX2                !
 ! A8    A(1,3,5)              107.683          estimate D2E/DX2                !
 ! A9    A(1,3,6)              108.9421         estimate D2E/DX2                !
 ! A10   A(4,3,5)              109.0662         estimate D2E/DX2                !
 ! A11   A(4,3,6)              109.3417         estimate D2E/DX2                !
 ! A12   A(5,3,6)              108.6067         estimate D2E/DX2                !
 ! A13   L(1,8,9,6,-1)         177.436          estimate D2E/DX2                !
 ! A14   L(1,8,9,6,-2)         166.2769         estimate D2E/DX2                !
 ! D1    D(2,1,3,4)            174.4714         estimate D2E/DX2                !
 ! D2    D(2,1,3,5)            -64.9488         estimate D2E/DX2                !
 ! D3    D(2,1,3,6)             52.6633         estimate D2E/DX2                !
 ! D4    D(7,1,3,4)            -53.1046         estimate D2E/DX2                !
 ! D5    D(7,1,3,5)             67.4752         estimate D2E/DX2                !
 ! D6    D(7,1,3,6)           -174.9127         estimate D2E/DX2                !
 ! D7    D(8,1,3,4)             57.938          estimate D2E/DX2                !
 ! D8    D(8,1,3,5)            178.5177         estimate D2E/DX2                !
 ! D9    D(8,1,3,6)            -63.8702         estimate D2E/DX2                !
 --------------------------------------------------------------------------------
 Trust Radius=3.00D-01 FncErr=1.00D-07 GrdErr=1.00D-06 EigMax=2.50D+02 EigMin=1.00D-04
 Number of steps in this run=     41 maximum allowed number of steps=    100.
 GradGradGradGradGradGradGradGradGradGradGradGradGradGradGradGradGradGrad

 Leave Link  103 at Wed Jan  8 01:48:38 2020, MaxMem=  4294967296 cpu:               1.1 elap:               0.1
 (Enter /home/cwagen/sw/g16/g16/l202.exe)
                          Input orientation:                          
 ---------------------------------------------------------------------
 Center     Atomic      Atomic             Coordinates (Angstroms)
 Number     Number       Type             X           Y           Z
 ---------------------------------------------------------------------
      1          6           0       -0.194263   -0.291999   -0.212908
      2          8           0       -0.255321   -0.665256   -1.454255
      3          6           0       -0.330945   -1.454221    0.816316
      4          1           0       -0.180394   -1.130438    1.853734
      5          1           0       -1.340665   -1.873010    0.714272
      6          1           0        0.397068   -2.233949    0.570583
      7         17           0       -1.870733    1.834745    0.498715
      8          6           0        1.659981    0.357308    0.161500
      9          7           0        2.794552    0.637606    0.191803
 ---------------------------------------------------------------------
                    Distance matrix (angstroms):
                    1          2          3          4          5
     1  C    0.000000
     2  O    1.297687   0.000000
     3  C    1.558443   2.404928   0.000000
     4  H    2.230287   3.341377   1.097150   0.000000
     5  H    2.161827   2.709087   1.097876   1.787740   0.000000
     6  H    2.175937   2.643176   1.094698   1.788205   1.780629
     7  Cl   2.800000   3.560008   3.645424   3.672279   3.751651
     8  C    2.000000   2.706415   2.770236   2.909299   3.779385
     9  N    3.156100   3.702523   3.812412   3.839049   4.865818
                    6          7          8          9
     6  H    0.000000
     7  Cl   4.658579   0.000000
     8  C    2.911513   3.842196   0.000000
     9  N    3.759951   4.826201   1.169075   0.000000
 Stoichiometry    C3H3ClNO(1-)
 Framework group  C1[X(C3H3ClNO)]
 Deg. of freedom    21
 Full point group                 C1      NOp   1
 Largest Abelian subgroup         C1      NOp   1
 Largest concise Abelian subgroup C1      NOp   1
                         Standard orientation:                         
 ---------------------------------------------------------------------
 Center     Atomic      Atomic             Coordinates (Angstroms)
 Number     Number       Type             X           Y           Z
 ---------------------------------------------------------------------
      1          6           0        0.278756    0.596181    0.207739
      2          8           0        0.524945    1.139214    1.360343
      3          6           0        0.567343    1.519790   -1.013902
      4          1           0        0.444640    1.009849   -1.977563
      5          1           0       -0.130496    2.365905   -0.964475
      6          1           0        1.589102    1.904661   -0.934877
      7         17           0       -2.238093   -0.602006   -0.056495
      8          6           0        1.593809   -0.881211   -0.088827
      9          7           0        2.472189   -1.652656   -0.096497
 ---------------------------------------------------------------------
 Rotational constants (GHZ):           2.9495509           1.4400578           1.1847867
 Leave Link  202 at Wed Jan  8 01:48:38 2020, MaxMem=  4294967296 cpu:               2.0 elap:               0.2
 (Enter /home/cwagen/sw/g16/g16/l301.exe)
 Standard basis: 6-31+G(d) (6D, 7F)
 Ernie: Thresh=  0.10000D-02 Tol=  0.10000D-05 Strict=F.
 There are   124 symmetry adapted cartesian basis functions of A   symmetry.
 There are   124 symmetry adapted basis functions of A   symmetry.
   124 basis functions,   228 primitive gaussians,   124 cartesian basis functions
    27 alpha electrons       27 beta electrons
       nuclear repulsion energy       220.2992590850 Hartrees.
 IExCor=  402 DFT=T Ex+Corr=B3LYP ExCW=0 ScaHFX=  0.200000
 ScaDFX=  0.800000  0.720000  1.000000  0.810000 ScalE2=  1.000000  1.000000
 IRadAn=      5 IRanWt=     -1 IRanGd=            0 ICorTp=0 IEmpDi=  4
 NAtoms=    9 NActive=    9 NUniq=    9 SFac= 1.00D+00 NAtFMM=   60 NAOKFM=F Big=F
 Integral buffers will be    131072 words long.
 Raffenetti 2 integral format.
 Two-electron integral symmetry is turned on.
 ------------------------------------------------------------------------------
 Polarizable Continuum Model (PCM)
 =================================
 Model                : PCM.
 Atomic radii         : SMD-Coulomb.
 Polarization charges : Total charges.
 Charge compensation  : None.
 Solution method      : On-the-fly selection.
 Cavity type          : VdW (van der Waals Surface) (Alpha=1.000).
 Cavity algorithm     : GePol (No added spheres)
                        Default sphere list used, NSphG=    9.
                        Lebedev-Laikov grids with approx.  5.0 points / Ang**2.
                        Smoothing algorithm: York/Karplus (Gamma=1.0000).
                        Polarization charges: spherical gaussians, with
                                              point-specific exponents (IZeta= 3).
                        Self-potential: point-specific (ISelfS= 7).
                        Self-field    : sphere-specific E.n sum rule (ISelfD= 2).
 1st derivatives      : Analytical E(r).r(x)/FMM algorithm (CHGder, D1EAlg=3).
                        Cavity 1st derivative terms included.
 Solvent              : TetraHydroFuran, Eps=   7.425700 Eps(inf)=   1.974025
 ------------------------------------------------------------------------------
 Spheres list:
 ISph  on   Nord     Re0    Alpha      Xe            Ye            Ze
    1   C      1    1.8500  1.000      0.278756      0.596181      0.207739
    2   O      2    2.2940  1.000      0.524945      1.139214      1.360343
    3   C      3    1.8500  1.000      0.567343      1.519790     -1.013902
    4   H      4    1.2000  1.000      0.444640      1.009849     -1.977563
    5   H      5    1.2000  1.000     -0.130496      2.365905     -0.964475
    6   H      6    1.2000  1.000      1.589102      1.904661     -0.934877
    7  Cl      7    2.3800  1.000     -2.238093     -0.602006     -0.056495
    8   C      8    1.8500  1.000      1.593809     -0.881211     -0.088827
    9   N      9    1.8900  1.000      2.472189     -1.652656     -0.096497
 ------------------------------------------------------------------------------
 GePol: Number of generator spheres                  =       9
 GePol: Total number of spheres                      =       9
 GePol: Number of exposed spheres                    =       9 (100.00%)
 GePol: Number of points                             =    1274
 GePol: Average weight of points                     =       0.14
 GePol: Minimum weight of points                     =   0.22D-07
 GePol: Maximum weight of points                     =    0.18138
 GePol: Number of points with low weight             =      27
 GePol: Fraction of low-weight points (<1% of avg)   =       2.12%
 GePol: Cavity surface area                          =    175.183 Ang**2
 GePol: Cavity volume                                =    156.748 Ang**3
 ------------------------------------------------------------------------------
 Atomic radii for non-electrostatic terms: SMD-CDS.
 ------------------------------------------------------------------------------
 PCM non-electrostatic energy =         0.0001858065 Hartrees.
 Nuclear repulsion after PCM non-electrostatic terms =      220.2994448915 Hartrees.
 Leave Link  301 at Wed Jan  8 01:48:38 2020, MaxMem=  4294967296 cpu:               2.3 elap:               0.2
 (Enter /home/cwagen/sw/g16/g16/l302.exe)
 NPDir=0 NMtPBC=     1 NCelOv=     1 NCel=       1 NClECP=     1 NCelD=      1
         NCelK=      1 NCelE2=     1 NClLst=     1 CellRange=     0.0.
 One-electron integrals computed using PRISM.
 One-electron integral symmetry used in STVInt
 NBasis=   124 RedAO= T EigKep=  1.41D-04  NBF=   124
 NBsUse=   124 1.00D-06 EigRej= -1.00D+00 NBFU=   124
 Precomputing XC quadrature grid using
 IXCGrd= 4 IRadAn=           5 IRanWt=          -1 IRanGd=           0 AccXCQ= 0.00D+00.
 Generated NRdTot=       0 NPtTot=           0 NUsed=           0 NTot=          32
 NSgBfM=   123   123   123   123   123 MxSgAt=     9 MxSgA2=     9.
 Leave Link  302 at Wed Jan  8 01:48:41 2020, MaxMem=  4294967296 cpu:              36.9 elap:               3.1
 (Enter /home/cwagen/sw/g16/g16/l303.exe)
 DipDrv:  MaxL=1.
 Leave Link  303 at Wed Jan  8 01:48:42 2020, MaxMem=  4294967296 cpu:               4.6 elap:               0.5
 (Enter /home/cwagen/sw/g16/g16/l401.exe)
 ExpMin= 4.38D-02 ExpMax= 2.52D+04 ExpMxC= 3.78D+03 IAcc=3 IRadAn=         5 AccDes= 0.00D+00
 Harris functional with IExCor=  402 and IRadAn=       5 diagonalized for initial guess.
 HarFok:  IExCor=  402 AccDes= 0.00D+00 IRadAn=         5 IDoV= 1 UseB2=F ITyADJ=14
 ICtDFT=  3500011 ScaDFX=  1.000000  1.000000  1.000000  1.000000
 FoFCou: FMM=F IPFlag=           0 FMFlag=      100000 FMFlg1=           0
         NFxFlg=           0 DoJE=T BraDBF=F KetDBF=T FulRan=T
         wScrn=  0.000000 ICntrl=       500 IOpCl=  0 I1Cent=   200000004 NGrid=           0
         NMat0=    1 NMatS0=      1 NMatT0=    0 NMatD0=    1 NMtDS0=    0 NMtDT0=    0
 Petite list used in FoFCou.
 Harris En= -706.350033568069    
 JPrj=0 DoOrth=F DoCkMO=F.
 Leave Link  401 at Wed Jan  8 01:48:44 2020, MaxMem=  4294967296 cpu:              23.5 elap:               1.8
 (Enter /home/cwagen/sw/g16/g16/l502.exe)
 Keep R1 ints in memory in canonical form, NReq=45236517.
 FoFCou: FMM=F IPFlag=           0 FMFlag=           0 FMFlg1=           0
         NFxFlg=           0 DoJE=F BraDBF=F KetDBF=F FulRan=T
         wScrn=  0.000000 ICntrl=       600 IOpCl=  0 I1Cent=           0 NGrid=           0
         NMat0=    1 NMatS0=   7750 NMatT0=    0 NMatD0=    1 NMtDS0=    0 NMtDT0=    0
 Symmetry not used in FoFCou.
 Two-electron integral symmetry not used.
 Closed shell SCF:
 Using DIIS extrapolation, IDIIS=  1040.
 NGot=  4294967296 LenX=  4264898079 LenY=  4264882262
 Requested convergence on RMS density matrix=1.00D-08 within 128 cycles.
 Requested convergence on MAX density matrix=1.00D-06.
 Requested convergence on             energy=1.00D-06.
 No special actions if energy rises.

 Cycle   1  Pass 1  IDiag  1:
 Inv3:  Mode=1 IEnd=     4869228.
 Iteration    1 A*A^-1 deviation from unit magnitude is 3.33D-15 for   1270.
 Iteration    1 A*A^-1 deviation from orthogonality  is 1.58D-15 for   1126    863.
 Iteration    1 A^-1*A deviation from unit magnitude is 3.55D-15 for   1260.
 Iteration    1 A^-1*A deviation from orthogonality  is 1.57D-15 for   1273   1108.
 E= -706.187473309471    
 DIIS: error= 2.14D-02 at cycle   1 NSaved=   1.
 NSaved= 1 IEnMin= 1 EnMin= -706.187473309471     IErMin= 1 ErrMin= 2.14D-02
 ErrMax= 2.14D-02  0.00D+00 EMaxC= 1.00D-01 BMatC= 2.03D-01 BMatP= 2.03D-01
 IDIUse=3 WtCom= 7.86D-01 WtEn= 2.14D-01
 Coeff-Com:  0.100D+01
 Coeff-En:   0.100D+01
 Coeff:      0.100D+01
 Gap=     0.094 Goal=   None    Shift=    0.000
 GapD=    0.094 DampG=0.500 DampE=0.500 DampFc=0.2500 IDamp=-1.
 Damping current iteration by 2.50D-01
 RMSDP=9.74D-03 MaxDP=2.14D-01              OVMax= 2.99D-01

 Cycle   2  Pass 1  IDiag  1:
 E= -706.235836714010     Delta-E=       -0.048363404539 Rises=F Damp=T
 DIIS: error= 1.62D-02 at cycle   2 NSaved=   2.
 NSaved= 2 IEnMin= 2 EnMin= -706.235836714010     IErMin= 2 ErrMin= 1.62D-02
 ErrMax= 1.62D-02  0.00D+00 EMaxC= 1.00D-01 BMatC= 3.09D-02 BMatP= 2.03D-01
 IDIUse=3 WtCom= 8.38D-01 WtEn= 1.62D-01
 Coeff-Com: -0.150D+00 0.115D+01
 Coeff-En:   0.208D+00 0.792D+00
 Coeff:     -0.918D-01 0.109D+01
 Gap=     0.125 Goal=   None    Shift=    0.000
 RMSDP=3.20D-03 MaxDP=6.19D-02 DE=-4.84D-02 OVMax= 2.67D-01

 Cycle   3  Pass 1  IDiag  1:
 E= -706.307798901166     Delta-E=       -0.071962187156 Rises=F Damp=F
 DIIS: error= 1.88D-02 at cycle   3 NSaved=   3.
 NSaved= 3 IEnMin= 3 EnMin= -706.307798901166     IErMin= 2 ErrMin= 1.62D-02
 ErrMax= 1.88D-02  0.00D+00 EMaxC= 1.00D-01 BMatC= 6.09D-02 BMatP= 3.09D-02
 IDIUse=2 WtCom= 0.00D+00 WtEn= 1.00D+00
 Coeff-En:   0.000D+00 0.100D+00 0.900D+00
 Coeff:      0.000D+00 0.100D+00 0.900D+00
 Gap=     0.171 Goal=   None    Shift=    0.000
 RMSDP=6.39D-03 MaxDP=1.62D-01 DE=-7.20D-02 OVMax= 3.41D-01

 Cycle   4  Pass 1  IDiag  1:
 E= -705.986897633798     Delta-E=        0.320901267369 Rises=F Damp=F
 DIIS: error= 3.96D-02 at cycle   4 NSaved=   4.
 NSaved= 4 IEnMin= 3 EnMin= -706.307798901166     IErMin= 2 ErrMin= 1.62D-02
 ErrMax= 3.96D-02  0.00D+00 EMaxC= 1.00D-01 BMatC= 4.35D-01 BMatP= 3.09D-02
 IDIUse=2 WtCom= 0.00D+00 WtEn= 1.00D+00
 Coeff-En:   0.000D+00 0.000D+00 0.803D+00 0.197D+00
 Coeff:      0.000D+00 0.000D+00 0.803D+00 0.197D+00
 Gap=     0.156 Goal=   None    Shift=    0.000
 RMSDP=3.75D-03 MaxDP=9.96D-02 DE= 3.21D-01 OVMax= 1.64D-01

 Cycle   5  Pass 1  IDiag  1:
 E= -706.343491724266     Delta-E=       -0.356594090468 Rises=F Damp=F
 DIIS: error= 1.05D-02 at cycle   5 NSaved=   5.
 NSaved= 5 IEnMin= 5 EnMin= -706.343491724266     IErMin= 5 ErrMin= 1.05D-02
 ErrMax= 1.05D-02  0.00D+00 EMaxC= 1.00D-01 BMatC= 2.45D-02 BMatP= 3.09D-02
 IDIUse=3 WtCom= 8.95D-01 WtEn= 1.05D-01
 Coeff-Com: -0.889D-01 0.174D+00 0.373D+00-0.263D-01 0.568D+00
 Coeff-En:   0.000D+00 0.000D+00 0.331D+00 0.000D+00 0.669D+00
 Coeff:     -0.796D-01 0.156D+00 0.368D+00-0.236D-01 0.579D+00
 Gap=     0.131 Goal=   None    Shift=    0.000
 RMSDP=1.51D-03 MaxDP=4.07D-02 DE=-3.57D-01 OVMax= 7.07D-02

 Cycle   6  Pass 1  IDiag  1:
 E= -706.367610502447     Delta-E=       -0.024118778182 Rises=F Damp=F
 DIIS: error= 1.27D-03 at cycle   6 NSaved=   6.
 NSaved= 6 IEnMin= 6 EnMin= -706.367610502447     IErMin= 6 ErrMin= 1.27D-03
 ErrMax= 1.27D-03  0.00D+00 EMaxC= 1.00D-01 BMatC= 5.70D-04 BMatP= 2.45D-02
 IDIUse=3 WtCom= 9.87D-01 WtEn= 1.27D-02
 Coeff-Com: -0.662D-01 0.986D-01 0.174D+00-0.394D-01 0.373D+00 0.460D+00
 Coeff-En:   0.000D+00 0.000D+00 0.000D+00 0.000D+00 0.000D+00 0.100D+01
 Coeff:     -0.654D-01 0.973D-01 0.172D+00-0.389D-01 0.368D+00 0.467D+00
 Gap=     0.135 Goal=   None    Shift=    0.000
 RMSDP=3.84D-04 MaxDP=1.20D-02 DE=-2.41D-02 OVMax= 1.89D-02

 Cycle   7  Pass 1  IDiag  1:
 E= -706.368253708712     Delta-E=       -0.000643206264 Rises=F Damp=F
 DIIS: error= 3.62D-04 at cycle   7 NSaved=   7.
 NSaved= 7 IEnMin= 7 EnMin= -706.368253708712     IErMin= 7 ErrMin= 3.62D-04
 ErrMax= 3.62D-04  0.00D+00 EMaxC= 1.00D-01 BMatC= 2.96D-05 BMatP= 5.70D-04
 IDIUse=3 WtCom= 9.96D-01 WtEn= 3.62D-03
 Coeff-Com: -0.199D-01 0.294D-01 0.391D-01-0.135D-01 0.949D-01 0.234D+00
 Coeff-Com:  0.636D+00
 Coeff-En:   0.000D+00 0.000D+00 0.000D+00 0.000D+00 0.000D+00 0.136D-01
 Coeff-En:   0.986D+00
 Coeff:     -0.199D-01 0.293D-01 0.389D-01-0.135D-01 0.945D-01 0.234D+00
 Coeff:      0.637D+00
 Gap=     0.133 Goal=   None    Shift=    0.000
 RMSDP=9.14D-05 MaxDP=2.53D-03 DE=-6.43D-04 OVMax= 4.00D-03

 Cycle   8  Pass 1  IDiag  1:
 E= -706.368287799368     Delta-E=       -0.000034090656 Rises=F Damp=F
 DIIS: error= 9.97D-05 at cycle   8 NSaved=   8.
 NSaved= 8 IEnMin= 8 EnMin= -706.368287799368     IErMin= 8 ErrMin= 9.97D-05
 ErrMax= 9.97D-05  0.00D+00 EMaxC= 1.00D-01 BMatC= 3.78D-06 BMatP= 2.96D-05
 IDIUse=1 WtCom= 1.00D+00 WtEn= 0.00D+00
 Coeff-Com: -0.860D-03-0.372D-03 0.296D-03-0.906D-03 0.482D-02 0.877D-01
 Coeff-Com:  0.342D+00 0.567D+00
 Coeff:     -0.860D-03-0.372D-03 0.296D-03-0.906D-03 0.482D-02 0.877D-01
 Coeff:      0.342D+00 0.567D+00
 Gap=     0.134 Goal=   None    Shift=    0.000
 RMSDP=1.83D-05 MaxDP=5.59D-04 DE=-3.41D-05 OVMax= 9.98D-04

 Cycle   9  Pass 1  IDiag  1:
 E= -706.368291431356     Delta-E=       -0.000003631988 Rises=F Damp=F
 DIIS: error= 2.40D-05 at cycle   9 NSaved=   9.
 NSaved= 9 IEnMin= 9 EnMin= -706.368291431356     IErMin= 9 ErrMin= 2.40D-05
 ErrMax= 2.40D-05  0.00D+00 EMaxC= 1.00D-01 BMatC= 1.58D-07 BMatP= 3.78D-06
 IDIUse=1 WtCom= 1.00D+00 WtEn= 0.00D+00
 Coeff-Com:  0.138D-04-0.103D-03-0.252D-02-0.102D-03-0.377D-02 0.213D-01
 Coeff-Com:  0.806D-01 0.217D+00 0.688D+00
 Coeff:      0.138D-04-0.103D-03-0.252D-02-0.102D-03-0.377D-02 0.213D-01
 Coeff:      0.806D-01 0.217D+00 0.688D+00
 Gap=     0.134 Goal=   None    Shift=    0.000
 RMSDP=8.41D-06 MaxDP=3.09D-04 DE=-3.63D-06 OVMax= 2.61D-04

 Cycle  10  Pass 1  IDiag  1:
 E= -706.368291615821     Delta-E=       -0.000000184465 Rises=F Damp=F
 DIIS: error= 8.25D-06 at cycle  10 NSaved=  10.
 NSaved=10 IEnMin=10 EnMin= -706.368291615821     IErMin=10 ErrMin= 8.25D-06
 ErrMax= 8.25D-06  0.00D+00 EMaxC= 1.00D-01 BMatC= 2.01D-08 BMatP= 1.58D-07
 IDIUse=1 WtCom= 1.00D+00 WtEn= 0.00D+00
 Coeff-Com:  0.190D-03-0.293D-03-0.984D-03 0.129D-03-0.179D-02 0.142D-02
 Coeff-Com: -0.412D-02 0.326D-01 0.318D+00 0.654D+00
 Coeff:      0.190D-03-0.293D-03-0.984D-03 0.129D-03-0.179D-02 0.142D-02
 Coeff:     -0.412D-02 0.326D-01 0.318D+00 0.654D+00
 Gap=     0.134 Goal=   None    Shift=    0.000
 RMSDP=1.94D-06 MaxDP=3.60D-05 DE=-1.84D-07 OVMax= 8.99D-05

 Cycle  11  Pass 1  IDiag  1:
 E= -706.368291638535     Delta-E=       -0.000000022714 Rises=F Damp=F
 DIIS: error= 2.08D-06 at cycle  11 NSaved=  11.
 NSaved=11 IEnMin=11 EnMin= -706.368291638535     IErMin=11 ErrMin= 2.08D-06
 ErrMax= 2.08D-06  0.00D+00 EMaxC= 1.00D-01 BMatC= 1.60D-09 BMatP= 2.01D-08
 IDIUse=1 WtCom= 1.00D+00 WtEn= 0.00D+00
 Coeff-Com:  0.391D-04-0.505D-04-0.915D-04 0.345D-04-0.164D-03-0.140D-02
 Coeff-Com: -0.103D-01-0.966D-02 0.640D-01 0.302D+00 0.656D+00
 Coeff:      0.391D-04-0.505D-04-0.915D-04 0.345D-04-0.164D-03-0.140D-02
 Coeff:     -0.103D-01-0.966D-02 0.640D-01 0.302D+00 0.656D+00
 Gap=     0.134 Goal=   None    Shift=    0.000
 RMSDP=6.22D-07 MaxDP=1.39D-05 DE=-2.27D-08 OVMax= 1.54D-05

 Cycle  12  Pass 1  IDiag  1:
 E= -706.368291640541     Delta-E=       -0.000000002006 Rises=F Damp=F
 DIIS: error= 7.07D-07 at cycle  12 NSaved=  12.
 NSaved=12 IEnMin=12 EnMin= -706.368291640541     IErMin=12 ErrMin= 7.07D-07
 ErrMax= 7.07D-07  0.00D+00 EMaxC= 1.00D-01 BMatC= 1.61D-10 BMatP= 1.60D-09
 IDIUse=1 WtCom= 1.00D+00 WtEn= 0.00D+00
 Coeff-Com: -0.861D-05 0.245D-04 0.376D-04-0.482D-05 0.750D-04-0.104D-02
 Coeff-Com: -0.459D-02-0.864D-02-0.860D-02 0.734D-01 0.262D+00 0.687D+00
 Coeff:     -0.861D-05 0.245D-04 0.376D-04-0.482D-05 0.750D-04-0.104D-02
 Coeff:     -0.459D-02-0.864D-02-0.860D-02 0.734D-01 0.262D+00 0.687D+00
 Gap=     0.134 Goal=   None    Shift=    0.000
 RMSDP=2.16D-07 MaxDP=4.24D-06 DE=-2.01D-09 OVMax= 8.01D-06

 Cycle  13  Pass 1  IDiag  1:
 E= -706.368291640733     Delta-E=       -0.000000000191 Rises=F Damp=F
 DIIS: error= 1.56D-07 at cycle  13 NSaved=  13.
 NSaved=13 IEnMin=13 EnMin= -706.368291640733     IErMin=13 ErrMin= 1.56D-07
 ErrMax= 1.56D-07  0.00D+00 EMaxC= 1.00D-01 BMatC= 5.92D-12 BMatP= 1.61D-10
 IDIUse=1 WtCom= 1.00D+00 WtEn= 0.00D+00
 Coeff-Com: -0.635D-06 0.959D-06 0.162D-04-0.178D-05 0.254D-04-0.920D-04
 Coeff-Com: -0.281D-05-0.873D-03-0.652D-02-0.228D-02-0.398D-03 0.150D+00
 Coeff-Com:  0.860D+00
 Coeff:     -0.635D-06 0.959D-06 0.162D-04-0.178D-05 0.254D-04-0.920D-04
 Coeff:     -0.281D-05-0.873D-03-0.652D-02-0.228D-02-0.398D-03 0.150D+00
 Coeff:      0.860D+00
 Gap=     0.134 Goal=   None    Shift=    0.000
 RMSDP=4.65D-08 MaxDP=1.10D-06 DE=-1.91D-10 OVMax= 1.43D-06

 Cycle  14  Pass 1  IDiag  1:
 E= -706.368291640740     Delta-E=       -0.000000000008 Rises=F Damp=F
 DIIS: error= 5.46D-08 at cycle  14 NSaved=  14.
 NSaved=14 IEnMin=14 EnMin= -706.368291640740     IErMin=14 ErrMin= 5.46D-08
 ErrMax= 5.46D-08  0.00D+00 EMaxC= 1.00D-01 BMatC= 4.76D-13 BMatP= 5.92D-12
 IDIUse=1 WtCom= 1.00D+00 WtEn= 0.00D+00
 Coeff-Com:  0.130D-05-0.221D-05 0.771D-06 0.170D-07-0.139D-05 0.266D-04
 Coeff-Com:  0.209D-03 0.251D-03-0.105D-02-0.286D-02-0.136D-01-0.646D-02
 Coeff-Com:  0.132D+00 0.891D+00
 Coeff:      0.130D-05-0.221D-05 0.771D-06 0.170D-07-0.139D-05 0.266D-04
 Coeff:      0.209D-03 0.251D-03-0.105D-02-0.286D-02-0.136D-01-0.646D-02
 Coeff:      0.132D+00 0.891D+00
 Gap=     0.134 Goal=   None    Shift=    0.000
 RMSDP=1.17D-08 MaxDP=2.40D-07 DE=-7.73D-12 OVMax= 5.60D-07

 Cycle  15  Pass 1  IDiag  1:
 E= -706.368291640742     Delta-E=       -0.000000000001 Rises=F Damp=F
 DIIS: error= 6.76D-09 at cycle  15 NSaved=  15.
 NSaved=15 IEnMin=15 EnMin= -706.368291640742     IErMin=15 ErrMin= 6.76D-09
 ErrMax= 6.76D-09  0.00D+00 EMaxC= 1.00D-01 BMatC= 1.36D-14 BMatP= 4.76D-13
 IDIUse=1 WtCom= 1.00D+00 WtEn= 0.00D+00
 Coeff-Com:  0.211D-06-0.324D-06-0.583D-07-0.378D-07-0.256D-06 0.873D-05
 Coeff-Com:  0.332D-04 0.659D-04 0.109D-03-0.112D-03-0.201D-02-0.724D-02
 Coeff-Com: -0.218D-01 0.133D+00 0.898D+00
 Coeff:      0.211D-06-0.324D-06-0.583D-07-0.378D-07-0.256D-06 0.873D-05
 Coeff:      0.332D-04 0.659D-04 0.109D-03-0.112D-03-0.201D-02-0.724D-02
 Coeff:     -0.218D-01 0.133D+00 0.898D+00
 Gap=     0.134 Goal=   None    Shift=    0.000
 RMSDP=2.91D-09 MaxDP=9.53D-08 DE=-1.25D-12 OVMax= 1.32D-07

 Error on total polarization charges =  0.02340
 SCF Done:  E(RB3LYP) =  -706.368291641     A.U. after   15 cycles
            NFock= 15  Conv=0.29D-08     -V/T= 2.0064
 KE= 7.018857966024D+02 PE=-2.117846139734D+03 EE= 4.892926065992D+02
 SMD-CDS (non-electrostatic) energy       (kcal/mol) =       0.12
 (included in total energy above)
 Leave Link  502 at Wed Jan  8 01:49:24 2020, MaxMem=  4294967296 cpu:             537.9 elap:              40.3
 (Enter /home/cwagen/sw/g16/g16/l601.exe)
 Copying SCF densities to generalized density rwf, IOpCl= 0 IROHF=0.

 **********************************************************************

            Population analysis using the SCF density.

 **********************************************************************

 Orbital symmetries:
       Occupied  (A) (A) (A) (A) (A) (A) (A) (A) (A) (A) (A) (A)
                 (A) (A) (A) (A) (A) (A) (A) (A) (A) (A) (A) (A)
                 (A) (A) (A)
       Virtual   (A) (A) (A) (A) (A) (A) (A) (A) (A) (A) (A) (A)
                 (A) (A) (A) (A) (A) (A) (A) (A) (A) (A) (A) (A)
                 (A) (A) (A) (A) (A) (A) (A) (A) (A) (A) (A) (A)
                 (A) (A) (A) (A) (A) (A) (A) (A) (A) (A) (A) (A)
                 (A) (A) (A) (A) (A) (A) (A) (A) (A) (A) (A) (A)
                 (A) (A) (A) (A) (A) (A) (A) (A) (A) (A) (A) (A)
                 (A) (A) (A) (A) (A) (A) (A) (A) (A) (A) (A) (A)
                 (A) (A) (A) (A) (A) (A) (A) (A) (A) (A) (A) (A)
                 (A)
 The electronic state is 1-A.
 Alpha  occ. eigenvalues -- -101.45267 -19.18103 -14.31897 -10.35126 -10.20706
 Alpha  occ. eigenvalues --  -10.20166  -9.36513  -7.12541  -7.12175  -7.12173
 Alpha  occ. eigenvalues --   -1.02562  -0.87738  -0.73655  -0.69818  -0.55490
 Alpha  occ. eigenvalues --   -0.46629  -0.43367  -0.42919  -0.39365  -0.36006
 Alpha  occ. eigenvalues --   -0.35434  -0.31841  -0.31718  -0.27530  -0.24424
 Alpha  occ. eigenvalues --   -0.23832  -0.23805
 Alpha virt. eigenvalues --   -0.10440  -0.00618   0.03191   0.04282   0.04682
 Alpha virt. eigenvalues --    0.05903   0.06350   0.07450   0.08699   0.09487
 Alpha virt. eigenvalues --    0.09922   0.10055   0.11016   0.11951   0.13247
 Alpha virt. eigenvalues --    0.14063   0.14925   0.16462   0.16669   0.20291
 Alpha virt. eigenvalues --    0.22554   0.23743   0.24299   0.25312   0.25667
 Alpha virt. eigenvalues --    0.26697   0.28053   0.28790   0.31758   0.32970
 Alpha virt. eigenvalues --    0.34914   0.36675   0.40572   0.60216   0.62869
 Alpha virt. eigenvalues --    0.65093   0.66375   0.67454   0.68212   0.71617
 Alpha virt. eigenvalues --    0.72197   0.74697   0.76046   0.78831   0.79156
 Alpha virt. eigenvalues --    0.84179   0.87300   0.93818   0.96031   0.96681
 Alpha virt. eigenvalues --    0.97270   0.97748   0.98167   1.00336   1.01247
 Alpha virt. eigenvalues --    1.03520   1.09819   1.13343   1.15608   1.21056
 Alpha virt. eigenvalues --    1.27901   1.30120   1.31605   1.34932   1.46498
 Alpha virt. eigenvalues --    1.47352   1.51033   1.55971   1.56147   1.56808
 Alpha virt. eigenvalues --    1.61576   1.66795   1.76343   1.81260   1.88511
 Alpha virt. eigenvalues --    1.90085   1.96792   1.98622   1.99708   2.11454
 Alpha virt. eigenvalues --    2.18362   2.23646   2.28528   2.47693   2.48616
 Alpha virt. eigenvalues --    2.60868   2.63348   2.67497   2.71705   2.94971
 Alpha virt. eigenvalues --    3.06701   4.03393   4.13304   4.25650   4.29107
 Alpha virt. eigenvalues --    4.37249   4.44542
          Condensed to atoms (all electrons):
               1          2          3          4          5          6
     1  C    5.157693   0.540005   0.115023  -0.063185  -0.062421   0.008912
     2  O    0.540005   8.035695  -0.135824   0.008008   0.000154  -0.012577
     3  C    0.115023  -0.135824   5.721510   0.374711   0.377548   0.365370
     4  H   -0.063185   0.008008   0.374711   0.457355  -0.021051  -0.027212
     5  H   -0.062421   0.000154   0.377548  -0.021051   0.452993  -0.022952
     6  H    0.008912  -0.012577   0.365370  -0.027212  -0.022952   0.441590
     7  Cl   0.141966  -0.028570  -0.062731   0.002843  -0.001394   0.000744
     8  C   -0.224568  -0.111947  -0.063165   0.016266   0.021191  -0.026349
     9  N   -0.024695  -0.003463   0.000143  -0.000875  -0.000064   0.000146
               7          8          9
     1  C    0.141966  -0.224568  -0.024695
     2  O   -0.028570  -0.111947  -0.003463
     3  C   -0.062731  -0.063165   0.000143
     4  H    0.002843   0.016266  -0.000875
     5  H   -0.001394   0.021191  -0.000064
     6  H    0.000744  -0.026349   0.000146
     7  Cl  17.693160  -0.044373  -0.004279
     8  C   -0.044373   5.733489   0.631535
     9  N   -0.004279   0.631535   6.980771
 Mulliken charges:
               1
     1  C    0.411268
     2  O   -0.291480
     3  C   -0.692585
     4  H    0.253140
     5  H    0.255996
     6  H    0.272328
     7  Cl  -0.697367
     8  C    0.067920
     9  N   -0.579220
 Sum of Mulliken charges =  -1.00000
 Mulliken charges with hydrogens summed into heavy atoms:
               1
     1  C    0.411268
     2  O   -0.291480
     3  C    0.088878
     7  Cl  -0.697367
     8  C    0.067920
     9  N   -0.579220
 Electronic spatial extent (au):  <R**2>=           1004.4002
 Charge=             -1.0000 electrons
 Dipole moment (field-independent basis, Debye):
    X=              2.6118    Y=              6.3032    Z=             -2.7272  Tot=              7.3478
 Quadrupole moment (field-independent basis, Debye-Ang):
   XX=            -76.8473   YY=            -52.7708   ZZ=            -48.4397
   XY=              5.9326   XZ=             -1.6955   YZ=             -5.0743
 Traceless Quadrupole moment (field-independent basis, Debye-Ang):
   XX=            -17.4947   YY=              6.5818   ZZ=             10.9129
   XY=              5.9326   XZ=             -1.6955   YZ=             -5.0743
 Octapole moment (field-independent basis, Debye-Ang**2):
  XXX=              3.5004  YYY=             29.7746  ZZZ=             -4.5672  XYY=            -13.2135
  XXY=             42.0490  XXZ=              2.4606  XZZ=              0.5268  YZZ=              1.8610
  YYZ=             -4.3589  XYZ=             -3.4519
 Hexadecapole moment (field-independent basis, Debye-Ang**3):
 XXXX=          -1069.2126 YYYY=           -410.9093 ZZZZ=           -183.4304 XXXY=             68.3150
 XXXZ=              2.9040 YYYX=             42.3197 YYYZ=            -10.1227 ZZZX=             -2.0255
 ZZZY=             -5.7168 XXYY=           -263.7234 XXZZ=           -180.9415 YYZZ=            -99.4174
 XXYZ=             -5.4800 YYXZ=             -0.4781 ZZXY=              2.4018
 N-N= 2.202994448915D+02 E-N=-2.117846139643D+03  KE= 7.018857966024D+02
 No NMR shielding tensors so no spin-rotation constants.
 Leave Link  601 at Wed Jan  8 01:49:26 2020, MaxMem=  4294967296 cpu:              17.9 elap:               2.3
 (Enter /home/cwagen/sw/g16/g16/l701.exe)
 ... and contract with generalized density number  0.
 Compute integral first derivatives.
 D1PCM: PCM CHGder 1st derivatives, ID1Alg=3 FixD1E=F DoIter=F DoCFld=F I1PDM=0.
 GePol: Maximum number of non-zero 1st derivatives   =     401
 Leave Link  701 at Wed Jan  8 01:49:33 2020, MaxMem=  4294967296 cpu:              73.7 elap:               6.2
 (Enter /home/cwagen/sw/g16/g16/l702.exe)
 L702 exits ... SP integral derivatives will be done elsewhere.
 Leave Link  702 at Wed Jan  8 01:49:33 2020, MaxMem=  4294967296 cpu:               1.1 elap:               0.1
 (Enter /home/cwagen/sw/g16/g16/l703.exe)
 Integral derivatives from FoFJK, PRISM(SPDF).
 Compute integral first derivatives, UseDBF=F ICtDFT=           0.
 Calling FoFJK, ICntrl=      2127 FMM=F ISym2X=0 I1Cent= 0 IOpClX= 0 NMat=1 NMatS=1 NMatT=0.
 FoFJK:  IHMeth= 1 ICntrl=    2127 DoSepK=F KAlg= 0 I1Cent=           0 FoldK=F
 IRaf=         0 NMat=       1 IRICut=       1 DoRegI=T DoRafI=F ISym2E= 0 IDoP0=0 IntGTp=1.
 FoFCou: FMM=F IPFlag=           0 FMFlag=      100000 FMFlg1=         800
         NFxFlg=           0 DoJE=F BraDBF=F KetDBF=F FulRan=T
         wScrn=  0.000000 ICntrl=      2127 IOpCl=  0 I1Cent=           0 NGrid=           0
         NMat0=    1 NMatS0=      1 NMatT0=    0 NMatD0=    1 NMtDS0=    0 NMtDT0=    0
 Symmetry not used in FoFCou.
 Leave Link  703 at Wed Jan  8 01:49:36 2020, MaxMem=  4294967296 cpu:              35.5 elap:               3.1
 (Enter /home/cwagen/sw/g16/g16/l716.exe)
 Dipole        = 1.02757952D+00 2.47987958D+00-1.07294912D+00
 ***** Axes restored to original set *****
 -------------------------------------------------------------------
 Center     Atomic                   Forces (Hartrees/Bohr)
 Number     Number              X              Y              Z
 -------------------------------------------------------------------
      1        6           0.056281407   -0.083263978   -0.103634217
      2        8          -0.006790511    0.063948309    0.111539820
      3        6          -0.019930181    0.025377124    0.011567735
      4        1          -0.000560194    0.001782339   -0.003966364
      5        1           0.001164036    0.001020798    0.000290397
      6        1           0.002518934    0.005745602   -0.004967518
      7       17           0.011122008   -0.013649003   -0.003288418
      8        6          -0.043200213    0.000287357   -0.008786305
      9        7          -0.000605285   -0.001248549    0.001244870
 -------------------------------------------------------------------
 Cartesian Forces:  Max     0.111539820 RMS     0.038942384
 Leave Link  716 at Wed Jan  8 01:49:36 2020, MaxMem=  4294967296 cpu:               1.1 elap:               0.1
 (Enter /home/cwagen/sw/g16/g16/l103.exe)

 GradGradGradGradGradGradGradGradGradGradGradGradGradGradGradGradGradGrad
 Berny optimization.
 FormGI is forming the generalized inverse of G from B-inverse, IUseBI=4.
 Internal  Forces:  Max     0.124767855 RMS     0.027359224
 Search for a local minimum.
 Step number   1 out of a maximum of   41
 All quantities printed in internal units (Hartrees-Bohrs-Radians)
 RMS Force = .26971D-01 SwitMx=.10000D-02 MixMth= 1
 Mixed Optimization -- RFO/linear search
 Second derivative matrix not updated -- first step.
 ITU=  0
     Eigenvalues ---    0.00230   0.04746   0.04746   0.05330   0.05908
     Eigenvalues ---    0.07453   0.10176   0.16000   0.16000   0.16000
     Eigenvalues ---    0.25000   0.25000   0.25000   0.26946   0.33918
     Eigenvalues ---    0.33999   0.34275   0.67840   1.220341000.00000
     Eigenvalues --- 1000.000001000.000001000.000001000.000001000.00000
     Eigenvalues --- 1000.000001000.000001000.000001000.000001000.00000
     Eigenvalues --- 1000.00000
 RFO step:  Lambda=-4.49058047D-02 EMin= 2.30000000D-03
 Linear search not attempted -- first point.
 Maximum step size (   0.300) exceeded in Quadratic search.
    -- Step size scaled by   0.925
 Iteration  1 RMS(Cart)=  0.07446950 RMS(Int)=  0.00799521
 Iteration  2 RMS(Cart)=  0.00809846 RMS(Int)=  0.00421893
 Iteration  3 RMS(Cart)=  0.00006047 RMS(Int)=  0.00421858
 Iteration  4 RMS(Cart)=  0.00000140 RMS(Int)=  0.00421858
 Iteration  5 RMS(Cart)=  0.00000002 RMS(Int)=  0.00421858
 Iteration  1 RMS(Cart)=  0.00000000 RMS(Int)=  0.00000000
 ITry= 1 IFail=0 DXMaxC= 1.84D-01 DCOld= 1.00D+10 DXMaxT= 3.00D-01 DXLimC= 3.00D+00 Rises=F
 Variable       Old X    -DE/DX   Delta X   Delta X   Delta X     New X
                                 (Linear)    (Quad)   (Total)
    R1        2.45227  -0.12477   0.00000  -0.15950  -0.15950   2.29277
    R2        2.94503  -0.02185   0.00000  -0.06426  -0.06426   2.88077
    R3        5.29123  -0.01787   0.00000   0.00000   0.00000   5.29123
    R4        3.77945  -0.04230   0.00000   0.00000   0.00000   3.77945
    R5        2.07331  -0.00330   0.00000  -0.00792  -0.00792   2.06539
    R6        2.07468  -0.00149   0.00000  -0.00358  -0.00358   2.07111
    R7        2.06868  -0.00144   0.00000  -0.00343  -0.00343   2.06525
    R8        2.20923  -0.00085   0.00000  -0.00062  -0.00062   2.20861
    A1        1.99667   0.04945   0.00000   0.16459   0.15853   2.15520
    A2        2.01908  -0.02135   0.00000  -0.08443  -0.07984   1.93924
    A3        1.89239  -0.01078   0.00000   0.02044   0.00469   1.89708
    A4        1.92419  -0.02319   0.00000  -0.09513  -0.09122   1.83297
    A5        1.77194   0.01956   0.00000   0.07495   0.06461   1.83656
    A6        1.83479  -0.01343   0.00000  -0.07576  -0.07386   1.76093
    A7        1.97398  -0.00235   0.00000  -0.01144  -0.01175   1.96223
    A8        1.87942   0.00216   0.00000   0.01294   0.01302   1.89244
    A9        1.90140  -0.01074   0.00000  -0.05088  -0.05118   1.85022
   A10        1.90356   0.00113   0.00000   0.00946   0.00949   1.91306
   A11        1.90837   0.00569   0.00000   0.01991   0.01922   1.92760
   A12        1.89554   0.00434   0.00000   0.02132   0.02146   1.91700
   A13        3.09684  -0.00289   0.00000  -0.02896  -0.02896   3.06789
   A14        2.90208   0.00176   0.00000   0.01762   0.01762   2.91970
    D1        3.04510   0.00882   0.00000   0.06385   0.06871   3.11381
    D2       -1.13357   0.01025   0.00000   0.07742   0.08212  -1.05145
    D3        0.91915   0.01080   0.00000   0.08246   0.08690   1.00605
    D4       -0.92685   0.00145   0.00000   0.00317   0.00291  -0.92394
    D5        1.17766   0.00288   0.00000   0.01674   0.01632   1.19398
    D6       -3.05280   0.00343   0.00000   0.02178   0.02110  -3.03170
    D7        1.01121  -0.01275   0.00000  -0.08086  -0.08488   0.92632
    D8        3.11572  -0.01132   0.00000  -0.06729  -0.07148   3.04424
    D9       -1.11475  -0.01077   0.00000  -0.06225  -0.06669  -1.18144
         Item               Value     Threshold  Converged?
 Maximum Force            0.124768     0.000450     NO 
 RMS     Force            0.026971     0.000300     NO 
 Maximum Displacement     0.184001     0.001800     NO 
 RMS     Displacement     0.073629     0.001200     NO 
 Predicted change in Energy=-2.549588D-02
 Lowest energy point so far.  Saving SCF results.
 GradGradGradGradGradGradGradGradGradGradGradGradGradGradGradGradGradGrad

 Leave Link  103 at Wed Jan  8 01:49:47 2020, MaxMem=  4294967296 cpu:             125.9 elap:              11.0
 (Enter /home/cwagen/sw/g16/g16/l202.exe)
                          Input orientation:                          
 ---------------------------------------------------------------------
 Center     Atomic      Atomic             Coordinates (Angstroms)
 Number     Number       Type             X           Y           Z
 ---------------------------------------------------------------------
      1          6           0       -0.148854   -0.389368   -0.246296
      2          8           0       -0.242792   -0.602329   -1.437044
      3          6           0       -0.357839   -1.459976    0.818613
      4          1           0       -0.202355   -1.077480    1.830583
      5          1           0       -1.378716   -1.847484    0.724662
      6          1           0        0.361449   -2.251861    0.595139
      7         17           0       -1.795123    1.738116    0.530628
      8          6           0        1.660424    0.376838    0.127122
      9          7           0        2.783086    0.694331    0.196353
 ---------------------------------------------------------------------
                    Distance matrix (angstroms):
                    1          2          3          4          5
     1  C    0.000000
     2  O    1.213284   0.000000
     3  C    1.524436   2.415943   0.000000
     4  H    2.188557   3.302239   1.092959   0.000000
     5  H    2.140426   2.741114   1.095984   1.788796   0.000000
     6  H    2.106490   2.686230   1.092884   1.795373   1.791220
     7  Cl   2.800000   3.429161   3.518027   3.486312   3.614910
     8  C    2.000000   2.650965   2.815214   2.913205   3.813271
     9  N    3.156995   3.674949   3.859231   3.837042   4.905154
                    6          7          8          9
     6  H    0.000000
     7  Cl   4.535954   0.000000
     8  C    2.969248   3.735867   0.000000
     9  N    3.834502   4.707571   1.168745   0.000000
 Stoichiometry    C3H3ClNO(1-)
 Framework group  C1[X(C3H3ClNO)]
 Deg. of freedom    21
 Full point group                 C1      NOp   1
 RotChk:  IX=0 Diff= 7.35D-02
 Largest Abelian subgroup         C1      NOp   1
 Largest concise Abelian subgroup C1      NOp   1
                         Standard orientation:                         
 ---------------------------------------------------------------------
 Center     Atomic      Atomic             Coordinates (Angstroms)
 Number     Number       Type             X           Y           Z
 ---------------------------------------------------------------------
      1          6           0        0.308833    0.670957    0.232498
      2          8           0        0.453613    1.075932    1.366999
      3          6           0        0.421523    1.561892   -0.999347
      4          1           0        0.285939    1.005439   -1.930227
      5          1           0       -0.337172    2.349576   -0.927820
      6          1           0        1.420136    2.004273   -0.961057
      7         17           0       -2.135805   -0.663002   -0.057840
      8          6           0        1.596393   -0.826633   -0.082800
      9          7           0        2.478627   -1.590428   -0.147958
 ---------------------------------------------------------------------
 Rotational constants (GHZ):           2.9571874           1.5188257           1.2392131
 Leave Link  202 at Wed Jan  8 01:49:48 2020, MaxMem=  4294967296 cpu:               2.2 elap:               1.0
 (Enter /home/cwagen/sw/g16/g16/l301.exe)
 Standard basis: 6-31+G(d) (6D, 7F)
 Ernie: Thresh=  0.10000D-02 Tol=  0.10000D-05 Strict=F.
 There are   124 symmetry adapted cartesian basis functions of A   symmetry.
 There are   124 symmetry adapted basis functions of A   symmetry.
   124 basis functions,   228 primitive gaussians,   124 cartesian basis functions
    27 alpha electrons       27 beta electrons
       nuclear repulsion energy       224.2982978756 Hartrees.
 IExCor=  402 DFT=T Ex+Corr=B3LYP ExCW=0 ScaHFX=  0.200000
 ScaDFX=  0.800000  0.720000  1.000000  0.810000 ScalE2=  1.000000  1.000000
 IRadAn=      5 IRanWt=     -1 IRanGd=            0 ICorTp=0 IEmpDi=  4
 NAtoms=    9 NActive=    9 NUniq=    9 SFac= 1.00D+00 NAtFMM=   60 NAOKFM=F Big=F
 Integral buffers will be    131072 words long.
 Raffenetti 2 integral format.
 Two-electron integral symmetry is turned on.
 ------------------------------------------------------------------------------
 Polarizable Continuum Model (PCM)
 =================================
 Model                : PCM.
 Atomic radii         : SMD-Coulomb.
 Polarization charges : Total charges.
 Charge compensation  : None.
 Solution method      : On-the-fly selection.
 Cavity type          : VdW (van der Waals Surface) (Alpha=1.000).
 Cavity algorithm     : GePol (No added spheres)
                        Default sphere list used, NSphG=    9.
                        Lebedev-Laikov grids with approx.  5.0 points / Ang**2.
                        Smoothing algorithm: York/Karplus (Gamma=1.0000).
                        Polarization charges: spherical gaussians, with
                                              point-specific exponents (IZeta= 3).
                        Self-potential: point-specific (ISelfS= 7).
                        Self-field    : sphere-specific E.n sum rule (ISelfD= 2).
 1st derivatives      : Analytical E(r).r(x)/FMM algorithm (CHGder, D1EAlg=3).
                        Cavity 1st derivative terms included.
 Solvent              : TetraHydroFuran, Eps=   7.425700 Eps(inf)=   1.974025
 ------------------------------------------------------------------------------
 Spheres list:
 ISph  on   Nord     Re0    Alpha      Xe            Ye            Ze
    1   C      1    1.8500  1.000      0.308833      0.670957      0.232498
    2   O      2    2.2940  1.000      0.453613      1.075932      1.366999
    3   C      3    1.8500  1.000      0.421523      1.561892     -0.999347
    4   H      4    1.2000  1.000      0.285939      1.005439     -1.930227
    5   H      5    1.2000  1.000     -0.337172      2.349576     -0.927820
    6   H      6    1.2000  1.000      1.420136      2.004273     -0.961057
    7  Cl      7    2.3800  1.000     -2.135805     -0.663002     -0.057840
    8   C      8    1.8500  1.000      1.596393     -0.826633     -0.082800
    9   N      9    1.8900  1.000      2.478627     -1.590428     -0.147958
 ------------------------------------------------------------------------------
 GePol: Number of generator spheres                  =       9
 GePol: Total number of spheres                      =       9
 GePol: Number of exposed spheres                    =       9 (100.00%)
 GePol: Number of points                             =    1265
 GePol: Average weight of points                     =       0.14
 GePol: Minimum weight of points                     =   0.11D-06
 GePol: Maximum weight of points                     =    0.18138
 GePol: Number of points with low weight             =      42
 GePol: Fraction of low-weight points (<1% of avg)   =       3.32%
 GePol: Cavity surface area                          =    172.928 Ang**2
 GePol: Cavity volume                                =    155.129 Ang**3
 ------------------------------------------------------------------------------
 Atomic radii for non-electrostatic terms: SMD-CDS.
 ------------------------------------------------------------------------------
 PCM non-electrostatic energy =         0.0000263621 Hartrees.
 Nuclear repulsion after PCM non-electrostatic terms =      224.2983242377 Hartrees.
 Leave Link  301 at Wed Jan  8 01:49:48 2020, MaxMem=  4294967296 cpu:               2.6 elap:               0.3
 (Enter /home/cwagen/sw/g16/g16/l302.exe)
 NPDir=0 NMtPBC=     1 NCelOv=     1 NCel=       1 NClECP=     1 NCelD=      1
         NCelK=      1 NCelE2=     1 NClLst=     1 CellRange=     0.0.
 One-electron integrals computed using PRISM.
 One-electron integral symmetry used in STVInt
 NBasis=   124 RedAO= T EigKep=  1.24D-04  NBF=   124
 NBsUse=   124 1.00D-06 EigRej= -1.00D+00 NBFU=   124
 Precomputing XC quadrature grid using
 IXCGrd= 4 IRadAn=           5 IRanWt=          -1 IRanGd=           0 AccXCQ= 0.00D+00.
 Generated NRdTot=       0 NPtTot=           0 NUsed=           0 NTot=          32
 NSgBfM=   124   124   124   124   124 MxSgAt=     9 MxSgA2=     9.
 Leave Link  302 at Wed Jan  8 01:49:51 2020, MaxMem=  4294967296 cpu:              33.9 elap:               2.8
 (Enter /home/cwagen/sw/g16/g16/l303.exe)
 DipDrv:  MaxL=1.
 Leave Link  303 at Wed Jan  8 01:49:52 2020, MaxMem=  4294967296 cpu:               4.9 elap:               0.5
 (Enter /home/cwagen/sw/g16/g16/l401.exe)
 Initial guess from the checkpoint file:  "/scratch/users/cwagen/cwagen_scan_280_200/Gau-42925.chk"
 B after Tr=     0.000000    0.000000    0.000000
         Rot=    0.999761   -0.010034   -0.004063   -0.018986 Ang=  -2.50 deg.
 Guess basis will be translated and rotated to current coordinates.
 JPrj=2 DoOrth=T DoCkMO=T.
 Generating alternative initial guess.
 ExpMin= 4.38D-02 ExpMax= 2.52D+04 ExpMxC= 3.78D+03 IAcc=2 IRadAn=         4 AccDes= 0.00D+00
 Harris functional with IExCor=  402 and IRadAn=       4 diagonalized for initial guess.
 HarFok:  IExCor=  402 AccDes= 0.00D+00 IRadAn=         4 IDoV= 1 UseB2=F ITyADJ=14
 ICtDFT=  3500011 ScaDFX=  1.000000  1.000000  1.000000  1.000000
 FoFCou: FMM=F IPFlag=           0 FMFlag=      100000 FMFlg1=           0
         NFxFlg=           0 DoJE=T BraDBF=F KetDBF=T FulRan=T
         wScrn=  0.000000 ICntrl=       500 IOpCl=  0 I1Cent=   200000004 NGrid=           0
         NMat0=    1 NMatS0=      1 NMatT0=    0 NMatD0=    1 NMtDS0=    0 NMtDT0=    0
 Petite list used in FoFCou.
 Harris En= -706.378309253311    
 Leave Link  401 at Wed Jan  8 01:49:58 2020, MaxMem=  4294967296 cpu:              78.3 elap:               6.3
 (Enter /home/cwagen/sw/g16/g16/l502.exe)
 Keep R1 ints in memory in canonical form, NReq=45236517.
 FoFCou: FMM=F IPFlag=           0 FMFlag=           0 FMFlg1=           0
         NFxFlg=           0 DoJE=F BraDBF=F KetDBF=F FulRan=T
         wScrn=  0.000000 ICntrl=       600 IOpCl=  0 I1Cent=           0 NGrid=           0
         NMat0=    1 NMatS0=   7750 NMatT0=    0 NMatD0=    1 NMtDS0=    0 NMtDT0=    0
 Symmetry not used in FoFCou.
 Two-electron integral symmetry not used.
 Closed shell SCF:
 Using DIIS extrapolation, IDIIS=  1040.
 NGot=  4294967296 LenX=  4264898079 LenY=  4264882262
 Requested convergence on RMS density matrix=1.00D-08 within 128 cycles.
 Requested convergence on MAX density matrix=1.00D-06.
 Requested convergence on             energy=1.00D-06.
 No special actions if energy rises.

 Cycle   1  Pass 1  IDiag  1:
 Inv3:  Mode=1 IEnd=     4800675.
 Iteration    1 A*A^-1 deviation from unit magnitude is 4.33D-15 for   1245.
 Iteration    1 A*A^-1 deviation from orthogonality  is 1.73D-15 for   1263   1083.
 Iteration    1 A^-1*A deviation from unit magnitude is 3.66D-15 for   1245.
 Iteration    1 A^-1*A deviation from orthogonality  is 2.18D-15 for   1263   1083.
 E= -706.383449947848    
 DIIS: error= 5.50D-03 at cycle   1 NSaved=   1.
 NSaved= 1 IEnMin= 1 EnMin= -706.383449947848     IErMin= 1 ErrMin= 5.50D-03
 ErrMax= 5.50D-03  0.00D+00 EMaxC= 1.00D-01 BMatC= 9.99D-03 BMatP= 9.99D-03
 IDIUse=3 WtCom= 9.45D-01 WtEn= 5.50D-02
 Coeff-Com:  0.100D+01
 Coeff-En:   0.100D+01
 Coeff:      0.100D+01
 Gap=     0.567 Goal=   None    Shift=    0.000
 GapD=    0.567 DampG=2.000 DampE=1.000 DampFc=2.0000 IDamp=-1.
 RMSDP=1.99D-03 MaxDP=4.60D-02              OVMax= 4.25D-02

 Cycle   2  Pass 1  IDiag  1:
 E= -706.399464751762     Delta-E=       -0.016014803914 Rises=F Damp=F
 DIIS: error= 1.64D-03 at cycle   2 NSaved=   2.
 NSaved= 2 IEnMin= 2 EnMin= -706.399464751762     IErMin= 2 ErrMin= 1.64D-03
 ErrMax= 1.64D-03  0.00D+00 EMaxC= 1.00D-01 BMatC= 7.84D-04 BMatP= 9.99D-03
 IDIUse=3 WtCom= 9.84D-01 WtEn= 1.64D-02
 Coeff-Com:  0.871D-01 0.913D+00
 Coeff-En:   0.000D+00 0.100D+01
 Coeff:      0.856D-01 0.914D+00
 Gap=     0.161 Goal=   None    Shift=    0.000
 RMSDP=5.79D-04 MaxDP=1.46D-02 DE=-1.60D-02 OVMax= 2.51D-02

 Cycle   3  Pass 1  IDiag  1:
 E= -706.398723432705     Delta-E=        0.000741319057 Rises=F Damp=F
 DIIS: error= 2.57D-03 at cycle   3 NSaved=   3.
 NSaved= 3 IEnMin= 2 EnMin= -706.399464751762     IErMin= 2 ErrMin= 1.64D-03
 ErrMax= 2.57D-03  0.00D+00 EMaxC= 1.00D-01 BMatC= 1.70D-03 BMatP= 7.84D-04
 IDIUse=3 WtCom= 1.65D-01 WtEn= 8.35D-01
 Coeff-Com: -0.211D-01 0.611D+00 0.410D+00
 Coeff-En:   0.000D+00 0.651D+00 0.349D+00
 Coeff:     -0.348D-02 0.644D+00 0.359D+00
 Gap=     0.154 Goal=   None    Shift=    0.000
 RMSDP=3.86D-04 MaxDP=1.05D-02 DE= 7.41D-04 OVMax= 1.47D-02

 Cycle   4  Pass 1  IDiag  1:
 E= -706.400156759639     Delta-E=       -0.001433326933 Rises=F Damp=F
 DIIS: error= 6.27D-04 at cycle   4 NSaved=   4.
 NSaved= 4 IEnMin= 4 EnMin= -706.400156759639     IErMin= 4 ErrMin= 6.27D-04
 ErrMax= 6.27D-04  0.00D+00 EMaxC= 1.00D-01 BMatC= 8.04D-05 BMatP= 7.84D-04
 IDIUse=3 WtCom= 9.94D-01 WtEn= 6.27D-03
 Coeff-Com: -0.237D-01 0.271D+00 0.221D+00 0.531D+00
 Coeff-En:   0.000D+00 0.000D+00 0.000D+00 0.100D+01
 Coeff:     -0.236D-01 0.269D+00 0.220D+00 0.534D+00
 Gap=     0.152 Goal=   None    Shift=    0.000
 RMSDP=1.30D-04 MaxDP=4.10D-03 DE=-1.43D-03 OVMax= 2.60D-03

 Cycle   5  Pass 1  IDiag  1:
 E= -706.400216691631     Delta-E=       -0.000059931992 Rises=F Damp=F
 DIIS: error= 2.28D-04 at cycle   5 NSaved=   5.
 NSaved= 5 IEnMin= 5 EnMin= -706.400216691631     IErMin= 5 ErrMin= 2.28D-04
 ErrMax= 2.28D-04  0.00D+00 EMaxC= 1.00D-01 BMatC= 1.22D-05 BMatP= 8.04D-05
 IDIUse=3 WtCom= 9.98D-01 WtEn= 2.28D-03
 Coeff-Com: -0.805D-02 0.823D-01 0.869D-01 0.308D+00 0.530D+00
 Coeff-En:   0.000D+00 0.000D+00 0.000D+00 0.125D+00 0.875D+00
 Coeff:     -0.803D-02 0.821D-01 0.867D-01 0.308D+00 0.531D+00
 Gap=     0.154 Goal=   None    Shift=    0.000
 RMSDP=7.45D-05 MaxDP=3.23D-03 DE=-5.99D-05 OVMax= 1.95D-03

 Cycle   6  Pass 1  IDiag  1:
 E= -706.400230122747     Delta-E=       -0.000013431116 Rises=F Damp=F
 DIIS: error= 7.58D-05 at cycle   6 NSaved=   6.
 NSaved= 6 IEnMin= 6 EnMin= -706.400230122747     IErMin= 6 ErrMin= 7.58D-05
 ErrMax= 7.58D-05  0.00D+00 EMaxC= 1.00D-01 BMatC= 1.29D-06 BMatP= 1.22D-05
 IDIUse=1 WtCom= 1.00D+00 WtEn= 0.00D+00
 Coeff-Com: -0.231D-02 0.165D-01 0.251D-01 0.119D+00 0.304D+00 0.537D+00
 Coeff:     -0.231D-02 0.165D-01 0.251D-01 0.119D+00 0.304D+00 0.537D+00
 Gap=     0.153 Goal=   None    Shift=    0.000
 RMSDP=1.47D-05 MaxDP=5.01D-04 DE=-1.34D-05 OVMax= 4.14D-04

 Cycle   7  Pass 1  IDiag  1:
 E= -706.400231231394     Delta-E=       -0.000001108647 Rises=F Damp=F
 DIIS: error= 4.42D-05 at cycle   7 NSaved=   7.
 NSaved= 7 IEnMin= 7 EnMin= -706.400231231394     IErMin= 7 ErrMin= 4.42D-05
 ErrMax= 4.42D-05  0.00D+00 EMaxC= 1.00D-01 BMatC= 2.61D-07 BMatP= 1.29D-06
 IDIUse=1 WtCom= 1.00D+00 WtEn= 0.00D+00
 Coeff-Com: -0.500D-03-0.550D-03 0.476D-02 0.406D-01 0.145D+00 0.354D+00
 Coeff-Com:  0.457D+00
 Coeff:     -0.500D-03-0.550D-03 0.476D-02 0.406D-01 0.145D+00 0.354D+00
 Coeff:      0.457D+00
 Gap=     0.153 Goal=   None    Shift=    0.000
 RMSDP=4.81D-06 MaxDP=1.14D-04 DE=-1.11D-06 OVMax= 2.08D-04

 Cycle   8  Pass 1  IDiag  1:
 E= -706.400231448165     Delta-E=       -0.000000216771 Rises=F Damp=F
 DIIS: error= 1.58D-05 at cycle   8 NSaved=   8.
 NSaved= 8 IEnMin= 8 EnMin= -706.400231448165     IErMin= 8 ErrMin= 1.58D-05
 ErrMax= 1.58D-05  0.00D+00 EMaxC= 1.00D-01 BMatC= 2.93D-08 BMatP= 2.61D-07
 IDIUse=1 WtCom= 1.00D+00 WtEn= 0.00D+00
 Coeff-Com:  0.173D-03-0.368D-02-0.254D-02 0.545D-03 0.318D-01 0.974D-01
 Coeff-Com:  0.279D+00 0.597D+00
 Coeff:      0.173D-03-0.368D-02-0.254D-02 0.545D-03 0.318D-01 0.974D-01
 Coeff:      0.279D+00 0.597D+00
 Gap=     0.153 Goal=   None    Shift=    0.000
 RMSDP=2.16D-06 MaxDP=6.51D-05 DE=-2.17D-07 OVMax= 6.12D-05

 Cycle   9  Pass 1  IDiag  1:
 E= -706.400231474336     Delta-E=       -0.000000026171 Rises=F Damp=F
 DIIS: error= 2.77D-06 at cycle   9 NSaved=   9.
 NSaved= 9 IEnMin= 9 EnMin= -706.400231474336     IErMin= 9 ErrMin= 2.77D-06
 ErrMax= 2.77D-06  0.00D+00 EMaxC= 1.00D-01 BMatC= 1.94D-09 BMatP= 2.93D-08
 IDIUse=1 WtCom= 1.00D+00 WtEn= 0.00D+00
 Coeff-Com:  0.111D-03-0.172D-02-0.181D-02-0.268D-02 0.615D-02 0.176D-01
 Coeff-Com:  0.102D+00 0.286D+00 0.595D+00
 Coeff:      0.111D-03-0.172D-02-0.181D-02-0.268D-02 0.615D-02 0.176D-01
 Coeff:      0.102D+00 0.286D+00 0.595D+00
 Gap=     0.153 Goal=   None    Shift=    0.000
 RMSDP=8.04D-07 MaxDP=3.17D-05 DE=-2.62D-08 OVMax= 3.03D-05

 Cycle  10  Pass 1  IDiag  1:
 E= -706.400231476796     Delta-E=       -0.000000002460 Rises=F Damp=F
 DIIS: error= 6.84D-07 at cycle  10 NSaved=  10.
 NSaved=10 IEnMin=10 EnMin= -706.400231476796     IErMin=10 ErrMin= 6.84D-07
 ErrMax= 6.84D-07  0.00D+00 EMaxC= 1.00D-01 BMatC= 1.39D-10 BMatP= 1.94D-09
 IDIUse=1 WtCom= 1.00D+00 WtEn= 0.00D+00
 Coeff-Com:  0.264D-04-0.213D-03-0.488D-03-0.107D-02-0.929D-03-0.576D-02
 Coeff-Com:  0.433D-02 0.400D-01 0.240D+00 0.724D+00
 Coeff:      0.264D-04-0.213D-03-0.488D-03-0.107D-02-0.929D-03-0.576D-02
 Coeff:      0.433D-02 0.400D-01 0.240D+00 0.724D+00
 Gap=     0.153 Goal=   None    Shift=    0.000
 RMSDP=1.98D-07 MaxDP=7.31D-06 DE=-2.46D-09 OVMax= 5.62D-06

 Cycle  11  Pass 1  IDiag  1:
 E= -706.400231476968     Delta-E=       -0.000000000172 Rises=F Damp=F
 DIIS: error= 1.45D-07 at cycle  11 NSaved=  11.
 NSaved=11 IEnMin=11 EnMin= -706.400231476968     IErMin=11 ErrMin= 1.45D-07
 ErrMax= 1.45D-07  0.00D+00 EMaxC= 1.00D-01 BMatC= 2.31D-12 BMatP= 1.39D-10
 IDIUse=1 WtCom= 1.00D+00 WtEn= 0.00D+00
 Coeff-Com:  0.213D-05 0.211D-04-0.407D-04-0.182D-03-0.509D-03-0.220D-02
 Coeff-Com: -0.380D-02-0.146D-02 0.340D-01 0.181D+00 0.793D+00
 Coeff:      0.213D-05 0.211D-04-0.407D-04-0.182D-03-0.509D-03-0.220D-02
 Coeff:     -0.380D-02-0.146D-02 0.340D-01 0.181D+00 0.793D+00
 Gap=     0.153 Goal=   None    Shift=    0.000
 RMSDP=7.62D-08 MaxDP=3.62D-06 DE=-1.72D-10 OVMax= 8.69D-07

 Cycle  12  Pass 1  IDiag  1:
 E= -706.400231476972     Delta-E=       -0.000000000004 Rises=F Damp=F
 DIIS: error= 2.41D-08 at cycle  12 NSaved=  12.
 NSaved=12 IEnMin=12 EnMin= -706.400231476972     IErMin=12 ErrMin= 2.41D-08
 ErrMax= 2.41D-08  0.00D+00 EMaxC= 1.00D-01 BMatC= 1.44D-13 BMatP= 2.31D-12
 IDIUse=1 WtCom= 1.00D+00 WtEn= 0.00D+00
 Coeff-Com: -0.363D-06 0.106D-04 0.119D-04-0.572D-05-0.692D-04-0.177D-03
 Coeff-Com: -0.101D-02-0.139D-02-0.161D-02 0.967D-02 0.175D+00 0.820D+00
 Coeff:     -0.363D-06 0.106D-04 0.119D-04-0.572D-05-0.692D-04-0.177D-03
 Coeff:     -0.101D-02-0.139D-02-0.161D-02 0.967D-02 0.175D+00 0.820D+00
 Gap=     0.153 Goal=   None    Shift=    0.000
 RMSDP=1.25D-08 MaxDP=5.46D-07 DE=-3.64D-12 OVMax= 2.15D-07

 Cycle  13  Pass 1  IDiag  1:
 E= -706.400231476971     Delta-E=        0.000000000001 Rises=F Damp=F
 DIIS: error= 7.02D-09 at cycle  13 NSaved=  13.
 NSaved=13 IEnMin=12 EnMin= -706.400231476972     IErMin=13 ErrMin= 7.02D-09
 ErrMax= 7.02D-09  0.00D+00 EMaxC= 1.00D-01 BMatC= 1.41D-14 BMatP= 1.44D-13
 IDIUse=1 WtCom= 1.00D+00 WtEn= 0.00D+00
 Coeff-Com: -0.291D-06 0.339D-05 0.676D-05 0.604D-05-0.315D-05 0.308D-04
 Coeff-Com: -0.223D-03-0.456D-03-0.233D-02-0.553D-02 0.297D-01 0.335D+00
 Coeff-Com:  0.644D+00
 Coeff:     -0.291D-06 0.339D-05 0.676D-05 0.604D-05-0.315D-05 0.308D-04
 Coeff:     -0.223D-03-0.456D-03-0.233D-02-0.553D-02 0.297D-01 0.335D+00
 Coeff:      0.644D+00
 Gap=     0.153 Goal=   None    Shift=    0.000
 RMSDP=1.63D-09 MaxDP=3.40D-08 DE= 7.96D-13 OVMax= 7.21D-08

 Error on total polarization charges =  0.02425
 SCF Done:  E(RB3LYP) =  -706.400231477     A.U. after   13 cycles
            NFock= 13  Conv=0.16D-08     -V/T= 2.0060
 KE= 7.021722852981D+02 PE=-2.126100800669D+03 EE= 4.932299596561D+02
 SMD-CDS (non-electrostatic) energy       (kcal/mol) =       0.02
 (included in total energy above)
 Leave Link  502 at Wed Jan  8 01:50:48 2020, MaxMem=  4294967296 cpu:             619.7 elap:              50.0
 (Enter /home/cwagen/sw/g16/g16/l701.exe)
 ... and contract with generalized density number  0.
 Compute integral first derivatives.
 D1PCM: PCM CHGder 1st derivatives, ID1Alg=3 FixD1E=F DoIter=F DoCFld=F I1PDM=0.
 GePol: Maximum number of non-zero 1st derivatives   =     393
 Leave Link  701 at Wed Jan  8 01:50:55 2020, MaxMem=  4294967296 cpu:              82.8 elap:               7.2
 (Enter /home/cwagen/sw/g16/g16/l702.exe)
 L702 exits ... SP integral derivatives will be done elsewhere.
 Leave Link  702 at Wed Jan  8 01:50:55 2020, MaxMem=  4294967296 cpu:               1.6 elap:               0.2
 (Enter /home/cwagen/sw/g16/g16/l703.exe)
 Integral derivatives from FoFJK, PRISM(SPDF).
 Compute integral first derivatives, UseDBF=F ICtDFT=           0.
 Calling FoFJK, ICntrl=      2127 FMM=F ISym2X=0 I1Cent= 0 IOpClX= 0 NMat=1 NMatS=1 NMatT=0.
 FoFJK:  IHMeth= 1 ICntrl=    2127 DoSepK=F KAlg= 0 I1Cent=           0 FoldK=F
 IRaf=         0 NMat=       1 IRICut=       1 DoRegI=T DoRafI=F ISym2E= 0 IDoP0=0 IntGTp=1.
 FoFCou: FMM=F IPFlag=           0 FMFlag=      100000 FMFlg1=         800
         NFxFlg=           0 DoJE=F BraDBF=F KetDBF=F FulRan=T
         wScrn=  0.000000 ICntrl=      2127 IOpCl=  0 I1Cent=           0 NGrid=           0
         NMat0=    1 NMatS0=      1 NMatT0=    0 NMatD0=    1 NMtDS0=    0 NMtDT0=    0
 Symmetry not used in FoFCou.
 Leave Link  703 at Wed Jan  8 01:50:58 2020, MaxMem=  4294967296 cpu:              34.8 elap:               2.4
 (Enter /home/cwagen/sw/g16/g16/l716.exe)
 Dipole        = 1.14690787D+00 2.92987170D+00-9.12692153D-01
 ***** Axes restored to original set *****
 -------------------------------------------------------------------
 Center     Atomic                   Forces (Hartrees/Bohr)
 Number     Number              X              Y              Z
 -------------------------------------------------------------------
      1        6           0.049055026   -0.034970327   -0.044960681
      2        8          -0.009692746    0.028187837    0.045682996
      3        6          -0.012167718    0.022284071    0.007475442
      4        1           0.000383902    0.000024985   -0.001906010
      5        1           0.000867334    0.000192587   -0.000572538
      6        1           0.002248797    0.000718895   -0.001458947
      7       17           0.006804442   -0.009739394   -0.002061890
      8        6          -0.038046466   -0.006938045   -0.002299537
      9        7           0.000547430    0.000239391    0.000101165
 -------------------------------------------------------------------
 Cartesian Forces:  Max     0.049055026 RMS     0.020171552
 Leave Link  716 at Wed Jan  8 01:50:58 2020, MaxMem=  4294967296 cpu:               0.9 elap:               0.1
 (Enter /home/cwagen/sw/g16/g16/l103.exe)

 GradGradGradGradGradGradGradGradGradGradGradGradGradGradGradGradGradGrad
 Berny optimization.
 Using GEDIIS/GDIIS optimizer.
 FormGI is forming the generalized inverse of G from B-inverse, IUseBI=4.
 Internal  Forces:  Max     0.049038072 RMS     0.013892187
 Search for a local minimum.
 Step number   2 out of a maximum of   41
 All quantities printed in internal units (Hartrees-Bohrs-Radians)
 RMS Force = .12426D-01 SwitMx=.10000D-02 MixMth= 1
 Mixed Optimization -- RFO/linear search
 Update second derivatives using D2CorX and points    1    2
 DE= -3.19D-02 DEPred=-2.55D-02 R= 1.25D+00
 TightC=F SS=  1.41D+00  RLast= 3.47D-01 DXNew= 5.0454D-01 1.0420D+00
 Trust test= 1.25D+00 RLast= 3.47D-01 DXMaxT set to 5.05D-01
 ITU=  1  0
 Use linear search instead of GDIIS.
     Eigenvalues ---    0.00230   0.04746   0.04761   0.05374   0.05498
     Eigenvalues ---    0.06099   0.09049   0.15992   0.16000   0.16129
     Eigenvalues ---    0.21064   0.25000   0.26241   0.26750   0.33916
     Eigenvalues ---    0.33991   0.34302   0.60503   1.220451000.00000
     Eigenvalues --- 1000.000001000.000001000.000001000.000001000.00000
     Eigenvalues --- 1000.000001000.000001000.000001000.000001000.00000
     Eigenvalues --- 1000.00000
 RFO step:  Lambda=-3.69959845D-03 EMin= 2.30126232D-03
 Quartic linear search produced a step of  0.71643.
 Iteration  1 RMS(Cart)=  0.09028911 RMS(Int)=  0.01224360
 Iteration  2 RMS(Cart)=  0.01038245 RMS(Int)=  0.00762496
 Iteration  3 RMS(Cart)=  0.00012462 RMS(Int)=  0.00762426
 Iteration  4 RMS(Cart)=  0.00000316 RMS(Int)=  0.00762426
 Iteration  5 RMS(Cart)=  0.00000005 RMS(Int)=  0.00762426
 Iteration  1 RMS(Cart)=  0.00000000 RMS(Int)=  0.00000000
 ITry= 1 IFail=0 DXMaxC= 2.42D-01 DCOld= 1.00D+10 DXMaxT= 5.05D-01 DXLimC= 3.00D+00 Rises=F
 Variable       Old X    -DE/DX   Delta X   Delta X   Delta X     New X
                                 (Linear)    (Quad)   (Total)
    R1        2.29277  -0.04904  -0.11427   0.00484  -0.10943   2.18334
    R2        2.88077  -0.01267  -0.04604  -0.01597  -0.06201   2.81876
    R3        5.29123  -0.01196   0.00000   0.00000   0.00000   5.29123
    R4        3.77945  -0.03691   0.00000   0.00000   0.00000   3.77945
    R5        2.06539  -0.00169  -0.00567  -0.00111  -0.00678   2.05861
    R6        2.07111  -0.00079  -0.00256  -0.00066  -0.00322   2.06789
    R7        2.06525   0.00120  -0.00246   0.00923   0.00678   2.07203
    R8        2.20861   0.00062  -0.00045   0.00135   0.00090   2.20951
    A1        2.15520   0.02933   0.11357   0.05552   0.15580   2.31100
    A2        1.93924  -0.01077  -0.05720  -0.03023  -0.07542   1.86382
    A3        1.89708  -0.00316   0.00336   0.06385   0.04113   1.93821
    A4        1.83297  -0.01663  -0.06535  -0.06325  -0.11968   1.71329
    A5        1.83656   0.00083   0.04629  -0.02660  -0.00262   1.83393
    A6        1.76093  -0.00555  -0.05291  -0.01292  -0.06634   1.69459
    A7        1.96223  -0.00064  -0.00842   0.00815  -0.00049   1.96174
    A8        1.89244   0.00018   0.00932  -0.01313  -0.00377   1.88867
    A9        1.85022  -0.00325  -0.03666   0.02676  -0.01015   1.84008
   A10        1.91306   0.00091   0.00680   0.00051   0.00734   1.92040
   A11        1.92760   0.00127   0.01377  -0.01040   0.00286   1.93045
   A12        1.91700   0.00147   0.01537  -0.01184   0.00359   1.92059
   A13        3.06789  -0.00021  -0.02075   0.06210   0.04135   3.10923
   A14        2.91970  -0.00002   0.01262  -0.04274  -0.03012   2.88958
    D1        3.11381   0.00888   0.04923   0.02504   0.08140  -3.08797
    D2       -1.05145   0.00973   0.05883   0.02190   0.08773  -0.96372
    D3        1.00605   0.00981   0.06226   0.01566   0.08475   1.09080
    D4       -0.92394   0.00085   0.00209  -0.03849  -0.03902  -0.96296
    D5        1.19398   0.00170   0.01169  -0.04163  -0.03269   1.16129
    D6       -3.03170   0.00178   0.01512  -0.04787  -0.03567  -3.06737
    D7        0.92632  -0.01093  -0.06081  -0.08495  -0.14985   0.77648
    D8        3.04424  -0.01008  -0.05121  -0.08808  -0.14352   2.90073
    D9       -1.18144  -0.01000  -0.04778  -0.09433  -0.14650  -1.32794
         Item               Value     Threshold  Converged?
 Maximum Force            0.049038     0.000450     NO 
 RMS     Force            0.012426     0.000300     NO 
 Maximum Displacement     0.242123     0.001800     NO 
 RMS     Displacement     0.092609     0.001200     NO 
 Predicted change in Energy=-1.423849D-02
 Lowest energy point so far.  Saving SCF results.
 GradGradGradGradGradGradGradGradGradGradGradGradGradGradGradGradGradGrad

 Leave Link  103 at Wed Jan  8 01:51:04 2020, MaxMem=  4294967296 cpu:              84.9 elap:               6.2
 (Enter /home/cwagen/sw/g16/g16/l202.exe)
                          Input orientation:                          
 ---------------------------------------------------------------------
 Center     Atomic      Atomic             Coordinates (Angstroms)
 Number     Number       Type             X           Y           Z
 ---------------------------------------------------------------------
      1          6           0       -0.101416   -0.487181   -0.307827
      2          8           0       -0.245816   -0.565597   -1.451458
      3          6           0       -0.364341   -1.442436    0.807208
      4          1           0       -0.155387   -1.007896    1.784061
      5          1           0       -1.412120   -1.753091    0.751532
      6          1           0        0.292374   -2.299807    0.617769
      7         17           0       -1.734907    1.609990    0.571709
      8          6           0        1.653218    0.362746    0.138136
      9          7           0        2.747675    0.764059    0.228632
 ---------------------------------------------------------------------
                    Distance matrix (angstroms):
                    1          2          3          4          5
     1  C    0.000000
     2  O    1.155375   0.000000
     3  C    1.491624   2.425791   0.000000
     4  H    2.156398   3.266862   1.089370   0.000000
     5  H    2.107774   2.761081   1.094279   1.789080   0.000000
     6  H    2.073020   2.752968   1.096470   1.797153   1.795018
     7  Cl   2.800000   3.323217   3.354283   3.289074   3.383318
     8  C    2.000000   2.644799   2.788706   2.803352   3.774826
     9  N    3.157644   3.681260   3.858499   3.739914   4.890129
                    6          7          8          9
     6  H    0.000000
     7  Cl   4.404373   0.000000
     8  C    3.028387   3.636343   0.000000
     9  N    3.945530   4.574587   1.169221   0.000000
 Stoichiometry    C3H3ClNO(1-)
 Framework group  C1[X(C3H3ClNO)]
 Deg. of freedom    21
 Full point group                 C1      NOp   1
 RotChk:  IX=0 Diff= 1.06D-01
 Largest Abelian subgroup         C1      NOp   1
 Largest concise Abelian subgroup C1      NOp   1
                         Standard orientation:                         
 ---------------------------------------------------------------------
 Center     Atomic      Atomic             Coordinates (Angstroms)
 Number     Number       Type             X           Y           Z
 ---------------------------------------------------------------------
      1          6           0        0.331614    0.756558    0.251519
      2          8           0        0.374829    1.101022    1.353503
      3          6           0        0.269435    1.507797   -1.035616
      4          1           0        0.185547    0.847510   -1.898003
      5          1           0       -0.590278    2.183645   -0.995979
      6          1           0        1.200044    2.085839   -1.081243
      7         17           0       -2.024671   -0.727652   -0.040099
      8          6           0        1.611385   -0.743542   -0.082977
      9          7           0        2.478694   -1.525709   -0.138381
 ---------------------------------------------------------------------
 Rotational constants (GHZ):           2.9750762           1.6033208           1.3019765
 Leave Link  202 at Wed Jan  8 01:51:05 2020, MaxMem=  4294967296 cpu:               1.8 elap:               0.9
 (Enter /home/cwagen/sw/g16/g16/l301.exe)
 Standard basis: 6-31+G(d) (6D, 7F)
 Ernie: Thresh=  0.10000D-02 Tol=  0.10000D-05 Strict=F.
 There are   124 symmetry adapted cartesian basis functions of A   symmetry.
 There are   124 symmetry adapted basis functions of A   symmetry.
   124 basis functions,   228 primitive gaussians,   124 cartesian basis functions
    27 alpha electrons       27 beta electrons
       nuclear repulsion energy       228.2988109929 Hartrees.
 IExCor=  402 DFT=T Ex+Corr=B3LYP ExCW=0 ScaHFX=  0.200000
 ScaDFX=  0.800000  0.720000  1.000000  0.810000 ScalE2=  1.000000  1.000000
 IRadAn=      5 IRanWt=     -1 IRanGd=            0 ICorTp=0 IEmpDi=  4
 NAtoms=    9 NActive=    9 NUniq=    9 SFac= 1.00D+00 NAtFMM=   60 NAOKFM=F Big=F
 Integral buffers will be    131072 words long.
 Raffenetti 2 integral format.
 Two-electron integral symmetry is turned on.
 ------------------------------------------------------------------------------
 Polarizable Continuum Model (PCM)
 =================================
 Model                : PCM.
 Atomic radii         : SMD-Coulomb.
 Polarization charges : Total charges.
 Charge compensation  : None.
 Solution method      : On-the-fly selection.
 Cavity type          : VdW (van der Waals Surface) (Alpha=1.000).
 Cavity algorithm     : GePol (No added spheres)
                        Default sphere list used, NSphG=    9.
                        Lebedev-Laikov grids with approx.  5.0 points / Ang**2.
                        Smoothing algorithm: York/Karplus (Gamma=1.0000).
                        Polarization charges: spherical gaussians, with
                                              point-specific exponents (IZeta= 3).
                        Self-potential: point-specific (ISelfS= 7).
                        Self-field    : sphere-specific E.n sum rule (ISelfD= 2).
 1st derivatives      : Analytical E(r).r(x)/FMM algorithm (CHGder, D1EAlg=3).
                        Cavity 1st derivative terms included.
 Solvent              : TetraHydroFuran, Eps=   7.425700 Eps(inf)=   1.974025
 ------------------------------------------------------------------------------
 Spheres list:
 ISph  on   Nord     Re0    Alpha      Xe            Ye            Ze
    1   C      1    1.8500  1.000      0.331614      0.756558      0.251519
    2   O      2    2.2940  1.000      0.374829      1.101022      1.353503
    3   C      3    1.8500  1.000      0.269435      1.507797     -1.035616
    4   H      4    1.2000  1.000      0.185547      0.847510     -1.898003
    5   H      5    1.2000  1.000     -0.590278      2.183645     -0.995979
    6   H      6    1.2000  1.000      1.200044      2.085839     -1.081243
    7  Cl      7    2.3800  1.000     -2.024671     -0.727652     -0.040099
    8   C      8    1.8500  1.000      1.611385     -0.743542     -0.082977
    9   N      9    1.8900  1.000      2.478694     -1.525709     -0.138381
 ------------------------------------------------------------------------------
 GePol: Number of generator spheres                  =       9
 GePol: Total number of spheres                      =       9
 GePol: Number of exposed spheres                    =       9 (100.00%)
[...]
      4        1          -0.000008810   -0.000057553   -0.000014245
      5        1           0.000015072   -0.000060709   -0.000021548
      6        1           0.000015912   -0.000043779   -0.000073985
      7       17          -0.000546735    0.000738244    0.000434159
      8        6          -0.032973642   -0.017524696   -0.008790636
      9        7          -0.000007310    0.000029478    0.000025103
 -------------------------------------------------------------------
 Cartesian Forces:  Max     0.033494764 RMS     0.010450277
 Leave Link  716 at Wed Jan  8 01:58:26 2020, MaxMem=  4294967296 cpu:               1.3 elap:               0.1
 (Enter /home/cwagen/sw/g16/g16/l103.exe)

 GradGradGradGradGradGradGradGradGradGradGradGradGradGradGradGradGradGrad
 Berny optimization.
 Using GEDIIS/GDIIS optimizer.
 FormGI is forming the generalized inverse of G from B-inverse, IUseBI=4.
 Internal  Forces:  Max     0.038364764 RMS     0.006892875
 Search for a local minimum.
 Step number   9 out of a maximum of   41
 All quantities printed in internal units (Hartrees-Bohrs-Radians)
 RMS Force = .21812D-04 SwitMx=.10000D-02 MixMth= 2
 Mixed Optimization -- En-DIIS/RFO-DIIS
 Swapping is turned off.
 Update second derivatives using D2CorX and points    4    5    6    7    8
                                                      9
 DE= -1.83D-06 DEPred=-5.61D-07 R= 3.26D+00
 TightC=F SS=  1.41D+00  RLast= 1.04D-02 DXNew= 1.8395D+00 3.1335D-02
 Trust test= 3.26D+00 RLast= 1.04D-02 DXMaxT set to 1.09D+00
 ITU=  1  1  1  1  1  1  1  1  0
     Eigenvalues ---    0.00253   0.01407   0.03513   0.04817   0.05588
     Eigenvalues ---    0.05717   0.09561   0.15782   0.16188   0.16409
     Eigenvalues ---    0.20712   0.23593   0.26347   0.28579   0.33924
     Eigenvalues ---    0.33994   0.34379   1.03252   1.221161000.00000
     Eigenvalues --- 1000.000001000.000001000.000001000.000001000.00000
     Eigenvalues --- 1000.000001000.000001000.000001000.000001000.00000
     Eigenvalues --- 1000.00000
 En-DIIS/RFO-DIIS/Sim-DIIS IScMMF=       -3 using points:     9    8    7    6    5
 RFO step:  Lambda=-1.58462705D-06.
 NNeg= 0 NGDIIS= 5 SimSw=  2.50D-01 Rises=F DC= -1.83D-06 SmlDif=  1.00D-05
 NRisDI= 0 DoIntr=F SqrtH=F CThrHd= 10.0 CDAdj=  3.0
 RMS Error=  0.2026576957D-03 NUsed= 5 OKEnD=F EnDIS=F
 InvSVX:  RCond= 1.55D-07 Info=           0 Equed=N FErr=  1.34D-13 BErr=  7.29D-17
 DidBck=F Rises=F RFO-DIIS coefs:    1.41776   -0.46996    0.04168    0.02658   -0.01607
 Iteration  1 RMS(Cart)=  0.00050582 RMS(Int)=  0.00000016
 Iteration  2 RMS(Cart)=  0.00000010 RMS(Int)=  0.00000012
 Iteration  1 RMS(Cart)=  0.00000000 RMS(Int)=  0.00000000
 ITry= 1 IFail=0 DXMaxC= 1.44D-03 DCOld= 1.00D+10 DXMaxT= 1.09D+00 DXLimC= 3.00D+00 Rises=F
 Variable       Old X    -DE/DX   Delta X   Delta X   Delta X     New X
                                 (Linear)    (Quad)   (Total)
    R1        2.21465  -0.00001   0.00001  -0.00002  -0.00001   2.21465
    R2        2.79880   0.00000  -0.00015   0.00013  -0.00003   2.79877
    R3        5.29123   0.00100   0.00000   0.00000   0.00000   5.29123
    R4        3.77945  -0.03836   0.00000   0.00000   0.00000   3.77945
    R5        2.05543  -0.00001  -0.00003  -0.00002  -0.00005   2.05538
    R6        2.06707   0.00001  -0.00001   0.00005   0.00004   2.06712
    R7        2.07784   0.00002   0.00013  -0.00003   0.00010   2.07794
    R8        2.20884   0.00001   0.00001  -0.00001   0.00001   2.20885
    A1        2.38637  -0.00001  -0.00007  -0.00001  -0.00007   2.38630
    A2        1.78945  -0.00003  -0.00006  -0.00006  -0.00012   1.78934
    A3        1.99094   0.00002   0.00015   0.00003   0.00018   1.99112
    A4        1.59776   0.00007   0.00020   0.00022   0.00042   1.59818
    A5        1.84946  -0.00001  -0.00008   0.00001  -0.00007   1.84939
    A6        1.60456  -0.00005  -0.00020  -0.00031  -0.00051   1.60405
    A7        1.93882   0.00002   0.00034  -0.00007   0.00027   1.93909
    A8        1.90035   0.00003   0.00017   0.00004   0.00020   1.90055
    A9        1.85786  -0.00001  -0.00033   0.00019  -0.00013   1.85773
   A10        1.93549  -0.00002  -0.00013   0.00004  -0.00009   1.93540
   A11        1.91184   0.00001   0.00029  -0.00009   0.00020   1.91204
   A12        1.91790  -0.00003  -0.00035  -0.00011  -0.00046   1.91744
   A13        3.14645   0.00000   0.00008  -0.00010  -0.00002   3.14643
   A14        3.03248  -0.00001  -0.00001  -0.00010  -0.00011   3.03237
    D1       -2.76469   0.00000   0.00013  -0.00004   0.00009  -2.76460
    D2       -0.62834   0.00001   0.00029   0.00000   0.00029  -0.62805
    D3        1.43836  -0.00001  -0.00021  -0.00001  -0.00022   1.43814
    D4       -0.84142   0.00002   0.00024   0.00012   0.00037  -0.84105
    D5        1.29493   0.00003   0.00041   0.00016   0.00057   1.29549
    D6       -2.92155   0.00000  -0.00009   0.00015   0.00006  -2.92150
    D7        0.77223  -0.00001   0.00009  -0.00014  -0.00005   0.77219
    D8        2.90858   0.00000   0.00026  -0.00011   0.00015   2.90873
    D9       -1.30790  -0.00002  -0.00024  -0.00011  -0.00036  -1.30826
         Item               Value     Threshold  Converged?
 Maximum Force            0.000065     0.000450     YES
 RMS     Force            0.000022     0.000300     YES
 Maximum Displacement     0.001440     0.001800     YES
 RMS     Displacement     0.000506     0.001200     YES
 Predicted change in Energy=-5.397699D-08
 Optimization completed.
    -- Stationary point found.
                           ----------------------------
                           !   Optimized Parameters   !
                           ! (Angstroms and Degrees)  !
 --------------------------                            --------------------------
 ! Name  Definition              Value          Derivative Info.                !
 --------------------------------------------------------------------------------
 ! R1    R(1,2)                  1.1719         -DE/DX =    0.0                 !
 ! R2    R(1,3)                  1.4811         -DE/DX =    0.0                 !
 ! R3    R(1,7)                  2.8            -DE/DX =    0.001               !
 ! R4    R(1,8)                  2.0            -DE/DX =   -0.0384              !
 ! R5    R(3,4)                  1.0877         -DE/DX =    0.0                 !
 ! R6    R(3,5)                  1.0938         -DE/DX =    0.0                 !
 ! R7    R(3,6)                  1.0995         -DE/DX =    0.0                 !
 ! R8    R(8,9)                  1.1689         -DE/DX =    0.0                 !
 ! A1    A(2,1,3)              136.7289         -DE/DX =    0.0                 !
 ! A2    A(2,1,7)              102.5281         -DE/DX =    0.0                 !
 ! A3    A(2,1,8)              114.0725         -DE/DX =    0.0                 !
 ! A4    A(3,1,7)               91.5447         -DE/DX =    0.0001              !
 ! A5    A(3,1,8)              105.9665         -DE/DX =    0.0                 !
 ! A6    A(7,1,8)               91.9346         -DE/DX =    0.0                 !
 ! A7    A(1,3,4)              111.0862         -DE/DX =    0.0                 !
 ! A8    A(1,3,5)              108.8819         -DE/DX =    0.0                 !
 ! A9    A(1,3,6)              106.4475         -DE/DX =    0.0                 !
 ! A10   A(4,3,5)              110.8954         -DE/DX =    0.0                 !
 ! A11   A(4,3,6)              109.5402         -DE/DX =    0.0                 !
 ! A12   A(5,3,6)              109.8875         -DE/DX =    0.0                 !
 ! A13   L(1,8,9,6,-1)         180.2782         -DE/DX =    0.0                 !
 ! A14   L(1,8,9,6,-2)         173.7484         -DE/DX =    0.0                 !
 ! D1    D(2,1,3,4)           -158.405          -DE/DX =    0.0                 !
 ! D2    D(2,1,3,5)            -36.0014         -DE/DX =    0.0                 !
 ! D3    D(2,1,3,6)             82.4121         -DE/DX =    0.0                 !
 ! D4    D(7,1,3,4)            -48.2098         -DE/DX =    0.0                 !
 ! D5    D(7,1,3,5)             74.1938         -DE/DX =    0.0                 !
 ! D6    D(7,1,3,6)           -167.3927         -DE/DX =    0.0                 !
 ! D7    D(8,1,3,4)             44.2456         -DE/DX =    0.0                 !
 ! D8    D(8,1,3,5)            166.6492         -DE/DX =    0.0                 !
 ! D9    D(8,1,3,6)            -74.9373         -DE/DX =    0.0                 !
 --------------------------------------------------------------------------------
 Lowest energy point so far.  Saving SCF results.
 Largest change from initial coordinates is atom    6       0.151 Angstoms.
 GradGradGradGradGradGradGradGradGradGradGradGradGradGradGradGradGradGrad

 Leave Link  103 at Wed Jan  8 01:58:34 2020, MaxMem=  4294967296 cpu:              87.0 elap:               8.0
 (Enter /home/cwagen/sw/g16/g16/l202.exe)
                          Input orientation:                          
 ---------------------------------------------------------------------
 Center     Atomic      Atomic             Coordinates (Angstroms)
 Number     Number       Type             X           Y           Z
 ---------------------------------------------------------------------
      1          6           0       -0.055517   -0.576162   -0.368369
      2          8           0       -0.324243   -0.542562   -1.508592
      3          6           0       -0.381928   -1.437288    0.791571
      4          1           0       -0.227613   -0.906785    1.728488
      5          1           0       -1.418208   -1.775517    0.700851
      6          1           0        0.298711   -2.299339    0.740637
      7         17           0       -1.571307    1.534072    0.675322
      8          6           0        1.661656    0.339812    0.092401
      9          7           0        2.697728    0.844554    0.287451
 ---------------------------------------------------------------------
                    Distance matrix (angstroms):
                    1          2          3          4          5
     1  C    0.000000
     2  O    1.171943   0.000000
     3  C    1.481062   2.468727   0.000000
     4  H    2.129728   3.258939   1.087685   0.000000
     5  H    2.106801   2.756551   1.093849   1.796734   0.000000
     6  H    2.079594   2.921193   1.099544   1.786638   1.795489
     7  Cl   2.800000   3.261451   3.202673   2.978667   3.313227
     8  C    2.000000   2.699177   2.796991   2.792869   3.785550
     9  N    3.166843   3.779176   3.865905   3.701540   4.896591
                    6          7          8          9
     6  H    0.000000
     7  Cl   4.265709   0.000000
     8  C    3.040222   3.495440   0.000000
     9  N    3.980544   4.341721   1.168869   0.000000
 Stoichiometry    C3H3ClNO(1-)
 Framework group  C1[X(C3H3ClNO)]
 Deg. of freedom    21
 Full point group                 C1      NOp   1
 RotChk:  IX=0 Diff= 1.46D-15
 Largest Abelian subgroup         C1      NOp   1
 Largest concise Abelian subgroup C1      NOp   1
                         Standard orientation:                         
 ---------------------------------------------------------------------
 Center     Atomic      Atomic             Coordinates (Angstroms)
 Number     Number       Type             X           Y           Z
 ---------------------------------------------------------------------
      1          6           0        0.353020    0.866481    0.228537
      2          8           0        0.273254    1.242325    1.335709
      3          6           0        0.118256    1.429624   -1.121018
      4          1           0       -0.046167    0.640403   -1.851193
      5          1           0       -0.740163    2.106202   -1.077852
      6          1           0        1.025084    1.992339   -1.385614
      7         17           0       -1.872937   -0.816153   -0.003542
      8          6           0        1.618986   -0.660905   -0.025274
      9          7           0        2.410511   -1.516307   -0.114896
 ---------------------------------------------------------------------
 Rotational constants (GHZ):           2.8335392           1.7413799           1.3733438
 Leave Link  202 at Wed Jan  8 01:58:34 2020, MaxMem=  4294967296 cpu:               2.5 elap:               0.5
 (Enter /home/cwagen/sw/g16/g16/l601.exe)
 Copying SCF densities to generalized density rwf, IOpCl= 0 IROHF=0.

 **********************************************************************

            Population analysis using the SCF density.

 **********************************************************************

 Orbital symmetries:
       Occupied  (A) (A) (A) (A) (A) (A) (A) (A) (A) (A) (A) (A)
                 (A) (A) (A) (A) (A) (A) (A) (A) (A) (A) (A) (A)
                 (A) (A) (A)
       Virtual   (A) (A) (A) (A) (A) (A) (A) (A) (A) (A) (A) (A)
                 (A) (A) (A) (A) (A) (A) (A) (A) (A) (A) (A) (A)
                 (A) (A) (A) (A) (A) (A) (A) (A) (A) (A) (A) (A)
                 (A) (A) (A) (A) (A) (A) (A) (A) (A) (A) (A) (A)
                 (A) (A) (A) (A) (A) (A) (A) (A) (A) (A) (A) (A)
                 (A) (A) (A) (A) (A) (A) (A) (A) (A) (A) (A) (A)
                 (A) (A) (A) (A) (A) (A) (A) (A) (A) (A) (A) (A)
                 (A) (A) (A) (A) (A) (A) (A) (A) (A) (A) (A) (A)
                 (A)
 The electronic state is 1-A.
 Alpha  occ. eigenvalues -- -101.42077 -19.20039 -14.31322 -10.34850 -10.20180
 Alpha  occ. eigenvalues --  -10.19808  -9.33442  -7.09290  -7.09185  -7.09179
 Alpha  occ. eigenvalues --   -1.10682  -0.87218  -0.76537  -0.67442  -0.55475
 Alpha  occ. eigenvalues --   -0.49292  -0.46841  -0.45995  -0.40140  -0.38896
 Alpha  occ. eigenvalues --   -0.37170  -0.31513  -0.31407  -0.28796  -0.22050
 Alpha  occ. eigenvalues --   -0.21753  -0.21727
 Alpha virt. eigenvalues --   -0.03684  -0.00475   0.02592   0.04498   0.05007
 Alpha virt. eigenvalues --    0.06069   0.06669   0.07574   0.08939   0.09844
 Alpha virt. eigenvalues --    0.10172   0.10374   0.10779   0.12831   0.13522
 Alpha virt. eigenvalues --    0.14000   0.14206   0.16879   0.17065   0.20698
 Alpha virt. eigenvalues --    0.22587   0.23759   0.24915   0.24949   0.25965
 Alpha virt. eigenvalues --    0.27180   0.28858   0.30091   0.31932   0.34789
 Alpha virt. eigenvalues --    0.36833   0.41115   0.48353   0.61098   0.61642
 Alpha virt. eigenvalues --    0.64917   0.66372   0.67975   0.69189   0.72710
 Alpha virt. eigenvalues --    0.75029   0.77133   0.79811   0.80264   0.82126
 Alpha virt. eigenvalues --    0.83920   0.88449   0.94137   0.97680   0.98721
 Alpha virt. eigenvalues --    0.99694   1.00001   1.00812   1.01681   1.02457
 Alpha virt. eigenvalues --    1.03775   1.09280   1.14851   1.17081   1.24947
 Alpha virt. eigenvalues --    1.26950   1.29502   1.31073   1.37136   1.43058
 Alpha virt. eigenvalues --    1.52107   1.53692   1.56135   1.57735   1.58484
 Alpha virt. eigenvalues --    1.62518   1.65432   1.80255   1.82526   1.84967
 Alpha virt. eigenvalues --    1.90373   1.98880   1.99619   2.04269   2.12859
 Alpha virt. eigenvalues --    2.22738   2.27064   2.40630   2.55537   2.59712
 Alpha virt. eigenvalues --    2.62688   2.67496   2.70557   2.90949   3.09740
 Alpha virt. eigenvalues --    3.16167   4.08159   4.18463   4.25192   4.37335
 Alpha virt. eigenvalues --    4.42499   4.47388
          Condensed to atoms (all electrons):
               1          2          3          4          5          6
     1  C    5.501624   0.556450  -0.097989  -0.082494  -0.093522   0.024093
     2  O    0.556450   7.889748  -0.065844   0.006816   0.002716  -0.006082
     3  C   -0.097989  -0.065844   5.861334   0.404140   0.395773   0.327147
     4  H   -0.082494   0.006816   0.404140   0.418209  -0.018036  -0.022837
     5  H   -0.093522   0.002716   0.395773  -0.018036   0.440207  -0.021852
     6  H    0.024093  -0.006082   0.327147  -0.022837  -0.021852   0.446321
     7  Cl   0.238783  -0.058343  -0.116031  -0.004250  -0.004638   0.004331
     8  C   -0.528780  -0.083051  -0.024211   0.012649   0.028450  -0.026076
     9  N   -0.016142   0.000148  -0.006646   0.000054  -0.000125  -0.000530
               7          8          9
     1  C    0.238783  -0.528780  -0.016142
     2  O   -0.058343  -0.083051   0.000148
     3  C   -0.116031  -0.024211  -0.006646
     4  H   -0.004250   0.012649   0.000054
     5  H   -0.004638   0.028450  -0.000125
     6  H    0.004331  -0.026076  -0.000530
     7  Cl  17.882442  -0.082635  -0.010588
     8  C   -0.082635   6.033933   0.625357
     9  N   -0.010588   0.625357   7.013774
 Mulliken charges:
               1
     1  C    0.497977
     2  O   -0.242558
     3  C   -0.677672
     4  H    0.285749
     5  H    0.271028
     6  H    0.275485
     7  Cl  -0.849071
     8  C    0.044364
     9  N   -0.605303
 Sum of Mulliken charges =  -1.00000
 Mulliken charges with hydrogens summed into heavy atoms:
               1
     1  C    0.497977
     2  O   -0.242558
     3  C    0.154590
     7  Cl  -0.849071
     8  C    0.044364
     9  N   -0.605303
 Electronic spatial extent (au):  <R**2>=            900.6440
 Charge=             -1.0000 electrons
 Dipole moment (field-independent basis, Debye):
    X=              2.8516    Y=              8.5550    Z=             -2.6922  Tot=              9.4111
 Quadrupole moment (field-independent basis, Debye-Ang):
   XX=            -75.2755   YY=            -53.0344   ZZ=            -46.7227
   XY=              2.8481   XZ=              0.1877   YZ=             -4.8306
 Traceless Quadrupole moment (field-independent basis, Debye-Ang):
   XX=            -16.9313   YY=              5.3098   ZZ=             11.6215
   XY=              2.8481   XZ=              0.1877   YZ=             -4.8306
 Octapole moment (field-independent basis, Debye-Ang**2):
  XXX=             -1.7552  YYY=             34.6780  ZZZ=             -3.5958  XYY=             -8.1565
  XXY=             44.5266  XXZ=              2.5624  XZZ=              1.4061  YZZ=              4.7545
  YYZ=             -4.7170  XYZ=             -2.3224
 Hexadecapole moment (field-independent basis, Debye-Ang**3):
 XXXX=           -898.4330 YYYY=           -417.0015 ZZZZ=           -185.2879 XXXY=             43.7651
 XXXZ=              6.6803 YYYX=             24.6571 YYYZ=             -9.9761 ZZZX=              0.5893
 ZZZY=             -4.0541 XXYY=           -237.6501 XXZZ=           -155.6843 YYZZ=            -99.5587
 XXYZ=             -4.7965 YYXZ=              1.2540 ZZXY=              0.7474
 N-N= 2.302934189379D+02 E-N=-2.138395213463D+03  KE= 7.023841272511D+02
 No NMR shielding tensors so no spin-rotation constants.
 Leave Link  601 at Wed Jan  8 01:58:36 2020, MaxMem=  4294967296 cpu:              19.6 elap:               1.8
 (Enter /home/cwagen/sw/g16/g16/l9999.exe)
 1\1\GINC-NODE088\FOpt\RB3LYP\6-31+G(d)\C3H3Cl1N1O1(1-)\CWAGEN\08-Jan-2
 020\0\\#p opt=modredundant b3lyp/6-31+g(d) scrf=(smd, solvent=tetrahyd
 rofuran)\\title\\-1,1\C,-0.0555169793,-0.5761620767,-0.3683691516\O,-0
 .3242427572,-0.5425616986,-1.5085921833\C,-0.38192815,-1.437287571,0.7
 915714201\H,-0.2276125778,-0.9067849529,1.7284883177\H,-1.4182077465,-
 1.7755171615,0.7008506084\H,0.2987105794,-2.2993392679,0.7406365022\Cl
 ,-1.5713067814,1.5340724783,0.6753220684\C,1.6616556656,0.339812056,0.
 0924014013\N,2.6977284071,0.8445540043,0.2874512869\\Version=AS64L-G16
 RevA.03\State=1-A\HF=-706.4170622\RMSD=6.743e-09\RMSF=1.045e-02\Dipole
 =-0.0064406,-3.700961,-0.1100144\Quadrupole=-12.1523875,6.0755708,6.07
 68167,3.2170131,1.0074117,-4.4300338\PG=C01 [X(C3H3Cl1N1O1)]\\@


 HE WHO LAUGHS LAST PROBABLY DIDN'T GET THE JOKE.
 Job cpu time:       0 days  1 hours 59 minutes 51.8 seconds.
 Elapsed time:       0 days  0 hours  9 minutes 58.5 seconds.
 File lengths (MBytes):  RWF=     38 Int=      0 D2E=      0 Chk=      3 Scr=      1
 Normal termination of Gaussian 16 at Wed Jan  8 01:58:36 2020.
