 Entering Gaussian System, Link 0=g16
 Input=scan_160_210.gjf
 Output=scan_160_210.out
 Initial command:
 /home/cwagen/sw/g16/g16/l1.exe "/scratch/users/cwagen/cwagen_scan_160_210/Gau-10319.inp" -scrdir="/scratch/users/cwagen/cwagen_scan_160_210/"
 Entering Link 1 = /home/cwagen/sw/g16/g16/l1.exe PID=     10320.
  
 Copyright (c) 1988,1990,1992,1993,1995,1998,2003,2009,2016,
            Gaussian, Inc.  All Rights Reserved.
  
 This is part of the Gaussian(R) 16 program.  It is based on
 the Gaussian(R) 09 system (copyright 2009, Gaussian, Inc.),
 the Gaussian(R) 03 system (copyright 2003, Gaussian, Inc.),
 the Gaussian(R) 98 system (copyright 1998, Gaussian, Inc.),
 the Gaussian(R) 94 system (copyright 1995, Gaussian, Inc.),
 the Gaussian 92(TM) system (copyright 1992, Gaussian, Inc.),
 the Gaussian 90(TM) system (copyright 1990, Gaussian, Inc.),
 the Gaussian 88(TM) system (copyright 1988, Gaussian, Inc.),
 the Gaussian 86(TM) system (copyright 1986, Carnegie Mellon
 University), and the Gaussian 82(TM) system (copyright 1983,
 Carnegie Mellon University). Gaussian is a federally registered
 trademark of Gaussian, Inc.
  
 This software contains proprietary and confidential information,
 including trade secrets, belonging to Gaussian, Inc.
  
 This software is provided under written license and may be
 used, copied, transmitted, or stored only in accord with that
 written license.
  
 The following legend is applicable only to US Government
 contracts under FAR:
  
                    RESTRICTED RIGHTS LEGEND
  
 Use, reproduction and disclosure by the US Government is
 subject to restrictions as set forth in subparagraphs (a)
 and (c) of the Commercial Computer Software - Restricted
 Rights clause in FAR 52.227-19.
  
 Gaussian, Inc.
 340 Quinnipiac St., Bldg. 40, Wallingford CT 06492
  
  
 ---------------------------------------------------------------
 Warning -- This program may not be used in any manner that
 competes with the business of Gaussian, Inc. or will provide
 assistance to any competitor of Gaussian, Inc.  The licensee
 of this program is prohibited from giving any competitor of
 Gaussian, Inc. access to this program.  By using this program,
 the user acknowledges that Gaussian, Inc. is engaged in the
 business of creating and licensing software in the field of
 computational chemistry and represents and warrants to the
 licensee that it is not a competitor of Gaussian, Inc. and that
 it will not use this program in any manner prohibited above.
 ---------------------------------------------------------------
  

 Cite this work as:
 Gaussian 16, Revision A.03,
 M. J. Frisch, G. W. Trucks, H. B. Schlegel, G. E. Scuseria, 
 M. A. Robb, J. R. Cheeseman, G. Scalmani, V. Barone, 
 G. A. Petersson, H. Nakatsuji, X. Li, M. Caricato, A. V. Marenich, 
 J. Bloino, B. G. Janesko, R. Gomperts, B. Mennucci, H. P. Hratchian, 
 J. V. Ortiz, A. F. Izmaylov, J. L. Sonnenberg, D. Williams-Young, 
 F. Ding, F. Lipparini, F. Egidi, J. Goings, B. Peng, A. Petrone, 
 T. Henderson, D. Ranasinghe, V. G. Zakrzewski, J. Gao, N. Rega, 
 G. Zheng, W. Liang, M. Hada, M. Ehara, K. Toyota, R. Fukuda, 
 J. Hasegawa, M. Ishida, T. Nakajima, Y. Honda, O. Kitao, H. Nakai, 
 T. Vreven, K. Throssell, J. A. Montgomery, Jr., J. E. Peralta, 
 F. Ogliaro, M. J. Bearpark, J. J. Heyd, E. N. Brothers, K. N. Kudin, 
 V. N. Staroverov, T. A. Keith, R. Kobayashi, J. Normand, 
 K. Raghavachari, A. P. Rendell, J. C. Burant, S. S. Iyengar, 
 J. Tomasi, M. Cossi, J. M. Millam, M. Klene, C. Adamo, R. Cammi, 
 J. W. Ochterski, R. L. Martin, K. Morokuma, O. Farkas, 
 J. B. Foresman, and D. J. Fox, Gaussian, Inc., Wallingford CT, 2016.
 
 ******************************************
 Gaussian 16:  AS64L-G16RevA.03 25-Dec-2016
                 7-Jan-2020 
 ******************************************
 %nprocshared=16
 Will use up to   16 processors via shared memory.
 %mem=32GB
 ----------------------------------------------------------------------
 #p opt=modredundant b3lyp/6-31+g(d) scrf=(smd, solvent=tetrahydrofuran
 )
 ----------------------------------------------------------------------
 1/18=120,19=15,26=3,38=1/1,3;
 2/9=110,12=2,17=6,18=5,40=1/2;
 3/5=1,6=6,7=11,11=2,25=1,30=1,70=32201,71=1,72=20,74=-5/1,2,3;
 4//1;
 5/5=2,38=5,53=20/2;
 6/7=2,8=2,9=2,10=2,28=1/1;
 7//1,2,3,16;
 1/18=20,19=15,26=3/3(2);
 2/9=110/2;
 99//99;
 2/9=110/2;
 3/5=1,6=6,7=11,11=2,25=1,30=1,70=32205,71=1,72=20,74=-5/1,2,3;
 4/5=5,16=3,69=1/1;
 5/5=2,38=5,53=20/2;
 7//1,2,3,16;
 1/18=20,19=15,26=3/3(-5);
 2/9=110/2;
 6/7=2,8=2,9=2,10=2,19=2,28=1/1;
 99/9=1/99;
 Leave Link    1 at Tue Jan  7 22:59:56 2020, MaxMem=  4294967296 cpu:               2.6 elap:               0.2
 (Enter /home/cwagen/sw/g16/g16/l101.exe)
 -----
 title
 -----
 Symbolic Z-matrix:
 Charge = -1 Multiplicity = 1
 6                    -0.19426  -0.292    -0.21291 
 8                    -0.25532  -0.66526  -1.45426 
 6                    -0.33095  -1.45422   0.81632 
 1                    -0.18039  -1.13044   1.85373 
 1                    -1.34067  -1.87301   0.71427 
 1                     0.39707  -2.23395   0.57058 
 17                   -1.15225   0.92328   0.19373 
 6                     1.75269   0.38977   0.18022 
 7                     2.88726   0.67007   0.21052 
 
 Add virtual bond connecting atoms C8         and C1         Dist= 3.97D+00.
 The following ModRedundant input section has been read:
 B       1       7 F                                                           
 B       1       8 F                                                           
 
 ITRead=  0  0  0  0  0  0  0  0  0
 MicOpt= -1 -1 -1 -1 -1 -1 -1 -1 -1
 NAtoms=      9 NQM=        9 NQMF=       0 NMMI=      0 NMMIF=      0
                NMic=       0 NMicF=      0.
                    Isotopes and Nuclear Properties:
 (Nuclear quadrupole moments (NQMom) in fm**2, nuclear magnetic moments (NMagM)
  in nuclear magnetons)

  Atom         1           2           3           4           5           6           7           8           9
 IAtWgt=          12          16          12           1           1           1          35          12          14
 AtmWgt=  12.0000000  15.9949146  12.0000000   1.0078250   1.0078250   1.0078250  34.9688527  12.0000000  14.0030740
 NucSpn=           0           0           0           1           1           1           3           0           2
 AtZEff=   0.0000000   0.0000000   0.0000000   0.0000000   0.0000000   0.0000000   0.0000000   0.0000000   0.0000000
 NQMom=    0.0000000   0.0000000   0.0000000   0.0000000   0.0000000   0.0000000  -8.1650000   0.0000000   2.0440000
 NMagM=    0.0000000   0.0000000   0.0000000   2.7928460   2.7928460   2.7928460   0.8218740   0.0000000   0.4037610
 AtZNuc=   6.0000000   8.0000000   6.0000000   1.0000000   1.0000000   1.0000000  17.0000000   6.0000000   7.0000000
 Leave Link  101 at Tue Jan  7 22:59:57 2020, MaxMem=  4294967296 cpu:               7.1 elap:               0.7
 (Enter /home/cwagen/sw/g16/g16/l103.exe)

 GradGradGradGradGradGradGradGradGradGradGradGradGradGradGradGradGradGrad
 Berny optimization.
 Initialization pass.
                           ----------------------------
                           !    Initial Parameters    !
                           ! (Angstroms and Degrees)  !
 --------------------------                            --------------------------
 ! Name  Definition              Value          Derivative Info.                !
 --------------------------------------------------------------------------------
 ! R1    R(1,2)                  1.2977         estimate D2E/DX2                !
 ! R2    R(1,3)                  1.5584         estimate D2E/DX2                !
 ! R3    R(1,7)                  1.6            Frozen                          !
 ! R4    R(1,8)                  2.1            Frozen                          !
 ! R5    R(3,4)                  1.0971         estimate D2E/DX2                !
 ! R6    R(3,5)                  1.0979         estimate D2E/DX2                !
 ! R7    R(3,6)                  1.0947         estimate D2E/DX2                !
 ! R8    R(8,9)                  1.1691         estimate D2E/DX2                !
 ! A1    A(2,1,3)              114.4006         estimate D2E/DX2                !
 ! A2    A(2,1,7)              115.6846         estimate D2E/DX2                !
 ! A3    A(2,1,8)              108.426          estimate D2E/DX2                !
 ! A4    A(3,1,7)              110.248          estimate D2E/DX2                !
 ! A5    A(3,1,8)              101.5248         estimate D2E/DX2                !
 ! A6    A(7,1,8)              105.1256         estimate D2E/DX2                !
 ! A7    A(1,3,4)              113.1005         estimate D2E/DX2                !
 ! A8    A(1,3,5)              107.683          estimate D2E/DX2                !
 ! A9    A(1,3,6)              108.9421         estimate D2E/DX2                !
 ! A10   A(4,3,5)              109.0662         estimate D2E/DX2                !
 ! A11   A(4,3,6)              109.3417         estimate D2E/DX2                !
 ! A12   A(5,3,6)              108.6067         estimate D2E/DX2                !
 ! A13   L(1,8,9,6,-1)         177.3941         estimate D2E/DX2                !
 ! A14   L(1,8,9,6,-2)         165.9899         estimate D2E/DX2                !
 ! D1    D(2,1,3,4)            174.4714         estimate D2E/DX2                !
 ! D2    D(2,1,3,5)            -64.9488         estimate D2E/DX2                !
 ! D3    D(2,1,3,6)             52.6633         estimate D2E/DX2                !
 ! D4    D(7,1,3,4)            -53.1046         estimate D2E/DX2                !
 ! D5    D(7,1,3,5)             67.4752         estimate D2E/DX2                !
 ! D6    D(7,1,3,6)           -174.9127         estimate D2E/DX2                !
 ! D7    D(8,1,3,4)             57.938          estimate D2E/DX2                !
 ! D8    D(8,1,3,5)            178.5177         estimate D2E/DX2                !
 ! D9    D(8,1,3,6)            -63.8702         estimate D2E/DX2                !
 --------------------------------------------------------------------------------
 Trust Radius=3.00D-01 FncErr=1.00D-07 GrdErr=1.00D-06 EigMax=2.50D+02 EigMin=1.00D-04
 Number of steps in this run=     41 maximum allowed number of steps=    100.
 GradGradGradGradGradGradGradGradGradGradGradGradGradGradGradGradGradGrad

 Leave Link  103 at Tue Jan  7 22:59:57 2020, MaxMem=  4294967296 cpu:               0.7 elap:               0.3
 (Enter /home/cwagen/sw/g16/g16/l202.exe)
                          Input orientation:                          
 ---------------------------------------------------------------------
 Center     Atomic      Atomic             Coordinates (Angstroms)
 Number     Number       Type             X           Y           Z
 ---------------------------------------------------------------------
      1          6           0       -0.194263   -0.291999   -0.212908
      2          8           0       -0.255321   -0.665256   -1.454255
      3          6           0       -0.330945   -1.454221    0.816316
      4          1           0       -0.180394   -1.130438    1.853734
      5          1           0       -1.340665   -1.873010    0.714272
      6          1           0        0.397068   -2.233949    0.570583
      7         17           0       -1.152246    0.923284    0.193734
      8          6           0        1.752693    0.389773    0.180220
      9          7           0        2.887264    0.670071    0.210523
 ---------------------------------------------------------------------
                    Distance matrix (angstroms):
                    1          2          3          4          5
     1  C    0.000000
     2  O    1.297687   0.000000
     3  C    1.558443   2.404928   0.000000
     4  H    2.230287   3.341377   1.097150   0.000000
     5  H    2.161827   2.709087   1.097876   1.787740   0.000000
     6  H    2.175937   2.643176   1.094698   1.788205   1.780629
     7  Cl   1.600000   2.458414   2.591268   2.813871   2.850565
     8  C    2.100000   2.795839   2.854204   2.974645   3.869659
     9  N    3.255869   3.798740   3.903392   3.918226   4.959476
                    6          7          8          9
     6  H    0.000000
     7  Cl   3.537019   0.000000
     8  C    2.978929   2.953554   0.000000
     9  N    3.842402   4.047473   1.169075   0.000000
 Stoichiometry    C3H3ClNO(1-)
 Framework group  C1[X(C3H3ClNO)]
 Deg. of freedom    21
 Full point group                 C1      NOp   1
 Largest Abelian subgroup         C1      NOp   1
 Largest concise Abelian subgroup C1      NOp   1
                         Standard orientation:                         
 ---------------------------------------------------------------------
 Center     Atomic      Atomic             Coordinates (Angstroms)
 Number     Number       Type             X           Y           Z
 ---------------------------------------------------------------------
      1          6           0       -0.324672    0.298634    0.212432
      2          8           0       -0.469123    0.692499    1.440437
      3          6           0       -0.538587    1.416897   -0.851745
      4          1           0       -0.317726    1.086018   -1.874231
      5          1           0       -1.588287    1.733717   -0.796187
      6          1           0        0.097958    2.271718   -0.601832
      7         17           0       -1.140222   -1.016372   -0.194551
      8          6           0        1.694107   -0.191752   -0.094246
      9          7           0        2.851389   -0.356541   -0.077503
 ---------------------------------------------------------------------
 Rotational constants (GHZ):           3.9327477           2.0024178           1.7686422
 Leave Link  202 at Tue Jan  7 22:59:57 2020, MaxMem=  4294967296 cpu:               2.1 elap:               0.2
 (Enter /home/cwagen/sw/g16/g16/l301.exe)
 Standard basis: 6-31+G(d) (6D, 7F)
 Ernie: Thresh=  0.10000D-02 Tol=  0.10000D-05 Strict=F.
 There are   124 symmetry adapted cartesian basis functions of A   symmetry.
 There are   124 symmetry adapted basis functions of A   symmetry.
   124 basis functions,   228 primitive gaussians,   124 cartesian basis functions
    27 alpha electrons       27 beta electrons
       nuclear repulsion energy       257.0601048243 Hartrees.
 IExCor=  402 DFT=T Ex+Corr=B3LYP ExCW=0 ScaHFX=  0.200000
 ScaDFX=  0.800000  0.720000  1.000000  0.810000 ScalE2=  1.000000  1.000000
 IRadAn=      5 IRanWt=     -1 IRanGd=            0 ICorTp=0 IEmpDi=  4
 NAtoms=    9 NActive=    9 NUniq=    9 SFac= 1.00D+00 NAtFMM=   60 NAOKFM=F Big=F
 Integral buffers will be    131072 words long.
 Raffenetti 2 integral format.
 Two-electron integral symmetry is turned on.
 ------------------------------------------------------------------------------
 Polarizable Continuum Model (PCM)
 =================================
 Model                : PCM.
 Atomic radii         : SMD-Coulomb.
 Polarization charges : Total charges.
 Charge compensation  : None.
 Solution method      : On-the-fly selection.
 Cavity type          : VdW (van der Waals Surface) (Alpha=1.000).
 Cavity algorithm     : GePol (No added spheres)
                        Default sphere list used, NSphG=    9.
                        Lebedev-Laikov grids with approx.  5.0 points / Ang**2.
                        Smoothing algorithm: York/Karplus (Gamma=1.0000).
                        Polarization charges: spherical gaussians, with
                                              point-specific exponents (IZeta= 3).
                        Self-potential: point-specific (ISelfS= 7).
                        Self-field    : sphere-specific E.n sum rule (ISelfD= 2).
 1st derivatives      : Analytical E(r).r(x)/FMM algorithm (CHGder, D1EAlg=3).
                        Cavity 1st derivative terms included.
 Solvent              : TetraHydroFuran, Eps=   7.425700 Eps(inf)=   1.974025
 ------------------------------------------------------------------------------
 Spheres list:
 ISph  on   Nord     Re0    Alpha      Xe            Ye            Ze
    1   C      1    1.8500  1.000     -0.324672      0.298634      0.212432
    2   O      2    2.2940  1.000     -0.469123      0.692499      1.440437
    3   C      3    1.8500  1.000     -0.538587      1.416897     -0.851745
    4   H      4    1.2000  1.000     -0.317726      1.086018     -1.874231
    5   H      5    1.2000  1.000     -1.588287      1.733717     -0.796187
    6   H      6    1.2000  1.000      0.097958      2.271718     -0.601832
    7  Cl      7    2.3800  1.000     -1.140222     -1.016372     -0.194551
    8   C      8    1.8500  1.000      1.694107     -0.191752     -0.094246
    9   N      9    1.8900  1.000      2.851389     -0.356541     -0.077503
 ------------------------------------------------------------------------------
 GePol: Number of generator spheres                  =       9
 GePol: Total number of spheres                      =       9
 GePol: Number of exposed spheres                    =       9 (100.00%)
 GePol: Number of points                             =    1150
 GePol: Average weight of points                     =       0.13
 GePol: Minimum weight of points                     =   0.43D-09
 GePol: Maximum weight of points                     =    0.18138
 GePol: Number of points with low weight             =      40
 GePol: Fraction of low-weight points (<1% of avg)   =       3.48%
 GePol: Cavity surface area                          =    153.494 Ang**2
 GePol: Cavity volume                                =    141.023 Ang**3
 ------------------------------------------------------------------------------
 Atomic radii for non-electrostatic terms: SMD-CDS.
 ------------------------------------------------------------------------------
 PCM non-electrostatic energy =         0.0007187414 Hartrees.
 Nuclear repulsion after PCM non-electrostatic terms =      257.0608235657 Hartrees.
 Leave Link  301 at Tue Jan  7 22:59:58 2020, MaxMem=  4294967296 cpu:               2.2 elap:               0.2
 (Enter /home/cwagen/sw/g16/g16/l302.exe)
 NPDir=0 NMtPBC=     1 NCelOv=     1 NCel=       1 NClECP=     1 NCelD=      1
         NCelK=      1 NCelE2=     1 NClLst=     1 CellRange=     0.0.
 One-electron integrals computed using PRISM.
 One-electron integral symmetry used in STVInt
 NBasis=   124 RedAO= T EigKep=  4.81D-05  NBF=   124
 NBsUse=   124 1.00D-06 EigRej= -1.00D+00 NBFU=   124
 Precomputing XC quadrature grid using
 IXCGrd= 4 IRadAn=           5 IRanWt=          -1 IRanGd=           0 AccXCQ= 0.00D+00.
 Generated NRdTot=       0 NPtTot=           0 NUsed=           0 NTot=          32
 NSgBfM=   124   124   124   124   124 MxSgAt=     9 MxSgA2=     9.
 Leave Link  302 at Tue Jan  7 23:00:00 2020, MaxMem=  4294967296 cpu:              26.7 elap:               2.3
 (Enter /home/cwagen/sw/g16/g16/l303.exe)
 DipDrv:  MaxL=1.
 Leave Link  303 at Tue Jan  7 23:00:00 2020, MaxMem=  4294967296 cpu:               3.0 elap:               0.4
 (Enter /home/cwagen/sw/g16/g16/l401.exe)
 ExpMin= 4.38D-02 ExpMax= 2.52D+04 ExpMxC= 3.78D+03 IAcc=3 IRadAn=         5 AccDes= 0.00D+00
 Harris functional with IExCor=  402 and IRadAn=       5 diagonalized for initial guess.
 HarFok:  IExCor=  402 AccDes= 0.00D+00 IRadAn=         5 IDoV= 1 UseB2=F ITyADJ=14
 ICtDFT=  3500011 ScaDFX=  1.000000  1.000000  1.000000  1.000000
 FoFCou: FMM=F IPFlag=           0 FMFlag=      100000 FMFlg1=           0
         NFxFlg=           0 DoJE=T BraDBF=F KetDBF=T FulRan=T
         wScrn=  0.000000 ICntrl=       500 IOpCl=  0 I1Cent=   200000004 NGrid=           0
         NMat0=    1 NMatS0=      1 NMatT0=    0 NMatD0=    1 NMtDS0=    0 NMtDT0=    0
 Petite list used in FoFCou.
 Harris En= -706.392281561980    
 JPrj=0 DoOrth=F DoCkMO=F.
 Leave Link  401 at Tue Jan  7 23:00:03 2020, MaxMem=  4294967296 cpu:              29.1 elap:               2.3
 (Enter /home/cwagen/sw/g16/g16/l502.exe)
 Keep R1 ints in memory in canonical form, NReq=45236517.
 FoFCou: FMM=F IPFlag=           0 FMFlag=           0 FMFlg1=           0
         NFxFlg=           0 DoJE=F BraDBF=F KetDBF=F FulRan=T
         wScrn=  0.000000 ICntrl=       600 IOpCl=  0 I1Cent=           0 NGrid=           0
         NMat0=    1 NMatS0=   7750 NMatT0=    0 NMatD0=    1 NMtDS0=    0 NMtDT0=    0
 Symmetry not used in FoFCou.
 Two-electron integral symmetry not used.
 Closed shell SCF:
 Using DIIS extrapolation, IDIIS=  1040.
 NGot=  4294967296 LenX=  4264898079 LenY=  4264882262
 Requested convergence on RMS density matrix=1.00D-08 within 128 cycles.
 Requested convergence on MAX density matrix=1.00D-06.
 Requested convergence on             energy=1.00D-06.
 No special actions if energy rises.

 Cycle   1  Pass 1  IDiag  1:
 Inv3:  Mode=1 IEnd=     3967500.
 Iteration    1 A*A^-1 deviation from unit magnitude is 2.89D-15 for    943.
 Iteration    1 A*A^-1 deviation from orthogonality  is 1.89D-15 for    948    139.
 Iteration    1 A^-1*A deviation from unit magnitude is 2.66D-15 for    943.
 Iteration    1 A^-1*A deviation from orthogonality  is 1.67D-15 for   1144   1016.
 E= -706.119666640964    
 DIIS: error= 2.87D-02 at cycle   1 NSaved=   1.
 NSaved= 1 IEnMin= 1 EnMin= -706.119666640964     IErMin= 1 ErrMin= 2.87D-02
 ErrMax= 2.87D-02  0.00D+00 EMaxC= 1.00D-01 BMatC= 2.71D-01 BMatP= 2.71D-01
 IDIUse=3 WtCom= 7.13D-01 WtEn= 2.87D-01
 Coeff-Com:  0.100D+01
 Coeff-En:   0.100D+01
 Coeff:      0.100D+01
 Gap=     0.353 Goal=   None    Shift=    0.000
 GapD=    0.353 DampG=1.000 DampE=0.500 DampFc=0.5000 IDamp=-1.
 Damping current iteration by 5.00D-01
 RMSDP=6.34D-02 MaxDP=3.38D+00              OVMax= 4.42D-01

 Cycle   2  Pass 1  IDiag  1:
 E= -706.072681314688     Delta-E=        0.046985326276 Rises=F Damp=T
 DIIS: error= 1.73D-02 at cycle   2 NSaved=   2.
 NSaved= 2 IEnMin= 1 EnMin= -706.119666640964     IErMin= 2 ErrMin= 1.73D-02
 ErrMax= 1.73D-02  0.00D+00 EMaxC= 1.00D-01 BMatC= 1.14D-01 BMatP= 2.71D-01
 IDIUse=3 WtCom= 8.27D-01 WtEn= 1.73D-01
 Coeff-Com:  0.371D+00 0.629D+00
 Coeff-En:   0.562D+00 0.438D+00
 Coeff:      0.404D+00 0.596D+00
 Gap=     0.200 Goal=   None    Shift=    0.000
 RMSDP=2.92D-02 MaxDP=1.53D+00 DE= 4.70D-02 OVMax= 3.15D-01

 Cycle   3  Pass 1  IDiag  1:
 E= -706.315030895557     Delta-E=       -0.242349580869 Rises=F Damp=F
 DIIS: error= 1.14D-02 at cycle   3 NSaved=   3.
 NSaved= 3 IEnMin= 3 EnMin= -706.315030895557     IErMin= 3 ErrMin= 1.14D-02
 ErrMax= 1.14D-02  0.00D+00 EMaxC= 1.00D-01 BMatC= 5.32D-02 BMatP= 1.14D-01
 IDIUse=3 WtCom= 8.86D-01 WtEn= 1.14D-01
 Coeff-Com:  0.159D+00 0.401D+00 0.441D+00
 Coeff-En:   0.000D+00 0.000D+00 0.100D+01
 Coeff:      0.141D+00 0.355D+00 0.504D+00
 Gap=     0.233 Goal=   None    Shift=    0.000
 RMSDP=4.80D-03 MaxDP=1.95D-01 DE=-2.42D-01 OVMax= 1.09D-01

 Cycle   4  Pass 1  IDiag  1:
 E= -706.364662695917     Delta-E=       -0.049631800360 Rises=F Damp=F
 DIIS: error= 3.04D-03 at cycle   4 NSaved=   4.
 NSaved= 4 IEnMin= 4 EnMin= -706.364662695917     IErMin= 4 ErrMin= 3.04D-03
 ErrMax= 3.04D-03  0.00D+00 EMaxC= 1.00D-01 BMatC= 3.02D-03 BMatP= 5.32D-02
 IDIUse=3 WtCom= 9.70D-01 WtEn= 3.04D-02
 Coeff-Com: -0.328D-02 0.394D-01 0.208D+00 0.756D+00
 Coeff-En:   0.000D+00 0.000D+00 0.000D+00 0.100D+01
 Coeff:     -0.318D-02 0.382D-01 0.201D+00 0.764D+00
 Gap=     0.211 Goal=   None    Shift=    0.000
 RMSDP=8.70D-04 MaxDP=1.96D-02 DE=-4.96D-02 OVMax= 1.64D-02

 Cycle   5  Pass 1  IDiag  1:
 E= -706.367403551255     Delta-E=       -0.002740855338 Rises=F Damp=F
 DIIS: error= 1.12D-03 at cycle   5 NSaved=   5.
 NSaved= 5 IEnMin= 5 EnMin= -706.367403551255     IErMin= 5 ErrMin= 1.12D-03
 ErrMax= 1.12D-03  0.00D+00 EMaxC= 1.00D-01 BMatC= 1.81D-04 BMatP= 3.02D-03
 IDIUse=3 WtCom= 9.89D-01 WtEn= 1.12D-02
 Coeff-Com: -0.631D-02 0.601D-02 0.849D-01 0.380D+00 0.535D+00
 Coeff-En:   0.000D+00 0.000D+00 0.000D+00 0.000D+00 0.100D+01
 Coeff:     -0.624D-02 0.595D-02 0.839D-01 0.376D+00 0.540D+00
 Gap=     0.210 Goal=   None    Shift=    0.000
 RMSDP=3.06D-04 MaxDP=8.82D-03 DE=-2.74D-03 OVMax= 5.40D-03

 Cycle   6  Pass 1  IDiag  1:
 E= -706.367509027542     Delta-E=       -0.000105476288 Rises=F Damp=F
 DIIS: error= 8.25D-04 at cycle   6 NSaved=   6.
 NSaved= 6 IEnMin= 6 EnMin= -706.367509027542     IErMin= 6 ErrMin= 8.25D-04
 ErrMax= 8.25D-04  0.00D+00 EMaxC= 1.00D-01 BMatC= 7.15D-05 BMatP= 1.81D-04
 IDIUse=3 WtCom= 9.92D-01 WtEn= 8.25D-03
 Coeff-Com: -0.277D-02 0.291D-03 0.297D-01 0.143D+00 0.388D+00 0.442D+00
 Coeff-En:   0.000D+00 0.000D+00 0.000D+00 0.000D+00 0.297D+00 0.703D+00
 Coeff:     -0.275D-02 0.289D-03 0.294D-01 0.141D+00 0.387D+00 0.444D+00
 Gap=     0.211 Goal=   None    Shift=    0.000
 RMSDP=1.05D-04 MaxDP=4.08D-03 DE=-1.05D-04 OVMax= 2.47D-03

 Cycle   7  Pass 1  IDiag  1:
 E= -706.367569726541     Delta-E=       -0.000060698999 Rises=F Damp=F
 DIIS: error= 1.05D-04 at cycle   7 NSaved=   7.
 NSaved= 7 IEnMin= 7 EnMin= -706.367569726541     IErMin= 7 ErrMin= 1.05D-04
 ErrMax= 1.05D-04  0.00D+00 EMaxC= 1.00D-01 BMatC= 2.57D-06 BMatP= 7.15D-05
 IDIUse=3 WtCom= 9.99D-01 WtEn= 1.05D-03
 Coeff-Com: -0.353D-03-0.128D-02 0.344D-02 0.183D-01 0.125D+00 0.212D+00
 Coeff-Com:  0.643D+00
 Coeff-En:   0.000D+00 0.000D+00 0.000D+00 0.000D+00 0.000D+00 0.000D+00
 Coeff-En:   0.100D+01
 Coeff:     -0.353D-03-0.127D-02 0.343D-02 0.183D-01 0.125D+00 0.212D+00
 Coeff:      0.644D+00
 Gap=     0.211 Goal=   None    Shift=    0.000
 RMSDP=3.73D-05 MaxDP=1.86D-03 DE=-6.07D-05 OVMax= 3.71D-04

 Cycle   8  Pass 1  IDiag  1:
 E= -706.367572113408     Delta-E=       -0.000002386866 Rises=F Damp=F
 DIIS: error= 1.80D-05 at cycle   8 NSaved=   8.
 NSaved= 8 IEnMin= 8 EnMin= -706.367572113408     IErMin= 8 ErrMin= 1.80D-05
 ErrMax= 1.80D-05  0.00D+00 EMaxC= 1.00D-01 BMatC= 8.86D-08 BMatP= 2.57D-06
 IDIUse=1 WtCom= 1.00D+00 WtEn= 0.00D+00
 Coeff-Com:  0.558D-04-0.564D-03 0.435D-03 0.166D-02 0.287D-01 0.520D-01
 Coeff-Com:  0.214D+00 0.704D+00
 Coeff:      0.558D-04-0.564D-03 0.435D-03 0.166D-02 0.287D-01 0.520D-01
 Coeff:      0.214D+00 0.704D+00
 Gap=     0.211 Goal=   None    Shift=    0.000
 RMSDP=6.71D-06 MaxDP=1.70D-04 DE=-2.39D-06 OVMax= 9.96D-05

 Cycle   9  Pass 1  IDiag  1:
 E= -706.367572187006     Delta-E=       -0.000000073598 Rises=F Damp=F
 DIIS: error= 6.58D-06 at cycle   9 NSaved=   9.
 NSaved= 9 IEnMin= 9 EnMin= -706.367572187006     IErMin= 9 ErrMin= 6.58D-06
 ErrMax= 6.58D-06  0.00D+00 EMaxC= 1.00D-01 BMatC= 1.62D-08 BMatP= 8.86D-08
 IDIUse=1 WtCom= 1.00D+00 WtEn= 0.00D+00
 Coeff-Com:  0.972D-04-0.189D-03-0.235D-03-0.172D-02 0.499D-03 0.242D-02
 Coeff-Com:  0.383D-01 0.349D+00 0.612D+00
 Coeff:      0.972D-04-0.189D-03-0.235D-03-0.172D-02 0.499D-03 0.242D-02
 Coeff:      0.383D-01 0.349D+00 0.612D+00
 Gap=     0.211 Goal=   None    Shift=    0.000
 RMSDP=3.29D-06 MaxDP=1.59D-04 DE=-7.36D-08 OVMax= 5.40D-05

 Cycle  10  Pass 1  IDiag  1:
 E= -706.367572203497     Delta-E=       -0.000000016491 Rises=F Damp=F
 DIIS: error= 1.68D-06 at cycle  10 NSaved=  10.
 NSaved=10 IEnMin=10 EnMin= -706.367572203497     IErMin=10 ErrMin= 1.68D-06
 ErrMax= 1.68D-06  0.00D+00 EMaxC= 1.00D-01 BMatC= 6.06D-10 BMatP= 1.62D-08
 IDIUse=1 WtCom= 1.00D+00 WtEn= 0.00D+00
 Coeff-Com:  0.253D-04-0.286D-04-0.428D-04-0.425D-03-0.132D-02-0.243D-02
 Coeff-Com: -0.256D-02 0.650D-01 0.220D+00 0.722D+00
 Coeff:      0.253D-04-0.286D-04-0.428D-04-0.425D-03-0.132D-02-0.243D-02
 Coeff:     -0.256D-02 0.650D-01 0.220D+00 0.722D+00
 Gap=     0.211 Goal=   None    Shift=    0.000
 RMSDP=4.97D-07 MaxDP=2.02D-05 DE=-1.65D-08 OVMax= 1.10D-05

 Cycle  11  Pass 1  IDiag  1:
 E= -706.367572204081     Delta-E=       -0.000000000584 Rises=F Damp=F
 DIIS: error= 6.88D-07 at cycle  11 NSaved=  11.
 NSaved=11 IEnMin=11 EnMin= -706.367572204081     IErMin=11 ErrMin= 6.88D-07
 ErrMax= 6.88D-07  0.00D+00 EMaxC= 1.00D-01 BMatC= 1.12D-10 BMatP= 6.06D-10
 IDIUse=1 WtCom= 1.00D+00 WtEn= 0.00D+00
 Coeff-Com:  0.305D-05 0.312D-05-0.451D-05-0.770D-04-0.856D-03-0.172D-02
 Coeff-Com: -0.587D-02-0.293D-02 0.519D-01 0.363D+00 0.597D+00
 Coeff:      0.305D-05 0.312D-05-0.451D-05-0.770D-04-0.856D-03-0.172D-02
 Coeff:     -0.587D-02-0.293D-02 0.519D-01 0.363D+00 0.597D+00
 Gap=     0.211 Goal=   None    Shift=    0.000
 RMSDP=3.33D-07 MaxDP=1.50D-05 DE=-5.84D-10 OVMax= 6.10D-06

 Cycle  12  Pass 1  IDiag  1:
 E= -706.367572204221     Delta-E=       -0.000000000140 Rises=F Damp=F
 DIIS: error= 1.18D-07 at cycle  12 NSaved=  12.
 NSaved=12 IEnMin=12 EnMin= -706.367572204221     IErMin=12 ErrMin= 1.18D-07
 ErrMax= 1.18D-07  0.00D+00 EMaxC= 1.00D-01 BMatC= 4.70D-12 BMatP= 1.12D-10
 IDIUse=1 WtCom= 1.00D+00 WtEn= 0.00D+00
 Coeff-Com: -0.139D-05 0.365D-05 0.379D-05 0.126D-04-0.129D-03-0.306D-03
 Coeff-Com: -0.149D-02-0.635D-02-0.118D-02 0.548D-01 0.205D+00 0.749D+00
 Coeff:     -0.139D-05 0.365D-05 0.379D-05 0.126D-04-0.129D-03-0.306D-03
 Coeff:     -0.149D-02-0.635D-02-0.118D-02 0.548D-01 0.205D+00 0.749D+00
 Gap=     0.211 Goal=   None    Shift=    0.000
 RMSDP=6.76D-08 MaxDP=2.48D-06 DE=-1.40D-10 OVMax= 1.45D-06

 Cycle  13  Pass 1  IDiag  1:
 E= -706.367572204224     Delta-E=       -0.000000000004 Rises=F Damp=F
 DIIS: error= 3.42D-08 at cycle  13 NSaved=  13.
 NSaved=13 IEnMin=13 EnMin= -706.367572204224     IErMin=13 ErrMin= 3.42D-08
 ErrMax= 3.42D-08  0.00D+00 EMaxC= 1.00D-01 BMatC= 1.57D-13 BMatP= 4.70D-12
 IDIUse=1 WtCom= 1.00D+00 WtEn= 0.00D+00
 Coeff-Com: -0.561D-06 0.567D-06 0.609D-06 0.562D-05 0.433D-04 0.830D-04
 Coeff-Com:  0.212D-03-0.107D-02-0.492D-02-0.200D-01-0.100D-01 0.140D+00
 Coeff-Com:  0.896D+00
 Coeff:     -0.561D-06 0.567D-06 0.609D-06 0.562D-05 0.433D-04 0.830D-04
 Coeff:      0.212D-03-0.107D-02-0.492D-02-0.200D-01-0.100D-01 0.140D+00
 Coeff:      0.896D+00
 Gap=     0.211 Goal=   None    Shift=    0.000
 RMSDP=1.53D-08 MaxDP=2.99D-07 DE=-3.64D-12 OVMax= 6.60D-07

 Cycle  14  Pass 1  IDiag  1:
 E= -706.367572204225     Delta-E=       -0.000000000001 Rises=F Damp=F
 DIIS: error= 5.14D-09 at cycle  14 NSaved=  14.
 NSaved=14 IEnMin=14 EnMin= -706.367572204225     IErMin=14 ErrMin= 5.14D-09
 ErrMax= 5.14D-09  0.00D+00 EMaxC= 1.00D-01 BMatC= 6.15D-15 BMatP= 1.57D-13
 IDIUse=1 WtCom= 1.00D+00 WtEn= 0.00D+00
 Coeff-Com: -0.474D-07 0.709D-08-0.120D-06 0.440D-06 0.115D-04 0.258D-04
 Coeff-Com:  0.820D-04 0.442D-04-0.763D-03-0.497D-02-0.950D-02-0.499D-02
 Coeff-Com:  0.150D+00 0.870D+00
 Coeff:     -0.474D-07 0.709D-08-0.120D-06 0.440D-06 0.115D-04 0.258D-04
 Coeff:      0.820D-04 0.442D-04-0.763D-03-0.497D-02-0.950D-02-0.499D-02
 Coeff:      0.150D+00 0.870D+00
 Gap=     0.211 Goal=   None    Shift=    0.000
 RMSDP=2.72D-09 MaxDP=5.79D-08 DE=-9.09D-13 OVMax= 9.80D-08

 Error on total polarization charges =  0.02406
 SCF Done:  E(RB3LYP) =  -706.367572204     A.U. after   14 cycles
            NFock= 14  Conv=0.27D-08     -V/T= 2.0051
 KE= 7.028079988015D+02 PE=-2.192406896563D+03 EE= 5.261705019919D+02
 SMD-CDS (non-electrostatic) energy       (kcal/mol) =       0.45
 (included in total energy above)
 Leave Link  502 at Tue Jan  7 23:00:47 2020, MaxMem=  4294967296 cpu:             598.4 elap:              44.9
 (Enter /home/cwagen/sw/g16/g16/l601.exe)
 Copying SCF densities to generalized density rwf, IOpCl= 0 IROHF=0.

 **********************************************************************

            Population analysis using the SCF density.

 **********************************************************************

 Orbital symmetries:
       Occupied  (A) (A) (A) (A) (A) (A) (A) (A) (A) (A) (A) (A)
                 (A) (A) (A) (A) (A) (A) (A) (A) (A) (A) (A) (A)
                 (A) (A) (A)
       Virtual   (A) (A) (A) (A) (A) (A) (A) (A) (A) (A) (A) (A)
                 (A) (A) (A) (A) (A) (A) (A) (A) (A) (A) (A) (A)
                 (A) (A) (A) (A) (A) (A) (A) (A) (A) (A) (A) (A)
                 (A) (A) (A) (A) (A) (A) (A) (A) (A) (A) (A) (A)
                 (A) (A) (A) (A) (A) (A) (A) (A) (A) (A) (A) (A)
                 (A) (A) (A) (A) (A) (A) (A) (A) (A) (A) (A) (A)
                 (A) (A) (A) (A) (A) (A) (A) (A) (A) (A) (A) (A)
                 (A) (A) (A) (A) (A) (A) (A) (A) (A) (A) (A) (A)
                 (A)
 The electronic state is 1-A.
 Alpha  occ. eigenvalues -- -101.52741 -19.08198 -14.28394 -10.29599 -10.16445
 Alpha  occ. eigenvalues --  -10.15840  -9.44818  -7.21124  -7.20256  -7.20179
 Alpha  occ. eigenvalues --   -0.97974  -0.85476  -0.84512  -0.69775  -0.53665
 Alpha  occ. eigenvalues --   -0.45179  -0.42985  -0.40996  -0.36978  -0.36387
 Alpha  occ. eigenvalues --   -0.34433  -0.29678  -0.29027  -0.28818  -0.27628
 Alpha  occ. eigenvalues --   -0.22992  -0.21422
 Alpha virt. eigenvalues --   -0.00312   0.03190   0.04973   0.05980   0.06516
 Alpha virt. eigenvalues --    0.07569   0.07931   0.08331   0.09533   0.09841
 Alpha virt. eigenvalues --    0.10226   0.10934   0.12141   0.13943   0.14239
 Alpha virt. eigenvalues --    0.15150   0.16104   0.17274   0.20272   0.22859
 Alpha virt. eigenvalues --    0.24102   0.24681   0.24990   0.26251   0.27192
 Alpha virt. eigenvalues --    0.27781   0.28933   0.30752   0.33308   0.35408
 Alpha virt. eigenvalues --    0.36400   0.39223   0.43172   0.55994   0.60787
 Alpha virt. eigenvalues --    0.63686   0.64907   0.65620   0.67619   0.69951
 Alpha virt. eigenvalues --    0.72797   0.75487   0.78083   0.78724   0.81630
 Alpha virt. eigenvalues --    0.82656   0.86507   0.91617   0.93089   0.94837
 Alpha virt. eigenvalues --    1.00262   1.02558   1.04506   1.06538   1.07696
 Alpha virt. eigenvalues --    1.10641   1.16939   1.19208   1.20807   1.30572
 Alpha virt. eigenvalues --    1.34983   1.36369   1.39173   1.47575   1.54432
 Alpha virt. eigenvalues --    1.57804   1.59228   1.59946   1.60432   1.66203
 Alpha virt. eigenvalues --    1.71419   1.81488   1.86285   1.89655   1.96569
 Alpha virt. eigenvalues --    1.97325   2.02183   2.03198   2.05734   2.21252
 Alpha virt. eigenvalues --    2.26189   2.28232   2.37695   2.52381   2.59999
 Alpha virt. eigenvalues --    2.62275   2.65917   2.68688   2.76604   3.02547
 Alpha virt. eigenvalues --    3.10561   4.06625   4.20741   4.31646   4.35761
 Alpha virt. eigenvalues --    4.37951   4.56516
          Condensed to atoms (all electrons):
               1          2          3          4          5          6
     1  C    6.218257   0.538967   0.116061  -0.066534  -0.022496  -0.089974
     2  O    0.538967   8.452122  -0.169808   0.009661  -0.008630  -0.001693
     3  C    0.116061  -0.169808   5.952087   0.358254   0.361639   0.410035
     4  H   -0.066534   0.009661   0.358254   0.506654  -0.030147  -0.026879
     5  H   -0.022496  -0.008630   0.361639  -0.030147   0.488794  -0.023984
     6  H   -0.089974  -0.001693   0.410035  -0.026879  -0.023984   0.481966
     7  Cl  -0.463045  -0.184008  -0.092823   0.018269  -0.006431   0.017736
     8  C   -0.182606  -0.136911  -0.375931   0.011059   0.012534   0.003055
     9  N   -0.008645  -0.004156  -0.002484  -0.000746   0.000044  -0.000396
               7          8          9
     1  C   -0.463045  -0.182606  -0.008645
     2  O   -0.184008  -0.136911  -0.004156
     3  C   -0.092823  -0.375931  -0.002484
     4  H    0.018269   0.011059  -0.000746
     5  H   -0.006431   0.012534   0.000044
     6  H    0.017736   0.003055  -0.000396
     7  Cl  17.546896   0.049398  -0.009122
     8  C    0.049398   6.012394   0.637462
     9  N   -0.009122   0.637462   7.067380
 Mulliken charges:
               1
     1  C   -0.039985
     2  O   -0.495545
     3  C   -0.557031
     4  H    0.220407
     5  H    0.228677
     6  H    0.230135
     7  Cl   0.123129
     8  C   -0.030452
     9  N   -0.679336
 Sum of Mulliken charges =  -1.00000
 Mulliken charges with hydrogens summed into heavy atoms:
               1
     1  C   -0.039985
     2  O   -0.495545
     3  C    0.122189
     7  Cl   0.123129
     8  C   -0.030452
     9  N   -0.679336
 Electronic spatial extent (au):  <R**2>=            746.6319
 Charge=             -1.0000 electrons
 Dipole moment (field-independent basis, Debye):
    X=             -6.7297    Y=              0.7515    Z=             -3.7332  Tot=              7.7324
 Quadrupole moment (field-independent basis, Debye-Ang):
   XX=            -70.3804   YY=            -46.6105   ZZ=            -51.9471
   XY=              2.9472   XZ=              2.9334   YZ=             -3.6014
 Traceless Quadrupole moment (field-independent basis, Debye-Ang):
   XX=            -14.0678   YY=              9.7022   ZZ=              4.3656
   XY=              2.9472   XZ=              2.9334   YZ=             -3.6014
 Octapole moment (field-independent basis, Debye-Ang**2):
  XXX=            -94.2459  YYY=             -1.6235  ZZZ=             -9.5227  XYY=             -7.5465
  XXY=              9.7555  XXZ=              1.5361  XZZ=             -2.9101  YZZ=             -5.0248
  YYZ=             -2.5479  XYZ=              1.0498
 Hexadecapole moment (field-independent basis, Debye-Ang**3):
 XXXX=           -863.5716 YYYY=           -266.7643 ZZZZ=           -198.5897 XXXY=             37.0194
 XXXZ=              9.6066 YYYX=             13.6610 YYYZ=              0.2981 ZZZX=              6.1103
 ZZZY=             -4.6074 XXYY=           -151.2340 XXZZ=           -139.9827 YYZZ=            -81.5943
 XXYZ=             -0.6409 YYXZ=              3.0458 ZZXY=              4.7774
 N-N= 2.570608235657D+02 E-N=-2.192406896611D+03  KE= 7.028079988015D+02
 No NMR shielding tensors so no spin-rotation constants.
 Leave Link  601 at Tue Jan  7 23:00:49 2020, MaxMem=  4294967296 cpu:              14.9 elap:               1.3
 (Enter /home/cwagen/sw/g16/g16/l701.exe)
 ... and contract with generalized density number  0.
 Compute integral first derivatives.
 D1PCM: PCM CHGder 1st derivatives, ID1Alg=3 FixD1E=F DoIter=F DoCFld=F I1PDM=0.
 GePol: Maximum number of non-zero 1st derivatives   =     330
 Leave Link  701 at Tue Jan  7 23:00:54 2020, MaxMem=  4294967296 cpu:              66.0 elap:               5.3
 (Enter /home/cwagen/sw/g16/g16/l702.exe)
 L702 exits ... SP integral derivatives will be done elsewhere.
 Leave Link  702 at Tue Jan  7 23:00:54 2020, MaxMem=  4294967296 cpu:               0.9 elap:               0.1
 (Enter /home/cwagen/sw/g16/g16/l703.exe)
 Integral derivatives from FoFJK, PRISM(SPDF).
 Compute integral first derivatives, UseDBF=F ICtDFT=           0.
 Calling FoFJK, ICntrl=      2127 FMM=F ISym2X=0 I1Cent= 0 IOpClX= 0 NMat=1 NMatS=1 NMatT=0.
 FoFJK:  IHMeth= 1 ICntrl=    2127 DoSepK=F KAlg= 0 I1Cent=           0 FoldK=F
 IRaf=         0 NMat=       1 IRICut=       1 DoRegI=T DoRafI=F ISym2E= 0 IDoP0=0 IntGTp=1.
 FoFCou: FMM=F IPFlag=           0 FMFlag=      100000 FMFlg1=         800
         NFxFlg=           0 DoJE=F BraDBF=F KetDBF=F FulRan=T
         wScrn=  0.000000 ICntrl=      2127 IOpCl=  0 I1Cent=           0 NGrid=           0
         NMat0=    1 NMatS0=      1 NMatT0=    0 NMatD0=    1 NMtDS0=    0 NMtDT0=    0
 Symmetry not used in FoFCou.
 Leave Link  703 at Tue Jan  7 23:00:57 2020, MaxMem=  4294967296 cpu:              35.8 elap:               2.8
 (Enter /home/cwagen/sw/g16/g16/l716.exe)
 Dipole        =-2.64768690D+00 2.95665855D-01-1.46873514D+00
 ***** Axes restored to original set *****
 -------------------------------------------------------------------
 Center     Atomic                   Forces (Hartrees/Bohr)
 Number     Number              X              Y              Z
 -------------------------------------------------------------------
      1        6           0.037286706   -0.131116052   -0.075546237
      2        8           0.016427679    0.017995632    0.042869115
      3        6           0.017580055    0.006391441   -0.000994410
      4        1           0.000261925    0.000118376   -0.001228364
      5        1           0.000572829    0.002304807   -0.001257028
      6        1          -0.000237858    0.000035543    0.000606633
      7       17          -0.065124026    0.106544199    0.033827410
      8        6          -0.018378999   -0.005138604    0.002063161
      9        7           0.011611689    0.002864658   -0.000340280
 -------------------------------------------------------------------
 Cartesian Forces:  Max     0.131116052 RMS     0.040519433
 Leave Link  716 at Tue Jan  7 23:00:57 2020, MaxMem=  4294967296 cpu:               1.1 elap:               0.1
 (Enter /home/cwagen/sw/g16/g16/l103.exe)

 GradGradGradGradGradGradGradGradGradGradGradGradGradGradGradGradGradGrad
 Berny optimization.
 FormGI is forming the generalized inverse of G from B-inverse, IUseBI=4.
 Internal  Forces:  Max     0.128515986 RMS     0.025633183
 Search for a local minimum.
 Step number   1 out of a maximum of   41
 All quantities printed in internal units (Hartrees-Bohrs-Radians)
 RMS Force = .11458D-01 SwitMx=.10000D-02 MixMth= 1
 Mixed Optimization -- RFO/linear search
 Second derivative matrix not updated -- first step.
 ITU=  0
     Eigenvalues ---    0.00230   0.04746   0.04746   0.05330   0.05908
     Eigenvalues ---    0.07453   0.10176   0.16000   0.16000   0.16000
     Eigenvalues ---    0.25000   0.25000   0.25000   0.26946   0.33918
     Eigenvalues ---    0.33999   0.34275   0.67840   1.220341000.00000
     Eigenvalues --- 1000.000001000.000001000.000001000.000001000.00000
     Eigenvalues --- 1000.000001000.000001000.000001000.000001000.00000
     Eigenvalues --- 1000.00000
 RFO step:  Lambda=-1.51382984D-02 EMin= 2.30000000D-03
 Linear search not attempted -- first point.
 Iteration  1 RMS(Cart)=  0.07447001 RMS(Int)=  0.00551951
 Iteration  2 RMS(Cart)=  0.00459588 RMS(Int)=  0.00407524
 Iteration  3 RMS(Cart)=  0.00000997 RMS(Int)=  0.00407523
 Iteration  4 RMS(Cart)=  0.00000014 RMS(Int)=  0.00407523
 Iteration  1 RMS(Cart)=  0.00000000 RMS(Int)=  0.00000000
 ITry= 1 IFail=0 DXMaxC= 1.52D-01 DCOld= 1.00D+10 DXMaxT= 3.00D-01 DXLimC= 3.00D+00 Rises=F
 Variable       Old X    -DE/DX   Delta X   Delta X   Delta X     New X
                                 (Linear)    (Quad)   (Total)
    R1        2.45227  -0.04696   0.00000  -0.06771  -0.06771   2.38457
    R2        2.94503  -0.01008   0.00000  -0.03542  -0.03542   2.90961
    R3        3.02356   0.12852   0.00000   0.00000   0.00000   3.02356
    R4        3.96842  -0.00672   0.00000   0.00000   0.00000   3.96842
    R5        2.07331  -0.00109   0.00000  -0.00307  -0.00307   2.07025
    R6        2.07468  -0.00129   0.00000  -0.00365  -0.00365   2.07104
    R7        2.06868  -0.00027   0.00000  -0.00075  -0.00075   2.06793
    R8        2.20923   0.01194   0.00000   0.00967   0.00967   2.21890
    A1        1.99667   0.01150   0.00000   0.06891   0.05836   2.05503
    A2        2.01908  -0.00423   0.00000   0.05215   0.03834   2.05742
    A3        1.89239  -0.00470   0.00000  -0.06497  -0.06233   1.83006
    A4        1.92419   0.01644   0.00000   0.08986   0.07928   2.00347
    A5        1.77194  -0.01385   0.00000  -0.09946  -0.09630   1.67564
    A6        1.83479  -0.00950   0.00000  -0.09052  -0.08648   1.74831
    A7        1.97398  -0.00044   0.00000  -0.00293  -0.00299   1.97099
    A8        1.87942  -0.00342   0.00000  -0.02099  -0.02102   1.85840
    A9        1.90140   0.00144   0.00000   0.01007   0.01009   1.91149
   A10        1.90356   0.00157   0.00000   0.00548   0.00538   1.90894
   A11        1.90837  -0.00021   0.00000   0.00135   0.00134   1.90971
   A12        1.89554   0.00110   0.00000   0.00721   0.00727   1.90281
   A13        3.09611   0.00030   0.00000   0.00479   0.00479   3.10090
   A14        2.89707  -0.00108   0.00000  -0.01727  -0.01727   2.87980
    D1        3.04510  -0.00939   0.00000  -0.11118  -0.11432   2.93078
    D2       -1.13357  -0.01003   0.00000  -0.12049  -0.12356  -1.25713
    D3        0.91915  -0.00985   0.00000  -0.11814  -0.12127   0.79787
    D4       -0.92685   0.01074   0.00000   0.11185   0.11539  -0.81146
    D5        1.17766   0.01009   0.00000   0.10254   0.10615   1.28381
    D6       -3.05280   0.01027   0.00000   0.10489   0.10843  -2.94437
    D7        1.01121  -0.00059   0.00000  -0.00473  -0.00520   1.00601
    D8        3.11572  -0.00124   0.00000  -0.01404  -0.01444   3.10128
    D9       -1.11475  -0.00106   0.00000  -0.01169  -0.01215  -1.12690
         Item               Value     Threshold  Converged?
 Maximum Force            0.046957     0.000450     NO 
 RMS     Force            0.011458     0.000300     NO 
 Maximum Displacement     0.151895     0.001800     NO 
 RMS     Displacement     0.074397     0.001200     NO 
 Predicted change in Energy=-9.100086D-03
 Lowest energy point so far.  Saving SCF results.
 GradGradGradGradGradGradGradGradGradGradGradGradGradGradGradGradGradGrad

 Leave Link  103 at Tue Jan  7 23:01:03 2020, MaxMem=  4294967296 cpu:              77.9 elap:               5.9
 (Enter /home/cwagen/sw/g16/g16/l202.exe)
                          Input orientation:                          
 ---------------------------------------------------------------------
 Center     Atomic      Atomic             Coordinates (Angstroms)
 Number     Number       Type             X           Y           Z
 ---------------------------------------------------------------------
      1          6           0       -0.272794   -0.316127   -0.234396
      2          8           0       -0.233931   -0.641020   -1.453092
      3          6           0       -0.304294   -1.448321    0.808590
      4          1           0       -0.125718   -1.093267    1.829486
      5          1           0       -1.302016   -1.897915    0.749331
      6          1           0        0.443523   -2.204331    0.550297
      7         17           0       -1.108419    0.988272    0.165947
      8          6           0        1.672313    0.338526    0.210559
      9          7           0        2.814527    0.608438    0.245498
 ---------------------------------------------------------------------
                    Distance matrix (angstroms):
                    1          2          3          4          5
     1  C    0.000000
     2  O    1.261858   0.000000
     3  C    1.539700   2.402477   0.000000
     4  H    2.210246   3.315351   1.095527   0.000000
     5  H    2.128162   2.751592   1.095945   1.788259   0.000000
     6  H    2.166603   2.629915   1.094303   1.787406   1.783371
     7  Cl   1.600000   2.457765   2.645107   2.840047   2.950915
     8  C    2.100000   2.713119   2.730831   2.811382   3.760130
     9  N    3.258323   3.706676   3.778144   3.748314   4.845779
                    6          7          8          9
     6  H    0.000000
     7  Cl   3.570569   0.000000
     8  C    2.844551   2.855982   0.000000
     9  N    3.691373   3.942093   1.174191   0.000000
 Stoichiometry    C3H3ClNO(1-)
 Framework group  C1[X(C3H3ClNO)]
 Deg. of freedom    21
 Full point group                 C1      NOp   1
 RotChk:  IX=0 Diff= 8.08D-02
 Largest Abelian subgroup         C1      NOp   1
 Largest concise Abelian subgroup C1      NOp   1
                         Standard orientation:                         
 ---------------------------------------------------------------------
 Center     Atomic      Atomic             Coordinates (Angstroms)
 Number     Number       Type             X           Y           Z
 ---------------------------------------------------------------------
      1          6           0       -0.391931    0.341088    0.220096
      2          8           0       -0.446998    0.682315    1.433693
      3          6           0       -0.415202    1.457380   -0.840105
      4          1           0       -0.154401    1.099747   -1.842233
      5          1           0       -1.436367    1.855139   -0.850359
      6          1           0        0.275096    2.254352   -0.547149
      7         17           0       -1.132691   -1.009780   -0.211678
      8          6           0        1.608392   -0.216820   -0.092067
      9          7           0        2.762836   -0.427341   -0.051259
 ---------------------------------------------------------------------
 Rotational constants (GHZ):           3.8743078           2.1109252           1.8349807
 Leave Link  202 at Tue Jan  7 23:01:03 2020, MaxMem=  4294967296 cpu:               2.0 elap:               0.2
 (Enter /home/cwagen/sw/g16/g16/l301.exe)
 Standard basis: 6-31+G(d) (6D, 7F)
 Ernie: Thresh=  0.10000D-02 Tol=  0.10000D-05 Strict=F.
 There are   124 symmetry adapted cartesian basis functions of A   symmetry.
 There are   124 symmetry adapted basis functions of A   symmetry.
   124 basis functions,   228 primitive gaussians,   124 cartesian basis functions
    27 alpha electrons       27 beta electrons
       nuclear repulsion energy       259.3942369755 Hartrees.
 IExCor=  402 DFT=T Ex+Corr=B3LYP ExCW=0 ScaHFX=  0.200000
 ScaDFX=  0.800000  0.720000  1.000000  0.810000 ScalE2=  1.000000  1.000000
 IRadAn=      5 IRanWt=     -1 IRanGd=            0 ICorTp=0 IEmpDi=  4
 NAtoms=    9 NActive=    9 NUniq=    9 SFac= 1.00D+00 NAtFMM=   60 NAOKFM=F Big=F
 Integral buffers will be    131072 words long.
 Raffenetti 2 integral format.
 Two-electron integral symmetry is turned on.
 ------------------------------------------------------------------------------
 Polarizable Continuum Model (PCM)
 =================================
 Model                : PCM.
 Atomic radii         : SMD-Coulomb.
 Polarization charges : Total charges.
 Charge compensation  : None.
 Solution method      : On-the-fly selection.
 Cavity type          : VdW (van der Waals Surface) (Alpha=1.000).
 Cavity algorithm     : GePol (No added spheres)
                        Default sphere list used, NSphG=    9.
                        Lebedev-Laikov grids with approx.  5.0 points / Ang**2.
                        Smoothing algorithm: York/Karplus (Gamma=1.0000).
                        Polarization charges: spherical gaussians, with
                                              point-specific exponents (IZeta= 3).
                        Self-potential: point-specific (ISelfS= 7).
                        Self-field    : sphere-specific E.n sum rule (ISelfD= 2).
 1st derivatives      : Analytical E(r).r(x)/FMM algorithm (CHGder, D1EAlg=3).
                        Cavity 1st derivative terms included.
 Solvent              : TetraHydroFuran, Eps=   7.425700 Eps(inf)=   1.974025
 ------------------------------------------------------------------------------
 Spheres list:
 ISph  on   Nord     Re0    Alpha      Xe            Ye            Ze
    1   C      1    1.8500  1.000     -0.391931      0.341088      0.220096
    2   O      2    2.2940  1.000     -0.446998      0.682315      1.433693
    3   C      3    1.8500  1.000     -0.415202      1.457380     -0.840105
    4   H      4    1.2000  1.000     -0.154401      1.099747     -1.842233
    5   H      5    1.2000  1.000     -1.436367      1.855139     -0.850359
    6   H      6    1.2000  1.000      0.275096      2.254352     -0.547149
    7  Cl      7    2.3800  1.000     -1.132691     -1.009780     -0.211678
    8   C      8    1.8500  1.000      1.608392     -0.216820     -0.092067
    9   N      9    1.8900  1.000      2.762836     -0.427341     -0.051259
 ------------------------------------------------------------------------------
 GePol: Number of generator spheres                  =       9
 GePol: Total number of spheres                      =       9
 GePol: Number of exposed spheres                    =       9 (100.00%)
 GePol: Number of points                             =    1138
 GePol: Average weight of points                     =       0.13
 GePol: Minimum weight of points                     =   0.61D-07
 GePol: Maximum weight of points                     =    0.18138
 GePol: Number of points with low weight             =      43
 GePol: Fraction of low-weight points (<1% of avg)   =       3.78%
 GePol: Cavity surface area                          =    152.668 Ang**2
 GePol: Cavity volume                                =    140.359 Ang**3
 ------------------------------------------------------------------------------
 Atomic radii for non-electrostatic terms: SMD-CDS.
 ------------------------------------------------------------------------------
 PCM non-electrostatic energy =         0.0006314985 Hartrees.
 Nuclear repulsion after PCM non-electrostatic terms =      259.3948684740 Hartrees.
 Leave Link  301 at Tue Jan  7 23:01:04 2020, MaxMem=  4294967296 cpu:               2.4 elap:               0.2
 (Enter /home/cwagen/sw/g16/g16/l302.exe)
 NPDir=0 NMtPBC=     1 NCelOv=     1 NCel=       1 NClECP=     1 NCelD=      1
         NCelK=      1 NCelE2=     1 NClLst=     1 CellRange=     0.0.
 One-electron integrals computed using PRISM.
 One-electron integral symmetry used in STVInt
 NBasis=   124 RedAO= T EigKep=  4.19D-05  NBF=   124
 NBsUse=   124 1.00D-06 EigRej= -1.00D+00 NBFU=   124
 Precomputing XC quadrature grid using
 IXCGrd= 4 IRadAn=           5 IRanWt=          -1 IRanGd=           0 AccXCQ= 0.00D+00.
 Generated NRdTot=       0 NPtTot=           0 NUsed=           0 NTot=          32
 NSgBfM=   124   124   124   124   124 MxSgAt=     9 MxSgA2=     9.
 Leave Link  302 at Tue Jan  7 23:01:06 2020, MaxMem=  4294967296 cpu:              31.3 elap:               2.8
 (Enter /home/cwagen/sw/g16/g16/l303.exe)
 DipDrv:  MaxL=1.
 Leave Link  303 at Tue Jan  7 23:01:07 2020, MaxMem=  4294967296 cpu:               3.9 elap:               0.4
 (Enter /home/cwagen/sw/g16/g16/l401.exe)
 Initial guess from the checkpoint file:  "/scratch/users/cwagen/cwagen_scan_160_210/Gau-10320.chk"
 B after Tr=     0.000000    0.000000    0.000000
         Rot=    0.999852   -0.005038    0.007366    0.014696 Ang=  -1.97 deg.
 Guess basis will be translated and rotated to current coordinates.
 JPrj=2 DoOrth=T DoCkMO=T.
 Generating alternative initial guess.
 ExpMin= 4.38D-02 ExpMax= 2.52D+04 ExpMxC= 3.78D+03 IAcc=2 IRadAn=         4 AccDes= 0.00D+00
 Harris functional with IExCor=  402 and IRadAn=       4 diagonalized for initial guess.
 HarFok:  IExCor=  402 AccDes= 0.00D+00 IRadAn=         4 IDoV= 1 UseB2=F ITyADJ=14
 ICtDFT=  3500011 ScaDFX=  1.000000  1.000000  1.000000  1.000000
 FoFCou: FMM=F IPFlag=           0 FMFlag=      100000 FMFlg1=           0
         NFxFlg=           0 DoJE=T BraDBF=F KetDBF=T FulRan=T
         wScrn=  0.000000 ICntrl=       500 IOpCl=  0 I1Cent=   200000004 NGrid=           0
         NMat0=    1 NMatS0=      1 NMatT0=    0 NMatD0=    1 NMtDS0=    0 NMtDT0=    0
 Petite list used in FoFCou.
 Harris En= -706.400914139648    
 Leave Link  401 at Tue Jan  7 23:01:11 2020, MaxMem=  4294967296 cpu:              45.1 elap:               3.7
 (Enter /home/cwagen/sw/g16/g16/l502.exe)
 Keep R1 ints in memory in canonical form, NReq=45236517.
 FoFCou: FMM=F IPFlag=           0 FMFlag=           0 FMFlg1=           0
         NFxFlg=           0 DoJE=F BraDBF=F KetDBF=F FulRan=T
         wScrn=  0.000000 ICntrl=       600 IOpCl=  0 I1Cent=           0 NGrid=           0
         NMat0=    1 NMatS0=   7750 NMatT0=    0 NMatD0=    1 NMtDS0=    0 NMtDT0=    0
 Symmetry not used in FoFCou.
 Two-electron integral symmetry not used.
 Closed shell SCF:
 Using DIIS extrapolation, IDIIS=  1040.
 NGot=  4294967296 LenX=  4264898079 LenY=  4264882262
 Requested convergence on RMS density matrix=1.00D-08 within 128 cycles.
 Requested convergence on MAX density matrix=1.00D-06.
 Requested convergence on             energy=1.00D-06.
 No special actions if energy rises.

 Cycle   1  Pass 1  IDiag  1:
 Inv3:  Mode=1 IEnd=     3885132.
 Iteration    1 A*A^-1 deviation from unit magnitude is 2.66D-15 for    105.
 Iteration    1 A*A^-1 deviation from orthogonality  is 2.58D-15 for    312    106.
 Iteration    1 A^-1*A deviation from unit magnitude is 2.44D-15 for    105.
 Iteration    1 A^-1*A deviation from orthogonality  is 1.47D-15 for   1137   1016.
 E= -706.364719230411    
 DIIS: error= 6.23D-03 at cycle   1 NSaved=   1.
 NSaved= 1 IEnMin= 1 EnMin= -706.364719230411     IErMin= 1 ErrMin= 6.23D-03
 ErrMax= 6.23D-03  0.00D+00 EMaxC= 1.00D-01 BMatC= 6.81D-03 BMatP= 6.81D-03
 IDIUse=3 WtCom= 9.38D-01 WtEn= 6.23D-02
 Coeff-Com:  0.100D+01
 Coeff-En:   0.100D+01
 Coeff:      0.100D+01
 Gap=     0.609 Goal=   None    Shift=    0.000
 GapD=    0.609 DampG=2.000 DampE=1.000 DampFc=2.0000 IDamp=-1.
 RMSDP=2.40D-03 MaxDP=5.36D-02              OVMax= 3.15D-02

 Cycle   2  Pass 1  IDiag  1:
 E= -706.375670335624     Delta-E=       -0.010951105212 Rises=F Damp=F
 DIIS: error= 1.05D-03 at cycle   2 NSaved=   2.
 NSaved= 2 IEnMin= 2 EnMin= -706.375670335624     IErMin= 2 ErrMin= 1.05D-03
 ErrMax= 1.05D-03  0.00D+00 EMaxC= 1.00D-01 BMatC= 2.59D-04 BMatP= 6.81D-03
 IDIUse=3 WtCom= 9.90D-01 WtEn= 1.05D-02
 Coeff-Com:  0.148D-01 0.985D+00
 Coeff-En:   0.000D+00 0.100D+01
 Coeff:      0.146D-01 0.985D+00
 Gap=     0.225 Goal=   None    Shift=    0.000
 RMSDP=6.57D-04 MaxDP=2.85D-02 DE=-1.10D-02 OVMax= 9.97D-03

 Cycle   3  Pass 1  IDiag  1:
 E= -706.375651583432     Delta-E=        0.000018752192 Rises=F Damp=F
 DIIS: error= 1.19D-03 at cycle   3 NSaved=   3.
 NSaved= 3 IEnMin= 2 EnMin= -706.375670335624     IErMin= 2 ErrMin= 1.05D-03
 ErrMax= 1.19D-03  0.00D+00 EMaxC= 1.00D-01 BMatC= 3.46D-04 BMatP= 2.59D-04
 IDIUse=3 WtCom= 2.25D-01 WtEn= 7.75D-01
 Coeff-Com: -0.292D-01 0.553D+00 0.477D+00
 Coeff-En:   0.000D+00 0.518D+00 0.482D+00
 Coeff:     -0.656D-02 0.526D+00 0.481D+00
 Gap=     0.227 Goal=   None    Shift=    0.000
 RMSDP=4.08D-04 MaxDP=1.97D-02 DE= 1.88D-05 OVMax= 6.14D-03

 Cycle   4  Pass 1  IDiag  1:
 E= -706.375918650998     Delta-E=       -0.000267067566 Rises=F Damp=F
 DIIS: error= 4.81D-04 at cycle   4 NSaved=   4.
 NSaved= 4 IEnMin= 4 EnMin= -706.375918650998     IErMin= 4 ErrMin= 4.81D-04
 ErrMax= 4.81D-04  0.00D+00 EMaxC= 1.00D-01 BMatC= 5.69D-05 BMatP= 2.59D-04
 IDIUse=3 WtCom= 9.95D-01 WtEn= 4.81D-03
 Coeff-Com: -0.177D-01 0.232D+00 0.323D+00 0.463D+00
 Coeff-En:   0.000D+00 0.000D+00 0.120D+00 0.880D+00
 Coeff:     -0.176D-01 0.231D+00 0.322D+00 0.465D+00
 Gap=     0.226 Goal=   None    Shift=    0.000
 RMSDP=1.10D-04 MaxDP=2.88D-03 DE=-2.67D-04 OVMax= 2.45D-03

 Cycle   5  Pass 1  IDiag  1:
 E= -706.375962245272     Delta-E=       -0.000043594275 Rises=F Damp=F
 DIIS: error= 1.58D-04 at cycle   5 NSaved=   5.
 NSaved= 5 IEnMin= 5 EnMin= -706.375962245272     IErMin= 5 ErrMin= 1.58D-04
 ErrMax= 1.58D-04  0.00D+00 EMaxC= 1.00D-01 BMatC= 6.27D-06 BMatP= 5.69D-05
 IDIUse=3 WtCom= 9.98D-01 WtEn= 1.58D-03
 Coeff-Com: -0.659D-02 0.691D-01 0.143D+00 0.308D+00 0.487D+00
 Coeff-En:   0.000D+00 0.000D+00 0.000D+00 0.583D-01 0.942D+00
 Coeff:     -0.658D-02 0.690D-01 0.143D+00 0.307D+00 0.487D+00
 Gap=     0.226 Goal=   None    Shift=    0.000
 RMSDP=5.54D-05 MaxDP=3.15D-03 DE=-4.36D-05 OVMax= 5.38D-04

 Cycle   6  Pass 1  IDiag  1:
 E= -706.375967653420     Delta-E=       -0.000005408148 Rises=F Damp=F
 DIIS: error= 2.57D-05 at cycle   6 NSaved=   6.
 NSaved= 6 IEnMin= 6 EnMin= -706.375967653420     IErMin= 6 ErrMin= 2.57D-05
 ErrMax= 2.57D-05  0.00D+00 EMaxC= 1.00D-01 BMatC= 1.96D-07 BMatP= 6.27D-06
 IDIUse=1 WtCom= 1.00D+00 WtEn= 0.00D+00
 Coeff-Com: -0.103D-02 0.186D-02 0.253D-01 0.869D-01 0.200D+00 0.687D+00
 Coeff:     -0.103D-02 0.186D-02 0.253D-01 0.869D-01 0.200D+00 0.687D+00
 Gap=     0.226 Goal=   None    Shift=    0.000
 RMSDP=1.29D-05 MaxDP=2.86D-04 DE=-5.41D-06 OVMax= 1.83D-04

 Cycle   7  Pass 1  IDiag  1:
 E= -706.375967765953     Delta-E=       -0.000000112533 Rises=F Damp=F
 DIIS: error= 2.13D-05 at cycle   7 NSaved=   7.
 NSaved= 7 IEnMin= 7 EnMin= -706.375967765953     IErMin= 7 ErrMin= 2.13D-05
 ErrMax= 2.13D-05  0.00D+00 EMaxC= 1.00D-01 BMatC= 1.00D-07 BMatP= 1.96D-07
 IDIUse=1 WtCom= 1.00D+00 WtEn= 0.00D+00
 Coeff-Com:  0.111D-03-0.745D-02 0.896D-03 0.282D-01 0.861D-01 0.464D+00
 Coeff-Com:  0.428D+00
 Coeff:      0.111D-03-0.745D-02 0.896D-03 0.282D-01 0.861D-01 0.464D+00
 Coeff:      0.428D+00
 Gap=     0.226 Goal=   None    Shift=    0.000
 RMSDP=3.61D-06 MaxDP=8.51D-05 DE=-1.13D-07 OVMax= 1.02D-04

 Cycle   8  Pass 1  IDiag  1:
 E= -706.375967847476     Delta-E=       -0.000000081523 Rises=F Damp=F
 DIIS: error= 5.43D-06 at cycle   8 NSaved=   8.
 NSaved= 8 IEnMin= 8 EnMin= -706.375967847476     IErMin= 8 ErrMin= 5.43D-06
 ErrMax= 5.43D-06  0.00D+00 EMaxC= 1.00D-01 BMatC= 5.41D-09 BMatP= 1.00D-07
 IDIUse=1 WtCom= 1.00D+00 WtEn= 0.00D+00
 Coeff-Com:  0.158D-03-0.336D-02-0.251D-02 0.394D-02 0.149D-01 0.122D+00
 Coeff-Com:  0.231D+00 0.635D+00
 Coeff:      0.158D-03-0.336D-02-0.251D-02 0.394D-02 0.149D-01 0.122D+00
 Coeff:      0.231D+00 0.635D+00
 Gap=     0.226 Goal=   None    Shift=    0.000
 RMSDP=1.33D-06 MaxDP=2.49D-05 DE=-8.15D-08 OVMax= 1.99D-05

 Cycle   9  Pass 1  IDiag  1:
 E= -706.375967852067     Delta-E=       -0.000000004591 Rises=F Damp=F
 DIIS: error= 8.48D-07 at cycle   9 NSaved=   9.
 NSaved= 9 IEnMin= 9 EnMin= -706.375967852067     IErMin= 9 ErrMin= 8.48D-07
 ErrMax= 8.48D-07  0.00D+00 EMaxC= 1.00D-01 BMatC= 2.58D-10 BMatP= 5.41D-09
 IDIUse=1 WtCom= 1.00D+00 WtEn= 0.00D+00
 Coeff-Com:  0.558D-04-0.795D-03-0.123D-02-0.417D-03-0.158D-02 0.860D-02
 Coeff-Com:  0.669D-01 0.247D+00 0.681D+00
 Coeff:      0.558D-04-0.795D-03-0.123D-02-0.417D-03-0.158D-02 0.860D-02
 Coeff:      0.669D-01 0.247D+00 0.681D+00
 Gap=     0.226 Goal=   None    Shift=    0.000
 RMSDP=5.45D-07 MaxDP=1.62D-05 DE=-4.59D-09 OVMax= 6.49D-06

 Cycle  10  Pass 1  IDiag  1:
 E= -706.375967852376     Delta-E=       -0.000000000309 Rises=F Damp=F
 DIIS: error= 1.89D-07 at cycle  10 NSaved=  10.
 NSaved=10 IEnMin=10 EnMin= -706.375967852376     IErMin=10 ErrMin= 1.89D-07
 ErrMax= 1.89D-07  0.00D+00 EMaxC= 1.00D-01 BMatC= 1.54D-11 BMatP= 2.58D-10
 IDIUse=1 WtCom= 1.00D+00 WtEn= 0.00D+00
 Coeff-Com:  0.374D-05 0.865D-04-0.174D-03-0.541D-03-0.235D-02-0.105D-01
 Coeff-Com: -0.887D-03 0.164D-01 0.243D+00 0.755D+00
 Coeff:      0.374D-05 0.865D-04-0.174D-03-0.541D-03-0.235D-02-0.105D-01
 Coeff:     -0.887D-03 0.164D-01 0.243D+00 0.755D+00
 Gap=     0.226 Goal=   None    Shift=    0.000
 RMSDP=9.96D-08 MaxDP=2.08D-06 DE=-3.09D-10 OVMax= 2.60D-06

 Cycle  11  Pass 1  IDiag  1:
 E= -706.375967852397     Delta-E=       -0.000000000020 Rises=F Damp=F
 DIIS: error= 3.23D-08 at cycle  11 NSaved=  11.
 NSaved=11 IEnMin=11 EnMin= -706.375967852397     IErMin=11 ErrMin= 3.23D-08
 ErrMax= 3.23D-08  0.00D+00 EMaxC= 1.00D-01 BMatC= 3.93D-13 BMatP= 1.54D-11
 IDIUse=1 WtCom= 1.00D+00 WtEn= 0.00D+00
 Coeff-Com: -0.994D-06 0.434D-04 0.699D-05-0.102D-03-0.461D-03-0.209D-02
 Coeff-Com: -0.281D-02-0.404D-02 0.265D-01 0.159D+00 0.824D+00
 Coeff:     -0.994D-06 0.434D-04 0.699D-05-0.102D-03-0.461D-03-0.209D-02
 Coeff:     -0.281D-02-0.404D-02 0.265D-01 0.159D+00 0.824D+00
 Gap=     0.226 Goal=   None    Shift=    0.000
 RMSDP=1.78D-08 MaxDP=4.46D-07 DE=-2.02D-11 OVMax= 3.59D-07

 Cycle  12  Pass 1  IDiag  1:
 E= -706.375967852395     Delta-E=        0.000000000002 Rises=F Damp=F
 DIIS: error= 1.33D-08 at cycle  12 NSaved=  12.
 NSaved=12 IEnMin=11 EnMin= -706.375967852397     IErMin=12 ErrMin= 1.33D-08
 ErrMax= 1.33D-08  0.00D+00 EMaxC= 1.00D-01 BMatC= 3.01D-14 BMatP= 3.93D-13
 IDIUse=1 WtCom= 1.00D+00 WtEn= 0.00D+00
 Coeff-Com: -0.486D-06 0.113D-04 0.794D-05-0.174D-04-0.842D-04-0.287D-03
 Coeff-Com: -0.989D-03-0.218D-02-0.899D-04 0.266D-01 0.296D+00 0.681D+00
 Coeff:     -0.486D-06 0.113D-04 0.794D-05-0.174D-04-0.842D-04-0.287D-03
 Coeff:     -0.989D-03-0.218D-02-0.899D-04 0.266D-01 0.296D+00 0.681D+00
 Gap=     0.226 Goal=   None    Shift=    0.000
 RMSDP=5.64D-09 MaxDP=3.03D-07 DE= 2.05D-12 OVMax= 5.01D-08

 Error on total polarization charges =  0.02432
 SCF Done:  E(RB3LYP) =  -706.375967852     A.U. after   12 cycles
            NFock= 12  Conv=0.56D-08     -V/T= 2.0049
 KE= 7.029442711061D+02 PE=-2.197216899074D+03 EE= 5.285017916420D+02
 SMD-CDS (non-electrostatic) energy       (kcal/mol) =       0.40
 (included in total energy above)
 Leave Link  502 at Tue Jan  7 23:01:47 2020, MaxMem=  4294967296 cpu:             459.7 elap:              36.3
 (Enter /home/cwagen/sw/g16/g16/l701.exe)
 ... and contract with generalized density number  0.
 Compute integral first derivatives.
 D1PCM: PCM CHGder 1st derivatives, ID1Alg=3 FixD1E=F DoIter=F DoCFld=F I1PDM=0.
 GePol: Maximum number of non-zero 1st derivatives   =     323
 Leave Link  701 at Tue Jan  7 23:01:53 2020, MaxMem=  4294967296 cpu:              70.4 elap:               5.8
 (Enter /home/cwagen/sw/g16/g16/l702.exe)
 L702 exits ... SP integral derivatives will be done elsewhere.
 Leave Link  702 at Tue Jan  7 23:01:53 2020, MaxMem=  4294967296 cpu:               1.1 elap:               0.1
 (Enter /home/cwagen/sw/g16/g16/l703.exe)
 Integral derivatives from FoFJK, PRISM(SPDF).
 Compute integral first derivatives, UseDBF=F ICtDFT=           0.
 Calling FoFJK, ICntrl=      2127 FMM=F ISym2X=0 I1Cent= 0 IOpClX= 0 NMat=1 NMatS=1 NMatT=0.
 FoFJK:  IHMeth= 1 ICntrl=    2127 DoSepK=F KAlg= 0 I1Cent=           0 FoldK=F
 IRaf=         0 NMat=       1 IRICut=       1 DoRegI=T DoRafI=F ISym2E= 0 IDoP0=0 IntGTp=1.
 FoFCou: FMM=F IPFlag=           0 FMFlag=      100000 FMFlg1=         800
         NFxFlg=           0 DoJE=F BraDBF=F KetDBF=F FulRan=T
         wScrn=  0.000000 ICntrl=      2127 IOpCl=  0 I1Cent=           0 NGrid=           0
         NMat0=    1 NMatS0=      1 NMatT0=    0 NMatD0=    1 NMtDS0=    0 NMtDT0=    0
 Symmetry not used in FoFCou.
 Leave Link  703 at Tue Jan  7 23:01:56 2020, MaxMem=  4294967296 cpu:              41.3 elap:               3.4
 (Enter /home/cwagen/sw/g16/g16/l716.exe)
 Dipole        =-2.77542640D+00 4.82654649D-01-1.39852689D+00
 ***** Axes restored to original set *****
 -------------------------------------------------------------------
 Center     Atomic                   Forces (Hartrees/Bohr)
 Number     Number              X              Y              Z
 -------------------------------------------------------------------
      1        6           0.057021697   -0.115121884   -0.055603350
      2        8           0.000062306    0.004866845    0.018899842
      3        6           0.002944240    0.005731735   -0.000644915
      4        1          -0.000631737   -0.000025489   -0.001015933
      5        1          -0.001838988   -0.001699363    0.001082163
      6        1          -0.000992470    0.001180231   -0.000622261
      7       17          -0.065758746    0.102492783    0.034103180
      8        6           0.004523276    0.001472521    0.004441882
      9        7           0.004670423    0.001102619   -0.000640608
 -------------------------------------------------------------------
 Cartesian Forces:  Max     0.115121884 RMS     0.036559708
 Leave Link  716 at Tue Jan  7 23:01:57 2020, MaxMem=  4294967296 cpu:               1.1 elap:               0.1
 (Enter /home/cwagen/sw/g16/g16/l103.exe)

 GradGradGradGradGradGradGradGradGradGradGradGradGradGradGradGradGradGrad
 Berny optimization.
 Using GEDIIS/GDIIS optimizer.
 FormGI is forming the generalized inverse of G from B-inverse, IUseBI=4.
 Internal  Forces:  Max     0.126429550 RMS     0.023127916
 Search for a local minimum.
 Step number   2 out of a maximum of   41
 All quantities printed in internal units (Hartrees-Bohrs-Radians)
 RMS Force = .41361D-02 SwitMx=.10000D-02 MixMth= 1
 Mixed Optimization -- RFO/linear search
 Update second derivatives using D2CorX and points    1    2
 DE= -8.40D-03 DEPred=-9.10D-03 R= 9.23D-01
 TightC=F SS=  1.41D+00  RLast= 3.44D-01 DXNew= 5.0454D-01 1.0326D+00
 Trust test= 9.23D-01 RLast= 3.44D-01 DXMaxT set to 5.05D-01
 ITU=  1  0
 Use linear search instead of GDIIS.
     Eigenvalues ---    0.00230   0.04722   0.04746   0.05344   0.05985
     Eigenvalues ---    0.07907   0.10561   0.15992   0.16000   0.16271
     Eigenvalues ---    0.24483   0.25000   0.26338   0.27861   0.33983
     Eigenvalues ---    0.34060   0.34304   0.56042   1.214011000.00000
     Eigenvalues --- 1000.000001000.000001000.000001000.000001000.00000
     Eigenvalues --- 1000.000001000.000001000.000001000.000001000.00000
     Eigenvalues --- 1000.00000
 RFO step:  Lambda=-1.06657468D-03 EMin= 2.30106950D-03
 Quartic linear search produced a step of  0.15614.
 Iteration  1 RMS(Cart)=  0.02289086 RMS(Int)=  0.00068611
 Iteration  2 RMS(Cart)=  0.00033800 RMS(Int)=  0.00062768
 Iteration  3 RMS(Cart)=  0.00000014 RMS(Int)=  0.00062768
 Iteration  1 RMS(Cart)=  0.00000000 RMS(Int)=  0.00000000
 ITry= 1 IFail=0 DXMaxC= 4.93D-02 DCOld= 1.00D+10 DXMaxT= 5.05D-01 DXLimC= 3.00D+00 Rises=F
 Variable       Old X    -DE/DX   Delta X   Delta X   Delta X     New X
                                 (Linear)    (Quad)   (Total)
    R1        2.38457  -0.01950  -0.01057  -0.02903  -0.03960   2.34496
    R2        2.90961  -0.00458  -0.00553  -0.01729  -0.02282   2.88679
    R3        3.02356   0.12643   0.00000   0.00000   0.00000   3.02356
    R4        3.96842   0.01007   0.00000   0.00000   0.00000   3.96842
    R5        2.07025  -0.00105  -0.00048  -0.00335  -0.00382   2.06642
    R6        2.07104   0.00230  -0.00057   0.00802   0.00745   2.07849
    R7        2.06793  -0.00128  -0.00012  -0.00424  -0.00436   2.06357
    R8        2.21890   0.00477   0.00151   0.00393   0.00544   2.22434
    A1        2.05503   0.00212   0.00911   0.00689   0.01435   2.06937
    A2        2.05742   0.00267   0.00599   0.01351   0.01735   2.07477
    A3        1.83006   0.00143  -0.00973   0.01314   0.00391   1.83397
    A4        2.00347  -0.00454   0.01238  -0.02668  -0.01608   1.98740
    A5        1.67564  -0.00355  -0.01504  -0.01103  -0.02573   1.64991
    A6        1.74831   0.00119  -0.01350   0.00555  -0.00776   1.74055
    A7        1.97099  -0.00051  -0.00047  -0.00395  -0.00444   1.96655
    A8        1.85840   0.00234  -0.00328   0.01930   0.01604   1.87444
    A9        1.91149  -0.00147   0.00158  -0.01189  -0.01031   1.90118
   A10        1.90894  -0.00090   0.00084  -0.00546  -0.00463   1.90431
   A11        1.90971   0.00091   0.00021   0.00436   0.00452   1.91424
   A12        1.90281  -0.00037   0.00113  -0.00213  -0.00094   1.90187
   A13        3.10090   0.00036   0.00075   0.00819   0.00894   3.10984
   A14        2.87980  -0.00138  -0.00270  -0.03120  -0.03390   2.84590
    D1        2.93078  -0.00054  -0.01785  -0.00983  -0.02817   2.90261
    D2       -1.25713  -0.00040  -0.01929  -0.00614  -0.02591  -1.28305
    D3        0.79787  -0.00029  -0.01894  -0.00412  -0.02358   0.77429
    D4       -0.81146   0.00075   0.01802  -0.01541   0.00303  -0.80844
    D5        1.28381   0.00088   0.01657  -0.01172   0.00528   1.28909
    D6       -2.94437   0.00099   0.01693  -0.00970   0.00761  -2.93676
    D7        1.00601  -0.00073  -0.00081  -0.02071  -0.02143   0.98458
    D8        3.10128  -0.00059  -0.00225  -0.01702  -0.01918   3.08211
    D9       -1.12690  -0.00048  -0.00190  -0.01500  -0.01684  -1.14374
         Item               Value     Threshold  Converged?
 Maximum Force            0.019502     0.000450     NO 
 RMS     Force            0.004136     0.000300     NO 
 Maximum Displacement     0.049346     0.001800     NO 
 RMS     Displacement     0.022988     0.001200     NO 
 Predicted change in Energy=-6.716170D-04
 Lowest energy point so far.  Saving SCF results.
 GradGradGradGradGradGradGradGradGradGradGradGradGradGradGradGradGradGrad

 Leave Link  103 at Tue Jan  7 23:02:03 2020, MaxMem=  4294967296 cpu:              81.6 elap:               6.1
 (Enter /home/cwagen/sw/g16/g16/l202.exe)
                          Input orientation:                          
 ---------------------------------------------------------------------
 Center     Atomic      Atomic             Coordinates (Angstroms)
 Number     Number       Type             X           Y           Z
 ---------------------------------------------------------------------
      1          6           0       -0.280619   -0.325055   -0.248636
      2          8           0       -0.228011   -0.640328   -1.447665
      3          6           0       -0.300610   -1.436855    0.798806
      4          1           0       -0.107850   -1.067155    1.809704
      5          1           0       -1.298139   -1.899222    0.768622
      6          1           0        0.446707   -2.187414    0.533043
      7         17           0       -1.111009    0.976160    0.172426
      8          6           0        1.658894    0.320918    0.231997
      9          7           0        2.803829    0.593206    0.253921
 ---------------------------------------------------------------------
                    Distance matrix (angstroms):
                    1          2          3          4          5
     1  C    0.000000
     2  O    1.240901   0.000000
     3  C    1.527624   2.384609   0.000000
     4  H    2.194841   3.287411   1.093503   0.000000
     5  H    2.132642   2.764401   1.099890   1.786890   0.000000
     6  H    2.146720   2.602292   1.091995   1.786723   1.784108
     7  Cl   1.600000   2.453042   2.621400   2.803951   2.942497
     8  C    2.100000   2.702900   2.692712   2.745412   3.736446
     9  N    3.257236   3.689045   3.749078   3.695285   4.827344
                    6          7          8          9
     6  H    0.000000
     7  Cl   3.544676   0.000000
     8  C    2.802099   2.846973   0.000000
     9  N    3.655924   3.934368   1.177071   0.000000
 Stoichiometry    C3H3ClNO(1-)
 Framework group  C1[X(C3H3ClNO)]
 Deg. of freedom    21
 Full point group                 C1      NOp   1
 RotChk:  IX=0 Diff= 2.87D-02
 Largest Abelian subgroup         C1      NOp   1
 Largest concise Abelian subgroup C1      NOp   1
                         Standard orientation:                         
 ---------------------------------------------------------------------
 Center     Atomic      Atomic             Coordinates (Angstroms)
 Number     Number       Type             X           Y           Z
 ---------------------------------------------------------------------
      1          6           0       -0.396264    0.350622    0.229517
      2          8           0       -0.437558    0.704951    1.418037
      3          6           0       -0.394444    1.427383   -0.854096
      4          1           0       -0.118763    1.035700   -1.837120
      5          1           0       -1.410866    1.844597   -0.904847
      6          1           0        0.300216    2.219038   -0.565685
      7         17           0       -1.139491   -0.999444   -0.200524
      8          6           0        1.597192   -0.221014   -0.101189
      9          7           0        2.751760   -0.441476   -0.039017
 ---------------------------------------------------------------------
 Rotational constants (GHZ):           3.9267460           2.1248607           1.8511670
 Leave Link  202 at Tue Jan  7 23:02:03 2020, MaxMem=  4294967296 cpu:               1.8 elap:               0.2
 (Enter /home/cwagen/sw/g16/g16/l301.exe)
 Standard basis: 6-31+G(d) (6D, 7F)
 Ernie: Thresh=  0.10000D-02 Tol=  0.10000D-05 Strict=F.
 There are   124 symmetry adapted cartesian basis functions of A   symmetry.
 There are   124 symmetry adapted basis functions of A   symmetry.
   124 basis functions,   228 primitive gaussians,   124 cartesian basis functions
    27 alpha electrons       27 beta electrons
       nuclear repulsion energy       260.6040340587 Hartrees.
 IExCor=  402 DFT=T Ex+Corr=B3LYP ExCW=0 ScaHFX=  0.200000
 ScaDFX=  0.800000  0.720000  1.000000  0.810000 ScalE2=  1.000000  1.000000
 IRadAn=      5 IRanWt=     -1 IRanGd=            0 ICorTp=0 IEmpDi=  4
 NAtoms=    9 NActive=    9 NUniq=    9 SFac= 1.00D+00 NAtFMM=   60 NAOKFM=F Big=F
 Integral buffers will be    131072 words long.
 Raffenetti 2 integral format.
 Two-electron integral symmetry is turned on.
 ------------------------------------------------------------------------------
 Polarizable Continuum Model (PCM)
 =================================
 Model                : PCM.
 Atomic radii         : SMD-Coulomb.
 Polarization charges : Total charges.
 Charge compensation  : None.
 Solution method      : On-the-fly selection.
 Cavity type          : VdW (van der Waals Surface) (Alpha=1.000).
 Cavity algorithm     : GePol (No added spheres)
                        Default sphere list used, NSphG=    9.
                        Lebedev-Laikov grids with approx.  5.0 points / Ang**2.
                        Smoothing algorithm: York/Karplus (Gamma=1.0000).
                        Polarization charges: spherical gaussians, with
                                              point-specific exponents (IZeta= 3).
                        Self-potential: point-specific (ISelfS= 7).
                        Self-field    : sphere-specific E.n sum rule (ISelfD= 2).
 1st derivatives      : Analytical E(r).r(x)/FMM algorithm (CHGder, D1EAlg=3).
                        Cavity 1st derivative terms included.
 Solvent              : TetraHydroFuran, Eps=   7.425700 Eps(inf)=   1.974025
 ------------------------------------------------------------------------------
 Spheres list:
 ISph  on   Nord     Re0    Alpha      Xe            Ye            Ze
    1   C      1    1.8500  1.000     -0.396264      0.350622      0.229517
    2   O      2    2.2940  1.000     -0.437558      0.704951      1.418037
    3   C      3    1.8500  1.000     -0.394444      1.427383     -0.854096
    4   H      4    1.2000  1.000     -0.118763      1.035700     -1.837120
    5   H      5    1.2000  1.000     -1.410866      1.844597     -0.904847
    6   H      6    1.2000  1.000      0.300216      2.219038     -0.565685
    7  Cl      7    2.3800  1.000     -1.139491     -0.999444     -0.200524
    8   C      8    1.8500  1.000      1.597192     -0.221014     -0.101189
    9   N      9    1.8900  1.000      2.751760     -0.441476     -0.039017
 ------------------------------------------------------------------------------
 GePol: Number of generator spheres                  =       9
 GePol: Total number of spheres                      =       9
 GePol: Number of exposed spheres                    =       9 (100.00%)
 GePol: Number of points                             =    1131
 GePol: Average weight of points                     =       0.13
 GePol: Minimum weight of points                     =   0.49D-08
 GePol: Maximum weight of points                     =    0.18138
 GePol: Number of points with low weight             =      34
 GePol: Fraction of low-weight points (<1% of avg)   =       3.01%
 GePol: Cavity surface area                          =    151.894 Ang**2
 GePol: Cavity volume                                =    139.817 Ang**3
 ------------------------------------------------------------------------------
 Atomic radii for non-electrostatic terms: SMD-CDS.
 ------------------------------------------------------------------------------
 PCM non-electrostatic energy =         0.0006055841 Hartrees.
 Nuclear repulsion after PCM non-electrostatic terms =      260.6046396428 Hartrees.
 Leave Link  301 at Tue Jan  7 23:02:03 2020, MaxMem=  4294967296 cpu:               2.7 elap:               0.2
 (Enter /home/cwagen/sw/g16/g16/l302.exe)
 NPDir=0 NMtPBC=     1 NCelOv=     1 NCel=       1 NClECP=     1 NCelD=      1
         NCelK=      1 NCelE2=     1 NClLst=     1 CellRange=     0.0.
 One-electron integrals computed using PRISM.
 One-electron integral symmetry used in STVInt
 NBasis=   124 RedAO= T EigKep=  3.88D-05  NBF=   124
 NBsUse=   124 1.00D-06 EigRej= -1.00D+00 NBFU=   124
 Precomputing XC quadrature grid using
 IXCGrd= 4 IRadAn=           5 IRanWt=          -1 IRanGd=           0 AccXCQ= 0.00D+00.
 Generated NRdTot=       0 NPtTot=           0 NUsed=           0 NTot=          32
 NSgBfM=   124   124   124   124   124 MxSgAt=     9 MxSgA2=     9.
 Leave Link  302 at Tue Jan  7 23:02:06 2020, MaxMem=  4294967296 cpu:              35.6 elap:               3.1
 (Enter /home/cwagen/sw/g16/g16/l303.exe)
 DipDrv:  MaxL=1.
[...]
      6        1          -0.000013193    0.000005973    0.000007397
      7       17          -0.068506663    0.104652076    0.033707784
      8        6           0.012317727    0.004147846    0.003165715
      9        7           0.000017185   -0.000033165    0.000009160
 -------------------------------------------------------------------
 Cartesian Forces:  Max     0.108788243 RMS     0.035126974
 Leave Link  716 at Tue Jan  7 23:08:02 2020, MaxMem=  4294967296 cpu:               1.4 elap:               0.2
 (Enter /home/cwagen/sw/g16/g16/l103.exe)

 GradGradGradGradGradGradGradGradGradGradGradGradGradGradGradGradGradGrad
 Berny optimization.
 Using GEDIIS/GDIIS optimizer.
 FormGI is forming the generalized inverse of G from B-inverse, IUseBI=4.
 Internal  Forces:  Max     0.129546396 RMS     0.023390866
 Search for a local minimum.
 Step number   8 out of a maximum of   41
 All quantities printed in internal units (Hartrees-Bohrs-Radians)
 RMS Force = .92738D-05 SwitMx=.10000D-02 MixMth= 2
 Mixed Optimization -- En-DIIS/RFO-DIIS
 Swapping is turned off.
 Update second derivatives using D2CorX and points    1    2    3    4    5
                                                      6    7    8
 DE= -9.84D-07 DEPred=-9.04D-07 R= 1.09D+00
 Trust test= 1.09D+00 RLast= 4.96D-03 DXMaxT set to 5.05D-01
 ITU=  0  1  1  1  1  1  1  0
     Eigenvalues ---    0.00377   0.01096   0.04458   0.05410   0.05938
     Eigenvalues ---    0.08196   0.10238   0.15303   0.16397   0.16683
     Eigenvalues ---    0.23046   0.25448   0.26298   0.32701   0.33992
     Eigenvalues ---    0.34148   0.34838   0.62489   1.213971000.00000
     Eigenvalues --- 1000.000001000.000001000.000001000.000001000.00000
     Eigenvalues --- 1000.000001000.000001000.000001000.000001000.00000
     Eigenvalues --- 1000.00000
 En-DIIS/RFO-DIIS/Sim-DIIS IScMMF=       -3 using points:     8    7    6    5    4
 RFO step:  Lambda=-1.69968379D-05.
 NNeg= 0 NGDIIS= 5 SimSw=  2.50D-01 Rises=F DC= -9.84D-07 SmlDif=  1.00D-05
 NRisDI= 0 DoIntr=F SqrtH=F CThrHd= 10.0 CDAdj=  3.0
 RMS Error=  0.1934715823D-03 NUsed= 5 OKEnD=F EnDIS=F
 InvSVX:  RCond= 4.75D-08 Info=           0 Equed=N FErr=  3.17D-13 BErr=  5.78D-17
 DIIS inversion failure, remove point   5.
 InvSVX:  RCond= 1.64D-06 Info=           0 Equed=N FErr=  2.37D-15 BErr=  3.87D-17
 RFO-DIIS uses    4 points instead of    5
 DidBck=F Rises=F RFO-DIIS coefs:    1.09715   -0.07027   -0.02041   -0.00647    0.00000
 Iteration  1 RMS(Cart)=  0.00026772 RMS(Int)=  0.00000014
 Iteration  2 RMS(Cart)=  0.00000015 RMS(Int)=  0.00000003
 Iteration  1 RMS(Cart)=  0.00000000 RMS(Int)=  0.00000000
 ITry= 1 IFail=0 DXMaxC= 7.39D-04 DCOld= 1.00D+10 DXMaxT= 5.05D-01 DXLimC= 3.00D+00 Rises=F
 Variable       Old X    -DE/DX   Delta X   Delta X   Delta X     New X
                                 (Linear)    (Quad)   (Total)
    R1        2.34951   0.00001  -0.00001   0.00003   0.00002   2.34953
    R2        2.89749  -0.00001  -0.00017   0.00008  -0.00009   2.89740
    R3        3.02356   0.12955   0.00000   0.00000   0.00000   3.02356
    R4        3.96842   0.01337   0.00000   0.00000   0.00000   3.96842
    R5        2.06596   0.00001   0.00002   0.00001   0.00003   2.06599
    R6        2.07924   0.00000  -0.00003   0.00002  -0.00001   2.07922
    R7        2.06491   0.00000  -0.00004   0.00002  -0.00002   2.06489
    R8        2.22382   0.00000   0.00002  -0.00001   0.00001   2.22383
    A1        2.07514  -0.00002  -0.00008  -0.00001  -0.00009   2.07505
    A2        2.07182   0.00000   0.00001  -0.00004  -0.00003   2.07179
    A3        1.82286   0.00001  -0.00017   0.00013  -0.00004   1.82281
    A4        1.98372   0.00001   0.00013  -0.00006   0.00007   1.98379
    A5        1.65641   0.00000   0.00009  -0.00001   0.00009   1.65650
    A6        1.74746   0.00000  -0.00001   0.00007   0.00006   1.74752
    A7        1.96615   0.00002   0.00006   0.00007   0.00013   1.96628
    A8        1.87735   0.00000  -0.00007   0.00007   0.00000   1.87735
    A9        1.90547  -0.00001  -0.00011   0.00004  -0.00008   1.90539
   A10        1.90093  -0.00001   0.00008  -0.00011  -0.00004   1.90089
   A11        1.91504  -0.00001  -0.00005  -0.00002  -0.00007   1.91497
   A12        1.89747   0.00000   0.00010  -0.00005   0.00005   1.89752
   A13        3.11038  -0.00003  -0.00017  -0.00049  -0.00066   3.10971
   A14        2.76379  -0.00001  -0.00073  -0.00003  -0.00075   2.76304
    D1        2.89723   0.00000  -0.00019   0.00016  -0.00004   2.89719
    D2       -1.29093   0.00001  -0.00011   0.00010  -0.00001  -1.29094
    D3        0.76511   0.00001  -0.00009   0.00011   0.00001   0.76513
    D4       -0.81640  -0.00001  -0.00008  -0.00005  -0.00014  -0.81654
    D5        1.27862  -0.00001   0.00000  -0.00010  -0.00010   1.27851
    D6       -2.94852   0.00000   0.00002  -0.00010  -0.00008  -2.94861
    D7        0.98665   0.00000  -0.00003   0.00001  -0.00002   0.98663
    D8        3.08167   0.00000   0.00006  -0.00004   0.00002   3.08169
    D9       -1.14547   0.00000   0.00007  -0.00003   0.00004  -1.14543
         Item               Value     Threshold  Converged?
 Maximum Force            0.000028     0.000450     YES
 RMS     Force            0.000009     0.000300     YES
 Maximum Displacement     0.000739     0.001800     YES
 RMS     Displacement     0.000268     0.001200     YES
 Predicted change in Energy=-1.785471D-08
 Optimization completed.
    -- Stationary point found.
                           ----------------------------
                           !   Optimized Parameters   !
                           ! (Angstroms and Degrees)  !
 --------------------------                            --------------------------
 ! Name  Definition              Value          Derivative Info.                !
 --------------------------------------------------------------------------------
 ! R1    R(1,2)                  1.2433         -DE/DX =    0.0                 !
 ! R2    R(1,3)                  1.5333         -DE/DX =    0.0                 !
 ! R3    R(1,7)                  1.6            -DE/DX =    0.1295              !
 ! R4    R(1,8)                  2.1            -DE/DX =    0.0134              !
 ! R5    R(3,4)                  1.0933         -DE/DX =    0.0                 !
 ! R6    R(3,5)                  1.1003         -DE/DX =    0.0                 !
 ! R7    R(3,6)                  1.0927         -DE/DX =    0.0                 !
 ! R8    R(8,9)                  1.1768         -DE/DX =    0.0                 !
 ! A1    A(2,1,3)              118.8969         -DE/DX =    0.0                 !
 ! A2    A(2,1,7)              118.7065         -DE/DX =    0.0                 !
 ! A3    A(2,1,8)              104.4419         -DE/DX =    0.0                 !
 ! A4    A(3,1,7)              113.6588         -DE/DX =    0.0                 !
 ! A5    A(3,1,8)               94.9053         -DE/DX =    0.0                 !
 ! A6    A(7,1,8)              100.1218         -DE/DX =    0.0                 !
 ! A7    A(1,3,4)              112.6523         -DE/DX =    0.0                 !
 ! A8    A(1,3,5)              107.5642         -DE/DX =    0.0                 !
 ! A9    A(1,3,6)              109.1753         -DE/DX =    0.0                 !
 ! A10   A(4,3,5)              108.9153         -DE/DX =    0.0                 !
 ! A11   A(4,3,6)              109.7238         -DE/DX =    0.0                 !
 ! A12   A(5,3,6)              108.7168         -DE/DX =    0.0                 !
 ! A13   L(1,8,9,6,-1)         178.2115         -DE/DX =    0.0                 !
 ! A14   L(1,8,9,6,-2)         158.3535         -DE/DX =    0.0                 !
 ! D1    D(2,1,3,4)            165.9991         -DE/DX =    0.0                 !
 ! D2    D(2,1,3,5)            -73.9651         -DE/DX =    0.0                 !
 ! D3    D(2,1,3,6)             43.8377         -DE/DX =    0.0                 !
 ! D4    D(7,1,3,4)            -46.7766         -DE/DX =    0.0                 !
 ! D5    D(7,1,3,5)             73.2593         -DE/DX =    0.0                 !
 ! D6    D(7,1,3,6)           -168.938          -DE/DX =    0.0                 !
 ! D7    D(8,1,3,4)             56.5307         -DE/DX =    0.0                 !
 ! D8    D(8,1,3,5)            176.5666         -DE/DX =    0.0                 !
 ! D9    D(8,1,3,6)            -65.6307         -DE/DX =    0.0                 !
 --------------------------------------------------------------------------------
 Lowest energy point so far.  Saving SCF results.
 Largest change from initial coordinates is atom    5       0.137 Angstoms.
 GradGradGradGradGradGradGradGradGradGradGradGradGradGradGradGradGradGrad

 Leave Link  103 at Tue Jan  7 23:08:07 2020, MaxMem=  4294967296 cpu:              60.7 elap:               5.5
 (Enter /home/cwagen/sw/g16/g16/l202.exe)
                          Input orientation:                          
 ---------------------------------------------------------------------
 Center     Atomic      Atomic             Coordinates (Angstroms)
 Number     Number       Type             X           Y           Z
 ---------------------------------------------------------------------
      1          6           0       -0.272770   -0.320772   -0.242918
      2          8           0       -0.199465   -0.624186   -1.446404
      3          6           0       -0.306074   -1.441414    0.803036
      4          1           0       -0.125746   -1.076003    1.817515
      5          1           0       -1.303640   -1.903856    0.762550
      6          1           0        0.440908   -2.195887    0.544606
      7         17           0       -1.118991    0.971662    0.173645
      8          6           0        1.661721    0.329416    0.252058
      9          7           0        2.807247    0.595295    0.208133
 ---------------------------------------------------------------------
                    Distance matrix (angstroms):
                    1          2          3          4          5
     1  C    0.000000
     2  O    1.243307   0.000000
     3  C    1.533287   2.395664   0.000000
     4  H    2.199403   3.295867   1.093257   0.000000
     5  H    2.140050   2.781409   1.100285   1.784859   0.000000
     6  H    2.155362   2.616188   1.092702   1.787606   1.782198
     7  Cl   1.600000   2.452920   2.622957   2.807450   2.941005
     8  C    2.100000   2.694094   2.704003   2.760597   3.747195
     9  N    3.244862   3.642108   3.767607   3.739759   4.842780
                    6          7          8          9
     6  H    0.000000
     7  Cl   3.550248   0.000000
     8  C    2.820128   2.854993   0.000000
     9  N    3.674706   3.944386   1.176797   0.000000
 Stoichiometry    C3H3ClNO(1-)
 Framework group  C1[X(C3H3ClNO)]
 Deg. of freedom    21
 Full point group                 C1      NOp   1
 RotChk:  IX=0 Diff= 1.52D-15
 Largest Abelian subgroup         C1      NOp   1
 Largest concise Abelian subgroup C1      NOp   1
                         Standard orientation:                         
 ---------------------------------------------------------------------
 Center     Atomic      Atomic             Coordinates (Angstroms)
 Number     Number       Type             X           Y           Z
 ---------------------------------------------------------------------
      1          6           0       -0.385675    0.344029    0.236094
      2          8           0       -0.385409    0.663039    1.437778
      3          6           0       -0.414057    1.451070   -0.824387
      4          1           0       -0.168045    1.082989   -1.823990
      5          1           0       -1.431047    1.870763   -0.839123
      6          1           0        0.286551    2.239541   -0.538975
      7         17           0       -1.154686   -0.987806   -0.205310
      8          6           0        1.596850   -0.227914   -0.154388
      9          7           0        2.748967   -0.444003   -0.050539
 ---------------------------------------------------------------------
 Rotational constants (GHZ):           3.9335640           2.1171622           1.8521998
 Leave Link  202 at Tue Jan  7 23:08:08 2020, MaxMem=  4294967296 cpu:               2.0 elap:               0.2
 (Enter /home/cwagen/sw/g16/g16/l601.exe)
 Copying SCF densities to generalized density rwf, IOpCl= 0 IROHF=0.

 **********************************************************************

            Population analysis using the SCF density.

 **********************************************************************

 Orbital symmetries:
       Occupied  (A) (A) (A) (A) (A) (A) (A) (A) (A) (A) (A) (A)
                 (A) (A) (A) (A) (A) (A) (A) (A) (A) (A) (A) (A)
                 (A) (A) (A)
       Virtual   (A) (A) (A) (A) (A) (A) (A) (A) (A) (A) (A) (A)
                 (A) (A) (A) (A) (A) (A) (A) (A) (A) (A) (A) (A)
                 (A) (A) (A) (A) (A) (A) (A) (A) (A) (A) (A) (A)
                 (A) (A) (A) (A) (A) (A) (A) (A) (A) (A) (A) (A)
                 (A) (A) (A) (A) (A) (A) (A) (A) (A) (A) (A) (A)
                 (A) (A) (A) (A) (A) (A) (A) (A) (A) (A) (A) (A)
                 (A) (A) (A) (A) (A) (A) (A) (A) (A) (A) (A) (A)
                 (A) (A) (A) (A) (A) (A) (A) (A) (A) (A) (A) (A)
                 (A)
 The electronic state is 1-A.
 Alpha  occ. eigenvalues -- -101.52693 -19.09123 -14.27451 -10.29260 -10.16245
 Alpha  occ. eigenvalues --  -10.14359  -9.44785  -7.21082  -7.20225  -7.20150
 Alpha  occ. eigenvalues --   -1.00811  -0.86179  -0.83244  -0.70444  -0.53446
 Alpha  occ. eigenvalues --   -0.45717  -0.43998  -0.41768  -0.36974  -0.36526
 Alpha  occ. eigenvalues --   -0.34390  -0.29624  -0.29326  -0.27865  -0.26972
 Alpha  occ. eigenvalues --   -0.23324  -0.22230
 Alpha virt. eigenvalues --    0.00621   0.03210   0.05062   0.06084   0.06440
 Alpha virt. eigenvalues --    0.07673   0.08385   0.08925   0.09571   0.09792
 Alpha virt. eigenvalues --    0.10422   0.11041   0.12471   0.13878   0.13984
 Alpha virt. eigenvalues --    0.14905   0.16493   0.17452   0.19981   0.22354
 Alpha virt. eigenvalues --    0.24606   0.24901   0.25167   0.26251   0.27022
 Alpha virt. eigenvalues --    0.28730   0.29148   0.31239   0.34362   0.35961
 Alpha virt. eigenvalues --    0.36888   0.39774   0.44268   0.56356   0.61535
 Alpha virt. eigenvalues --    0.63725   0.64815   0.66349   0.67866   0.71362
 Alpha virt. eigenvalues --    0.73479   0.75959   0.78380   0.80475   0.82290
 Alpha virt. eigenvalues --    0.83200   0.87364   0.90838   0.93866   0.94623
 Alpha virt. eigenvalues --    1.01423   1.02682   1.04119   1.05549   1.08885
 Alpha virt. eigenvalues --    1.12599   1.16836   1.19370   1.21097   1.31901
 Alpha virt. eigenvalues --    1.34234   1.36625   1.38832   1.45334   1.52836
 Alpha virt. eigenvalues --    1.56346   1.60287   1.61651   1.62337   1.67966
 Alpha virt. eigenvalues --    1.72476   1.81169   1.86312   1.87433   1.95730
 Alpha virt. eigenvalues --    1.99018   2.03162   2.06372   2.08174   2.26676
 Alpha virt. eigenvalues --    2.27589   2.31675   2.38366   2.56225   2.59733
 Alpha virt. eigenvalues --    2.65132   2.66097   2.71499   2.85219   3.07155
 Alpha virt. eigenvalues --    3.10866   4.06061   4.23949   4.31061   4.38417
 Alpha virt. eigenvalues --    4.40479   4.56316
          Condensed to atoms (all electrons):
               1          2          3          4          5          6
     1  C    6.418847   0.536762  -0.106114  -0.086118   0.007835  -0.106608
     2  O    0.536762   8.395647  -0.147942   0.009421  -0.007654  -0.000393
     3  C   -0.106114  -0.147942   6.165442   0.380974   0.321734   0.427301
     4  H   -0.086118   0.009421   0.380974   0.493993  -0.028980  -0.025689
     5  H    0.007835  -0.007654   0.321734  -0.028980   0.500503  -0.024430
     6  H   -0.106608  -0.000393   0.427301  -0.025689  -0.024430   0.476439
     7  Cl  -0.485022  -0.169091  -0.057268   0.022409  -0.008976   0.017972
     8  C    0.009681  -0.181271  -0.512429   0.007314   0.019005   0.000193
     9  N   -0.023937  -0.004229   0.006742  -0.000850  -0.000077  -0.000390
               7          8          9
     1  C   -0.485022   0.009681  -0.023937
     2  O   -0.169091  -0.181271  -0.004229
     3  C   -0.057268  -0.512429   0.006742
     4  H    0.022409   0.007314  -0.000850
     5  H   -0.008976   0.019005  -0.000077
     6  H    0.017972   0.000193  -0.000390
     7  Cl  17.556284  -0.044722  -0.002875
     8  C   -0.044722   6.145469   0.642411
     9  N   -0.002875   0.642411   7.077997
 Mulliken charges:
               1
     1  C   -0.165326
     2  O   -0.431249
     3  C   -0.478440
     4  H    0.227525
     5  H    0.221041
     6  H    0.235606
     7  Cl   0.171287
     8  C   -0.085651
     9  N   -0.694792
 Sum of Mulliken charges =  -1.00000
 Mulliken charges with hydrogens summed into heavy atoms:
               1
     1  C   -0.165326
     2  O   -0.431249
     3  C    0.205732
     7  Cl   0.171287
     8  C   -0.085651
     9  N   -0.694792
 Electronic spatial extent (au):  <R**2>=            721.6590
 Charge=             -1.0000 electrons
 Dipole moment (field-independent basis, Debye):
    X=             -7.2690    Y=              1.3964    Z=             -3.3426  Tot=              8.1216
 Quadrupole moment (field-independent basis, Debye-Ang):
   XX=            -70.3677   YY=            -46.3059   ZZ=            -51.3267
   XY=              3.6882   XZ=              2.1721   YZ=             -3.1903
 Traceless Quadrupole moment (field-independent basis, Debye-Ang):
   XX=            -14.3676   YY=              9.6942   ZZ=              4.6734
   XY=              3.6882   XZ=              2.1721   YZ=             -3.1903
 Octapole moment (field-independent basis, Debye-Ang**2):
  XXX=            -91.1723  YYY=             -0.2941  ZZZ=             -7.9105  XYY=             -8.6456
  XXY=             12.6783  XXZ=              1.5785  XZZ=             -3.9363  YZZ=             -4.1926
  YYZ=             -1.9685  XYZ=              0.6372
 Hexadecapole moment (field-independent basis, Debye-Ang**3):
 XXXX=           -816.5883 YYYY=           -268.2281 ZZZZ=           -193.3096 XXXY=             43.6369
 XXXZ=              6.0745 YYYX=             16.0282 YYYZ=              1.4085 ZZZX=              5.3608
 ZZZY=             -3.8102 XXYY=           -148.4650 XXZZ=           -133.6718 YYZZ=            -80.6793
 XXYZ=              0.0650 YYXZ=              2.8436 ZZXY=              5.0518
 N-N= 2.603919353955D+02 E-N=-2.199264768370D+03  KE= 7.030129275845D+02
 No NMR shielding tensors so no spin-rotation constants.
 Leave Link  601 at Tue Jan  7 23:08:09 2020, MaxMem=  4294967296 cpu:              20.8 elap:               1.9
 (Enter /home/cwagen/sw/g16/g16/l9999.exe)
 1\1\GINC-NODE067\FOpt\RB3LYP\6-31+G(d)\C3H3Cl1N1O1(1-)\CWAGEN\07-Jan-2
 020\0\\#p opt=modredundant b3lyp/6-31+g(d) scrf=(smd, solvent=tetrahyd
 rofuran)\\title\\-1,1\C,-0.2727698543,-0.3207720657,-0.2429183399\O,-0
 .1994652169,-0.6241863035,-1.4464041445\C,-0.3060741796,-1.4414144868,
 0.8030355577\H,-0.125745947,-1.0760031012,1.817514679\H,-1.3036395429,
 -1.9038558216,0.7625503237\H,0.440908471,-2.1958866933,0.5446057594\Cl
 ,-1.1189905713,0.9716620346,0.1736445049\C,1.6617206523,0.3294161465,0
 .2520582004\N,2.8072471888,0.5952948812,0.2081331493\\Version=AS64L-G1
 6RevA.03\State=1-A\HF=-706.3766408\RMSD=7.901e-09\RMSF=3.513e-02\Dipol
 e=-2.8951523,-0.686395,1.1648056\Quadrupole=-10.2309677,7.005349,3.225
 6187,-3.3455202,-2.2325071,-2.5615607\PG=C01 [X(C3H3Cl1N1O1)]\\@


 I DON'T EXACTLY UNDERSTAND WHAT YOU ARE SAYING,
 BUT YOU ARE ABSOLUTELY RIGHT.
     M.S.GORDON, IN A NDSU FACULTY MEETING
 Job cpu time:       0 days  1 hours 40 minutes 52.8 seconds.
 Elapsed time:       0 days  0 hours  8 minutes 12.9 seconds.
 File lengths (MBytes):  RWF=     33 Int=      0 D2E=      0 Chk=      3 Scr=      1
 Normal termination of Gaussian 16 at Tue Jan  7 23:08:10 2020.
