 Entering Gaussian System, Link 0=g16
 Input=scan_260_180.gjf
 Output=scan_260_180.out
 Initial command:
 /home/cwagen/sw/g16/g16/l1.exe "/scratch/users/cwagen/cwagen_scan_260_180/Gau-22008.inp" -scrdir="/scratch/users/cwagen/cwagen_scan_260_180/"
 Entering Link 1 = /home/cwagen/sw/g16/g16/l1.exe PID=     22009.
  
 Copyright (c) 1988,1990,1992,1993,1995,1998,2003,2009,2016,
            Gaussian, Inc.  All Rights Reserved.
  
 This is part of the Gaussian(R) 16 program.  It is based on
 the Gaussian(R) 09 system (copyright 2009, Gaussian, Inc.),
 the Gaussian(R) 03 system (copyright 2003, Gaussian, Inc.),
 the Gaussian(R) 98 system (copyright 1998, Gaussian, Inc.),
 the Gaussian(R) 94 system (copyright 1995, Gaussian, Inc.),
 the Gaussian 92(TM) system (copyright 1992, Gaussian, Inc.),
 the Gaussian 90(TM) system (copyright 1990, Gaussian, Inc.),
 the Gaussian 88(TM) system (copyright 1988, Gaussian, Inc.),
 the Gaussian 86(TM) system (copyright 1986, Carnegie Mellon
 University), and the Gaussian 82(TM) system (copyright 1983,
 Carnegie Mellon University). Gaussian is a federally registered
 trademark of Gaussian, Inc.
  
 This software contains proprietary and confidential information,
 including trade secrets, belonging to Gaussian, Inc.
  
 This software is provided under written license and may be
 used, copied, transmitted, or stored only in accord with that
 written license.
  
 The following legend is applicable only to US Government
 contracts under FAR:
  
                    RESTRICTED RIGHTS LEGEND
  
 Use, reproduction and disclosure by the US Government is
 subject to restrictions as set forth in subparagraphs (a)
 and (c) of the Commercial Computer Software - Restricted
 Rights clause in FAR 52.227-19.
  
 Gaussian, Inc.
 340 Quinnipiac St., Bldg. 40, Wallingford CT 06492
  
  
 ---------------------------------------------------------------
 Warning -- This program may not be used in any manner that
 competes with the business of Gaussian, Inc. or will provide
 assistance to any competitor of Gaussian, Inc.  The licensee
 of this program is prohibited from giving any competitor of
 Gaussian, Inc. access to this program.  By using this program,
 the user acknowledges that Gaussian, Inc. is engaged in the
 business of creating and licensing software in the field of
 computational chemistry and represents and warrants to the
 licensee that it is not a competitor of Gaussian, Inc. and that
 it will not use this program in any manner prohibited above.
 ---------------------------------------------------------------
  

 Cite this work as:
 Gaussian 16, Revision A.03,
 M. J. Frisch, G. W. Trucks, H. B. Schlegel, G. E. Scuseria, 
 M. A. Robb, J. R. Cheeseman, G. Scalmani, V. Barone, 
 G. A. Petersson, H. Nakatsuji, X. Li, M. Caricato, A. V. Marenich, 
 J. Bloino, B. G. Janesko, R. Gomperts, B. Mennucci, H. P. Hratchian, 
 J. V. Ortiz, A. F. Izmaylov, J. L. Sonnenberg, D. Williams-Young, 
 F. Ding, F. Lipparini, F. Egidi, J. Goings, B. Peng, A. Petrone, 
 T. Henderson, D. Ranasinghe, V. G. Zakrzewski, J. Gao, N. Rega, 
 G. Zheng, W. Liang, M. Hada, M. Ehara, K. Toyota, R. Fukuda, 
 J. Hasegawa, M. Ishida, T. Nakajima, Y. Honda, O. Kitao, H. Nakai, 
 T. Vreven, K. Throssell, J. A. Montgomery, Jr., J. E. Peralta, 
 F. Ogliaro, M. J. Bearpark, J. J. Heyd, E. N. Brothers, K. N. Kudin, 
 V. N. Staroverov, T. A. Keith, R. Kobayashi, J. Normand, 
 K. Raghavachari, A. P. Rendell, J. C. Burant, S. S. Iyengar, 
 J. Tomasi, M. Cossi, J. M. Millam, M. Klene, C. Adamo, R. Cammi, 
 J. W. Ochterski, R. L. Martin, K. Morokuma, O. Farkas, 
 J. B. Foresman, and D. J. Fox, Gaussian, Inc., Wallingford CT, 2016.
 
 ******************************************
 Gaussian 16:  AS64L-G16RevA.03 25-Dec-2016
                 8-Jan-2020 
 ******************************************
 %nprocshared=16
 Will use up to   16 processors via shared memory.
 %mem=32GB
 ----------------------------------------------------------------------
 #p opt=modredundant b3lyp/6-31+g(d) scrf=(smd, solvent=tetrahydrofuran
 )
 ----------------------------------------------------------------------
 1/18=120,19=15,26=3,38=1/1,3;
 2/9=110,12=2,17=6,18=5,40=1/2;
 3/5=1,6=6,7=11,11=2,25=1,30=1,70=32201,71=1,72=20,74=-5/1,2,3;
 4//1;
 5/5=2,38=5,53=20/2;
 6/7=2,8=2,9=2,10=2,28=1/1;
 7//1,2,3,16;
 1/18=20,19=15,26=3/3(2);
 2/9=110/2;
 99//99;
 2/9=110/2;
 3/5=1,6=6,7=11,11=2,25=1,30=1,70=32205,71=1,72=20,74=-5/1,2,3;
 4/5=5,16=3,69=1/1;
 5/5=2,38=5,53=20/2;
 7//1,2,3,16;
 1/18=20,19=15,26=3/3(-5);
 2/9=110/2;
 6/7=2,8=2,9=2,10=2,19=2,28=1/1;
 99/9=1/99;
 Leave Link    1 at Wed Jan  8 01:26:50 2020, MaxMem=  4294967296 cpu:               1.5 elap:               0.1
 (Enter /home/cwagen/sw/g16/g16/l101.exe)
 -----
 title
 -----
 Symbolic Z-matrix:
 Charge = -1 Multiplicity = 1
 6                    -0.19426  -0.292    -0.21291 
 8                    -0.25532  -0.66526  -1.45426 
 6                    -0.33095  -1.45422   0.81632 
 1                    -0.18039  -1.13044   1.85373 
 1                    -1.34067  -1.87301   0.71427 
 1                     0.39707  -2.23395   0.57058 
 17                   -1.75098   1.68284   0.44789 
 6                     1.47456   0.29238   0.12406 
 7                     2.60913   0.57268   0.15436 
 
 Add virtual bond connecting atoms Cl7        and C1         Dist= 4.91D+00.
 The following ModRedundant input section has been read:
 B       1       7 F                                                           
 B       1       8 F                                                           
 
 ITRead=  0  0  0  0  0  0  0  0  0
 MicOpt= -1 -1 -1 -1 -1 -1 -1 -1 -1
 NAtoms=      9 NQM=        9 NQMF=       0 NMMI=      0 NMMIF=      0
                NMic=       0 NMicF=      0.
                    Isotopes and Nuclear Properties:
 (Nuclear quadrupole moments (NQMom) in fm**2, nuclear magnetic moments (NMagM)
  in nuclear magnetons)

  Atom         1           2           3           4           5           6           7           8           9
 IAtWgt=          12          16          12           1           1           1          35          12          14
 AtmWgt=  12.0000000  15.9949146  12.0000000   1.0078250   1.0078250   1.0078250  34.9688527  12.0000000  14.0030740
 NucSpn=           0           0           0           1           1           1           3           0           2
 AtZEff=   0.0000000   0.0000000   0.0000000   0.0000000   0.0000000   0.0000000   0.0000000   0.0000000   0.0000000
 NQMom=    0.0000000   0.0000000   0.0000000   0.0000000   0.0000000   0.0000000  -8.1650000   0.0000000   2.0440000
 NMagM=    0.0000000   0.0000000   0.0000000   2.7928460   2.7928460   2.7928460   0.8218740   0.0000000   0.4037610
 AtZNuc=   6.0000000   8.0000000   6.0000000   1.0000000   1.0000000   1.0000000  17.0000000   6.0000000   7.0000000
 Leave Link  101 at Wed Jan  8 01:26:50 2020, MaxMem=  4294967296 cpu:               6.7 elap:               0.6
 (Enter /home/cwagen/sw/g16/g16/l103.exe)

 GradGradGradGradGradGradGradGradGradGradGradGradGradGradGradGradGradGrad
 Berny optimization.
 Initialization pass.
                           ----------------------------
                           !    Initial Parameters    !
                           ! (Angstroms and Degrees)  !
 --------------------------                            --------------------------
 ! Name  Definition              Value          Derivative Info.                !
 --------------------------------------------------------------------------------
 ! R1    R(1,2)                  1.2977         estimate D2E/DX2                !
 ! R2    R(1,3)                  1.5584         estimate D2E/DX2                !
 ! R3    R(1,7)                  2.6            Frozen                          !
 ! R4    R(1,8)                  1.8            Frozen                          !
 ! R5    R(3,4)                  1.0971         estimate D2E/DX2                !
 ! R6    R(3,5)                  1.0979         estimate D2E/DX2                !
 ! R7    R(3,6)                  1.0947         estimate D2E/DX2                !
 ! R8    R(8,9)                  1.1691         estimate D2E/DX2                !
 ! A1    A(2,1,3)              114.4006         estimate D2E/DX2                !
 ! A2    A(2,1,7)              115.6846         estimate D2E/DX2                !
 ! A3    A(2,1,8)              108.426          estimate D2E/DX2                !
 ! A4    A(3,1,7)              110.248          estimate D2E/DX2                !
 ! A5    A(3,1,8)              101.5248         estimate D2E/DX2                !
 ! A6    A(7,1,8)              105.1256         estimate D2E/DX2                !
 ! A7    A(1,3,4)              113.1005         estimate D2E/DX2                !
 ! A8    A(1,3,5)              107.683          estimate D2E/DX2                !
 ! A9    A(1,3,6)              108.9421         estimate D2E/DX2                !
 ! A10   A(4,3,5)              109.0662         estimate D2E/DX2                !
 ! A11   A(4,3,6)              109.3417         estimate D2E/DX2                !
 ! A12   A(5,3,6)              108.6067         estimate D2E/DX2                !
 ! A13   L(1,8,9,6,-1)         177.5203         estimate D2E/DX2                !
 ! A14   L(1,8,9,6,-2)         166.8283         estimate D2E/DX2                !
 ! D1    D(2,1,3,4)            174.4714         estimate D2E/DX2                !
 ! D2    D(2,1,3,5)            -64.9488         estimate D2E/DX2                !
 ! D3    D(2,1,3,6)             52.6633         estimate D2E/DX2                !
 ! D4    D(7,1,3,4)            -53.1046         estimate D2E/DX2                !
 ! D5    D(7,1,3,5)             67.4752         estimate D2E/DX2                !
 ! D6    D(7,1,3,6)           -174.9127         estimate D2E/DX2                !
 ! D7    D(8,1,3,4)             57.938          estimate D2E/DX2                !
 ! D8    D(8,1,3,5)            178.5177         estimate D2E/DX2                !
 ! D9    D(8,1,3,6)            -63.8702         estimate D2E/DX2                !
 --------------------------------------------------------------------------------
 Trust Radius=3.00D-01 FncErr=1.00D-07 GrdErr=1.00D-06 EigMax=2.50D+02 EigMin=1.00D-04
 Number of steps in this run=     41 maximum allowed number of steps=    100.
 GradGradGradGradGradGradGradGradGradGradGradGradGradGradGradGradGradGrad

 Leave Link  103 at Wed Jan  8 01:26:50 2020, MaxMem=  4294967296 cpu:               0.7 elap:               0.1
 (Enter /home/cwagen/sw/g16/g16/l202.exe)
                          Input orientation:                          
 ---------------------------------------------------------------------
 Center     Atomic      Atomic             Coordinates (Angstroms)
 Number     Number       Type             X           Y           Z
 ---------------------------------------------------------------------
      1          6           0       -0.194263   -0.291999   -0.212908
      2          8           0       -0.255321   -0.665256   -1.454255
      3          6           0       -0.330945   -1.454221    0.816316
      4          1           0       -0.180394   -1.130438    1.853734
      5          1           0       -1.340665   -1.873010    0.714272
      6          1           0        0.397068   -2.233949    0.570583
      7         17           0       -1.750985    1.682835    0.447885
      8          6           0        1.474556    0.292377    0.124059
      9          7           0        2.609127    0.572675    0.154362
 ---------------------------------------------------------------------
                    Distance matrix (angstroms):
                    1          2          3          4          5
     1  C    0.000000
     2  O    1.297687   0.000000
     3  C    1.558443   2.404928   0.000000
     4  H    2.230287   3.341377   1.097150   0.000000
     5  H    2.161827   2.709087   1.097876   1.787740   0.000000
     6  H    2.175937   2.643176   1.094698   1.788205   1.780629
     7  Cl   2.600000   3.371747   3.463145   3.515348   3.589340
     8  C    1.800000   2.529943   2.605697   2.784787   3.600378
     9  N    2.956610   3.510724   3.631875   3.683733   4.679288
                    6          7          8          9
     6  H    0.000000
     7  Cl   4.468824   0.000000
     8  C    2.782569   3.527372   0.000000
     9  N    3.597719   4.508790   1.169075   0.000000
 Stoichiometry    C3H3ClNO(1-)
 Framework group  C1[X(C3H3ClNO)]
 Deg. of freedom    21
 Full point group                 C1      NOp   1
 Largest Abelian subgroup         C1      NOp   1
 Largest concise Abelian subgroup C1      NOp   1
                         Standard orientation:                         
 ---------------------------------------------------------------------
 Center     Atomic      Atomic             Coordinates (Angstroms)
 Number     Number       Type             X           Y           Z
 ---------------------------------------------------------------------
      1          6           0        0.261048    0.523211    0.208883
      2          8           0        0.515466    1.030517    1.375889
      3          6           0        0.562388    1.476075   -0.986939
      4          1           0        0.431993    0.994839   -1.964255
      5          1           0       -0.123205    2.330420   -0.913544
      6          1           0        1.589602    1.843910   -0.898095
      7         17           0       -2.091863   -0.548522   -0.065344
      8          6           0        1.425269   -0.815380   -0.095687
      9          7           0        2.292474   -1.598839   -0.125415
 ---------------------------------------------------------------------
 Rotational constants (GHZ):           3.1859460           1.6286689           1.3536391
 Leave Link  202 at Wed Jan  8 01:26:50 2020, MaxMem=  4294967296 cpu:               1.1 elap:               0.1
 (Enter /home/cwagen/sw/g16/g16/l301.exe)
 Standard basis: 6-31+G(d) (6D, 7F)
 Ernie: Thresh=  0.10000D-02 Tol=  0.10000D-05 Strict=F.
 There are   124 symmetry adapted cartesian basis functions of A   symmetry.
 There are   124 symmetry adapted basis functions of A   symmetry.
   124 basis functions,   228 primitive gaussians,   124 cartesian basis functions
    27 alpha electrons       27 beta electrons
       nuclear repulsion energy       229.7683550959 Hartrees.
 IExCor=  402 DFT=T Ex+Corr=B3LYP ExCW=0 ScaHFX=  0.200000
 ScaDFX=  0.800000  0.720000  1.000000  0.810000 ScalE2=  1.000000  1.000000
 IRadAn=      5 IRanWt=     -1 IRanGd=            0 ICorTp=0 IEmpDi=  4
 NAtoms=    9 NActive=    9 NUniq=    9 SFac= 1.00D+00 NAtFMM=   60 NAOKFM=F Big=F
 Integral buffers will be    131072 words long.
 Raffenetti 2 integral format.
 Two-electron integral symmetry is turned on.
 ------------------------------------------------------------------------------
 Polarizable Continuum Model (PCM)
 =================================
 Model                : PCM.
 Atomic radii         : SMD-Coulomb.
 Polarization charges : Total charges.
 Charge compensation  : None.
 Solution method      : On-the-fly selection.
 Cavity type          : VdW (van der Waals Surface) (Alpha=1.000).
 Cavity algorithm     : GePol (No added spheres)
                        Default sphere list used, NSphG=    9.
                        Lebedev-Laikov grids with approx.  5.0 points / Ang**2.
                        Smoothing algorithm: York/Karplus (Gamma=1.0000).
                        Polarization charges: spherical gaussians, with
                                              point-specific exponents (IZeta= 3).
                        Self-potential: point-specific (ISelfS= 7).
                        Self-field    : sphere-specific E.n sum rule (ISelfD= 2).
 1st derivatives      : Analytical E(r).r(x)/FMM algorithm (CHGder, D1EAlg=3).
                        Cavity 1st derivative terms included.
 Solvent              : TetraHydroFuran, Eps=   7.425700 Eps(inf)=   1.974025
 ------------------------------------------------------------------------------
 Spheres list:
 ISph  on   Nord     Re0    Alpha      Xe            Ye            Ze
    1   C      1    1.8500  1.000      0.261048      0.523211      0.208883
    2   O      2    2.2940  1.000      0.515466      1.030517      1.375889
    3   C      3    1.8500  1.000      0.562388      1.476075     -0.986939
    4   H      4    1.2000  1.000      0.431993      0.994839     -1.964255
    5   H      5    1.2000  1.000     -0.123205      2.330420     -0.913544
    6   H      6    1.2000  1.000      1.589602      1.843910     -0.898095
    7  Cl      7    2.3800  1.000     -2.091863     -0.548522     -0.065344
    8   C      8    1.8500  1.000      1.425269     -0.815380     -0.095687
    9   N      9    1.8900  1.000      2.292474     -1.598839     -0.125415
 ------------------------------------------------------------------------------
 GePol: Number of generator spheres                  =       9
 GePol: Total number of spheres                      =       9
 GePol: Number of exposed spheres                    =       9 (100.00%)
 GePol: Number of points                             =    1233
 GePol: Average weight of points                     =       0.14
 GePol: Minimum weight of points                     =   0.24D-08
 GePol: Maximum weight of points                     =    0.18138
 GePol: Number of points with low weight             =      36
 GePol: Fraction of low-weight points (<1% of avg)   =       2.92%
 GePol: Cavity surface area                          =    168.584 Ang**2
 GePol: Cavity volume                                =    152.731 Ang**3
 ------------------------------------------------------------------------------
 Atomic radii for non-electrostatic terms: SMD-CDS.
 ------------------------------------------------------------------------------
 PCM non-electrostatic energy =        -0.0007815188 Hartrees.
 Nuclear repulsion after PCM non-electrostatic terms =      229.7675735770 Hartrees.
 Leave Link  301 at Wed Jan  8 01:26:51 2020, MaxMem=  4294967296 cpu:               1.9 elap:               0.2
 (Enter /home/cwagen/sw/g16/g16/l302.exe)
 NPDir=0 NMtPBC=     1 NCelOv=     1 NCel=       1 NClECP=     1 NCelD=      1
         NCelK=      1 NCelE2=     1 NClLst=     1 CellRange=     0.0.
 One-electron integrals computed using PRISM.
 One-electron integral symmetry used in STVInt
 NBasis=   124 RedAO= T EigKep=  9.49D-05  NBF=   124
 NBsUse=   124 1.00D-06 EigRej= -1.00D+00 NBFU=   124
 Precomputing XC quadrature grid using
 IXCGrd= 4 IRadAn=           5 IRanWt=          -1 IRanGd=           0 AccXCQ= 0.00D+00.
 Generated NRdTot=       0 NPtTot=           0 NUsed=           0 NTot=          32
 NSgBfM=   124   124   124   124   124 MxSgAt=     9 MxSgA2=     9.
 Leave Link  302 at Wed Jan  8 01:26:53 2020, MaxMem=  4294967296 cpu:              22.4 elap:               1.9
 (Enter /home/cwagen/sw/g16/g16/l303.exe)
 DipDrv:  MaxL=1.
 Leave Link  303 at Wed Jan  8 01:26:53 2020, MaxMem=  4294967296 cpu:               2.5 elap:               0.3
 (Enter /home/cwagen/sw/g16/g16/l401.exe)
 ExpMin= 4.38D-02 ExpMax= 2.52D+04 ExpMxC= 3.78D+03 IAcc=3 IRadAn=         5 AccDes= 0.00D+00
 Harris functional with IExCor=  402 and IRadAn=       5 diagonalized for initial guess.
 HarFok:  IExCor=  402 AccDes= 0.00D+00 IRadAn=         5 IDoV= 1 UseB2=F ITyADJ=14
 ICtDFT=  3500011 ScaDFX=  1.000000  1.000000  1.000000  1.000000
 FoFCou: FMM=F IPFlag=           0 FMFlag=      100000 FMFlg1=           0
         NFxFlg=           0 DoJE=T BraDBF=F KetDBF=T FulRan=T
         wScrn=  0.000000 ICntrl=       500 IOpCl=  0 I1Cent=   200000004 NGrid=           0
         NMat0=    1 NMatS0=      1 NMatT0=    0 NMatD0=    1 NMtDS0=    0 NMtDT0=    0
 Petite list used in FoFCou.
 Harris En= -706.375608185893    
 JPrj=0 DoOrth=F DoCkMO=F.
 Leave Link  401 at Wed Jan  8 01:26:55 2020, MaxMem=  4294967296 cpu:              26.5 elap:               2.0
 (Enter /home/cwagen/sw/g16/g16/l502.exe)
 Keep R1 ints in memory in canonical form, NReq=45236517.
 FoFCou: FMM=F IPFlag=           0 FMFlag=           0 FMFlg1=           0
         NFxFlg=           0 DoJE=F BraDBF=F KetDBF=F FulRan=T
         wScrn=  0.000000 ICntrl=       600 IOpCl=  0 I1Cent=           0 NGrid=           0
         NMat0=    1 NMatS0=   7750 NMatT0=    0 NMatD0=    1 NMtDS0=    0 NMtDT0=    0
 Symmetry not used in FoFCou.
 Two-electron integral symmetry not used.
 Closed shell SCF:
 Using DIIS extrapolation, IDIIS=  1040.
 NGot=  4294967296 LenX=  4264898079 LenY=  4264882262
 Requested convergence on RMS density matrix=1.00D-08 within 128 cycles.
 Requested convergence on MAX density matrix=1.00D-06.
 Requested convergence on             energy=1.00D-06.
 No special actions if energy rises.

 Cycle   1  Pass 1  IDiag  1:
 Inv3:  Mode=1 IEnd=     4560867.
 Iteration    1 A*A^-1 deviation from unit magnitude is 5.33D-15 for   1233.
 Iteration    1 A*A^-1 deviation from orthogonality  is 1.75D-15 for   1233   1072.
 Iteration    1 A^-1*A deviation from unit magnitude is 4.66D-15 for   1233.
 Iteration    1 A^-1*A deviation from orthogonality  is 2.09D-15 for    313    100.
 E= -706.205720100372    
 DIIS: error= 2.31D-02 at cycle   1 NSaved=   1.
 NSaved= 1 IEnMin= 1 EnMin= -706.205720100372     IErMin= 1 ErrMin= 2.31D-02
 ErrMax= 2.31D-02  0.00D+00 EMaxC= 1.00D-01 BMatC= 2.13D-01 BMatP= 2.13D-01
 IDIUse=3 WtCom= 7.69D-01 WtEn= 2.31D-01
 Coeff-Com:  0.100D+01
 Coeff-En:   0.100D+01
 Coeff:      0.100D+01
 Gap=     0.163 Goal=   None    Shift=    0.000
 GapD=    0.163 DampG=1.000 DampE=0.500 DampFc=0.5000 IDamp=-1.
 Damping current iteration by 5.00D-01
 RMSDP=1.28D-02 MaxDP=2.71D-01              OVMax= 4.71D-01

 Cycle   2  Pass 1  IDiag  1:
 E= -706.134184167069     Delta-E=        0.071535933302 Rises=F Damp=T
 DIIS: error= 2.14D-02 at cycle   2 NSaved=   2.
 NSaved= 2 IEnMin= 1 EnMin= -706.205720100372     IErMin= 2 ErrMin= 2.14D-02
 ErrMax= 2.14D-02  0.00D+00 EMaxC= 1.00D-01 BMatC= 1.27D-01 BMatP= 2.13D-01
 IDIUse=3 WtCom= 7.86D-01 WtEn= 2.14D-01
 Coeff-Com:  0.422D+00 0.578D+00
 Coeff-En:   0.605D+00 0.395D+00
 Coeff:      0.461D+00 0.539D+00
 Gap=     0.136 Goal=   None    Shift=    0.000
 RMSDP=4.90D-03 MaxDP=1.17D-01 DE= 7.15D-02 OVMax= 2.71D-01

 Cycle   3  Pass 1  IDiag  1:
 E= -706.347810757424     Delta-E=       -0.213626590355 Rises=F Damp=F
 DIIS: error= 1.41D-02 at cycle   3 NSaved=   3.
 NSaved= 3 IEnMin= 3 EnMin= -706.347810757424     IErMin= 3 ErrMin= 1.41D-02
 ErrMax= 1.41D-02  0.00D+00 EMaxC= 1.00D-01 BMatC= 4.37D-02 BMatP= 1.27D-01
 IDIUse=3 WtCom= 8.59D-01 WtEn= 1.41D-01
 Coeff-Com:  0.186D+00 0.353D+00 0.461D+00
 Coeff-En:   0.000D+00 0.000D+00 0.100D+01
 Coeff:      0.160D+00 0.304D+00 0.536D+00
 Gap=     0.170 Goal=   None    Shift=    0.000
 RMSDP=2.43D-03 MaxDP=5.12D-02 DE=-2.14D-01 OVMax= 8.56D-02

 Cycle   4  Pass 1  IDiag  1:
 E= -706.383964218429     Delta-E=       -0.036153461005 Rises=F Damp=F
 DIIS: error= 6.50D-03 at cycle   4 NSaved=   4.
 NSaved= 4 IEnMin= 4 EnMin= -706.383964218429     IErMin= 4 ErrMin= 6.50D-03
 ErrMax= 6.50D-03  0.00D+00 EMaxC= 1.00D-01 BMatC= 8.79D-03 BMatP= 4.37D-02
 IDIUse=3 WtCom= 9.35D-01 WtEn= 6.50D-02
 Coeff-Com:  0.564D-01 0.996D-01 0.316D+00 0.528D+00
 Coeff-En:   0.000D+00 0.000D+00 0.157D+00 0.843D+00
 Coeff:      0.527D-01 0.931D-01 0.305D+00 0.549D+00
 Gap=     0.164 Goal=   None    Shift=    0.000
 RMSDP=1.12D-03 MaxDP=2.39D-02 DE=-3.62D-02 OVMax= 4.07D-02

 Cycle   5  Pass 1  IDiag  1:
 E= -706.389372917414     Delta-E=       -0.005408698985 Rises=F Damp=F
 DIIS: error= 3.00D-03 at cycle   5 NSaved=   5.
 NSaved= 5 IEnMin= 5 EnMin= -706.389372917414     IErMin= 5 ErrMin= 3.00D-03
 ErrMax= 3.00D-03  0.00D+00 EMaxC= 1.00D-01 BMatC= 2.37D-03 BMatP= 8.79D-03
 IDIUse=3 WtCom= 9.70D-01 WtEn= 3.00D-02
 Coeff-Com:  0.764D-02 0.773D-02 0.141D+00 0.414D+00 0.429D+00
 Coeff-En:   0.000D+00 0.000D+00 0.000D+00 0.251D+00 0.749D+00
 Coeff:      0.741D-02 0.750D-02 0.137D+00 0.409D+00 0.439D+00
 Gap=     0.162 Goal=   None    Shift=    0.000
 RMSDP=5.02D-04 MaxDP=1.19D-02 DE=-5.41D-03 OVMax= 1.61D-02

 Cycle   6  Pass 1  IDiag  1:
 E= -706.391505693948     Delta-E=       -0.002132776534 Rises=F Damp=F
 DIIS: error= 5.04D-04 at cycle   6 NSaved=   6.
 NSaved= 6 IEnMin= 6 EnMin= -706.391505693948     IErMin= 6 ErrMin= 5.04D-04
 ErrMax= 5.04D-04  0.00D+00 EMaxC= 1.00D-01 BMatC= 1.01D-04 BMatP= 2.37D-03
 IDIUse=3 WtCom= 9.95D-01 WtEn= 5.04D-03
 Coeff-Com:  0.121D-02-0.292D-02 0.514D-01 0.169D+00 0.251D+00 0.530D+00
 Coeff-En:   0.000D+00 0.000D+00 0.000D+00 0.000D+00 0.000D+00 0.100D+01
 Coeff:      0.120D-02-0.290D-02 0.511D-01 0.169D+00 0.250D+00 0.532D+00
 Gap=     0.163 Goal=   None    Shift=    0.000
 RMSDP=8.37D-05 MaxDP=1.76D-03 DE=-2.13D-03 OVMax= 2.64D-03

 Cycle   7  Pass 1  IDiag  1:
 E= -706.391594958686     Delta-E=       -0.000089264738 Rises=F Damp=F
 DIIS: error= 1.66D-04 at cycle   7 NSaved=   7.
 NSaved= 7 IEnMin= 7 EnMin= -706.391594958686     IErMin= 7 ErrMin= 1.66D-04
 ErrMax= 1.66D-04  0.00D+00 EMaxC= 1.00D-01 BMatC= 5.33D-06 BMatP= 1.01D-04
 IDIUse=3 WtCom= 9.98D-01 WtEn= 1.66D-03
 Coeff-Com:  0.516D-03-0.271D-02 0.116D-01 0.352D-01 0.785D-01 0.229D+00
 Coeff-Com:  0.648D+00
 Coeff-En:   0.000D+00 0.000D+00 0.000D+00 0.000D+00 0.000D+00 0.000D+00
 Coeff-En:   0.100D+01
 Coeff:      0.515D-03-0.270D-02 0.116D-01 0.352D-01 0.784D-01 0.229D+00
 Coeff:      0.648D+00
 Gap=     0.162 Goal=   None    Shift=    0.000
 RMSDP=4.96D-05 MaxDP=1.38D-03 DE=-8.93D-05 OVMax= 1.22D-03

 Cycle   8  Pass 1  IDiag  1:
 E= -706.391599691805     Delta-E=       -0.000004733119 Rises=F Damp=F
 DIIS: error= 4.37D-05 at cycle   8 NSaved=   8.
 NSaved= 8 IEnMin= 8 EnMin= -706.391599691805     IErMin= 8 ErrMin= 4.37D-05
 ErrMax= 4.37D-05  0.00D+00 EMaxC= 1.00D-01 BMatC= 8.19D-07 BMatP= 5.33D-06
 IDIUse=1 WtCom= 1.00D+00 WtEn= 0.00D+00
 Coeff-Com:  0.283D-03-0.152D-02 0.265D-02 0.576D-02 0.256D-01 0.871D-01
 Coeff-Com:  0.367D+00 0.513D+00
 Coeff:      0.283D-03-0.152D-02 0.265D-02 0.576D-02 0.256D-01 0.871D-01
 Coeff:      0.367D+00 0.513D+00
 Gap=     0.162 Goal=   None    Shift=    0.000
 RMSDP=1.22D-05 MaxDP=4.14D-04 DE=-4.73D-06 OVMax= 5.14D-04

 Cycle   9  Pass 1  IDiag  1:
 E= -706.391600501235     Delta-E=       -0.000000809430 Rises=F Damp=F
 DIIS: error= 1.67D-05 at cycle   9 NSaved=   9.
 NSaved= 9 IEnMin= 9 EnMin= -706.391600501235     IErMin= 9 ErrMin= 1.67D-05
 ErrMax= 1.67D-05  0.00D+00 EMaxC= 1.00D-01 BMatC= 7.21D-08 BMatP= 8.19D-07
 IDIUse=1 WtCom= 1.00D+00 WtEn= 0.00D+00
 Coeff-Com:  0.124D-03-0.300D-03-0.524D-03-0.309D-02-0.974D-03-0.102D-02
 Coeff-Com:  0.257D-01 0.205D+00 0.776D+00
 Coeff:      0.124D-03-0.300D-03-0.524D-03-0.309D-02-0.974D-03-0.102D-02
 Coeff:      0.257D-01 0.205D+00 0.776D+00
 Gap=     0.162 Goal=   None    Shift=    0.000
 RMSDP=4.39D-06 MaxDP=1.06D-04 DE=-8.09D-07 OVMax= 1.38D-04

 Cycle  10  Pass 1  IDiag  1:
 E= -706.391600588932     Delta-E=       -0.000000087697 Rises=F Damp=F
 DIIS: error= 1.96D-06 at cycle  10 NSaved=  10.
 NSaved=10 IEnMin=10 EnMin= -706.391600588932     IErMin=10 ErrMin= 1.96D-06
 ErrMax= 1.96D-06  0.00D+00 EMaxC= 1.00D-01 BMatC= 8.77D-10 BMatP= 7.21D-08
 IDIUse=1 WtCom= 1.00D+00 WtEn= 0.00D+00
 Coeff-Com:  0.220D-04-0.328D-04-0.149D-03-0.655D-03-0.919D-03-0.337D-02
 Coeff-Com: -0.101D-01 0.208D-01 0.189D+00 0.805D+00
 Coeff:      0.220D-04-0.328D-04-0.149D-03-0.655D-03-0.919D-03-0.337D-02
 Coeff:     -0.101D-01 0.208D-01 0.189D+00 0.805D+00
 Gap=     0.162 Goal=   None    Shift=    0.000
 RMSDP=7.40D-07 MaxDP=1.87D-05 DE=-8.77D-08 OVMax= 2.82D-05

 Cycle  11  Pass 1  IDiag  1:
 E= -706.391600590024     Delta-E=       -0.000000001092 Rises=F Damp=F
 DIIS: error= 8.79D-07 at cycle  11 NSaved=  11.
 NSaved=11 IEnMin=11 EnMin= -706.391600590024     IErMin=11 ErrMin= 8.79D-07
 ErrMax= 8.79D-07  0.00D+00 EMaxC= 1.00D-01 BMatC= 2.42D-10 BMatP= 8.77D-10
 IDIUse=1 WtCom= 1.00D+00 WtEn= 0.00D+00
 Coeff-Com:  0.321D-05 0.102D-04-0.542D-04-0.167D-03-0.520D-03-0.199D-02
 Coeff-Com: -0.794D-02-0.657D-02 0.377D-01 0.422D+00 0.557D+00
 Coeff:      0.321D-05 0.102D-04-0.542D-04-0.167D-03-0.520D-03-0.199D-02
 Coeff:     -0.794D-02-0.657D-02 0.377D-01 0.422D+00 0.557D+00
 Gap=     0.162 Goal=   None    Shift=    0.000
 RMSDP=2.28D-07 MaxDP=6.14D-06 DE=-1.09D-09 OVMax= 4.78D-06

 Cycle  12  Pass 1  IDiag  1:
 E= -706.391600590317     Delta-E=       -0.000000000293 Rises=F Damp=F
 DIIS: error= 1.54D-07 at cycle  12 NSaved=  12.
 NSaved=12 IEnMin=12 EnMin= -706.391600590317     IErMin=12 ErrMin= 1.54D-07
 ErrMax= 1.54D-07  0.00D+00 EMaxC= 1.00D-01 BMatC= 4.09D-12 BMatP= 2.42D-10
 IDIUse=1 WtCom= 1.00D+00 WtEn= 0.00D+00
 Coeff-Com: -0.182D-05 0.515D-05 0.643D-06 0.220D-04-0.381D-04-0.186D-03
 Coeff-Com: -0.111D-02-0.399D-02-0.677D-02 0.531D-01 0.134D+00 0.825D+00
 Coeff:     -0.182D-05 0.515D-05 0.643D-06 0.220D-04-0.381D-04-0.186D-03
 Coeff:     -0.111D-02-0.399D-02-0.677D-02 0.531D-01 0.134D+00 0.825D+00
 Gap=     0.162 Goal=   None    Shift=    0.000
 RMSDP=6.23D-08 MaxDP=1.87D-06 DE=-2.93D-10 OVMax= 2.46D-06

 Cycle  13  Pass 1  IDiag  1:
 E= -706.391600590325     Delta-E=       -0.000000000008 Rises=F Damp=F
 DIIS: error= 2.77D-08 at cycle  13 NSaved=  13.
 NSaved=13 IEnMin=13 EnMin= -706.391600590325     IErMin=13 ErrMin= 2.77D-08
 ErrMax= 2.77D-08  0.00D+00 EMaxC= 1.00D-01 BMatC= 2.64D-13 BMatP= 4.09D-12
 IDIUse=1 WtCom= 1.00D+00 WtEn= 0.00D+00
 Coeff-Com: -0.446D-06 0.113D-06 0.173D-05 0.617D-05 0.203D-04 0.749D-04
 Coeff-Com:  0.282D-03-0.112D-03-0.300D-02-0.140D-01-0.249D-01 0.811D-01
 Coeff-Com:  0.960D+00
 Coeff:     -0.446D-06 0.113D-06 0.173D-05 0.617D-05 0.203D-04 0.749D-04
 Coeff:      0.282D-03-0.112D-03-0.300D-02-0.140D-01-0.249D-01 0.811D-01
 Coeff:      0.960D+00
 Gap=     0.162 Goal=   None    Shift=    0.000
 RMSDP=1.42D-08 MaxDP=2.38D-07 DE=-8.41D-12 OVMax= 6.83D-07

 Cycle  14  Pass 1  IDiag  1:
 E= -706.391600590324     Delta-E=        0.000000000001 Rises=F Damp=F
 DIIS: error= 5.12D-09 at cycle  14 NSaved=  14.
 NSaved=14 IEnMin=13 EnMin= -706.391600590325     IErMin=14 ErrMin= 5.12D-09
 ErrMax= 5.12D-09  0.00D+00 EMaxC= 1.00D-01 BMatC= 4.21D-15 BMatP= 2.64D-13
 IDIUse=1 WtCom= 1.00D+00 WtEn= 0.00D+00
 Coeff-Com:  0.628D-07-0.141D-06 0.845D-07-0.278D-06 0.153D-05 0.699D-05
 Coeff-Com:  0.371D-04 0.761D-04 0.201D-03-0.140D-02-0.438D-02-0.220D-01
 Coeff-Com:  0.140D-01 0.101D+01
 Coeff:      0.628D-07-0.141D-06 0.845D-07-0.278D-06 0.153D-05 0.699D-05
 Coeff:      0.371D-04 0.761D-04 0.201D-03-0.140D-02-0.438D-02-0.220D-01
 Coeff:      0.140D-01 0.101D+01
 Gap=     0.162 Goal=   None    Shift=    0.000
 RMSDP=2.40D-09 MaxDP=3.98D-08 DE= 9.09D-13 OVMax= 1.59D-07

 Error on total polarization charges =  0.02267
 SCF Done:  E(RB3LYP) =  -706.391600590     A.U. after   14 cycles
            NFock= 14  Conv=0.24D-08     -V/T= 2.0063
 KE= 7.020004208326D+02 PE=-2.137155832189D+03 EE= 4.989962371894D+02
 SMD-CDS (non-electrostatic) energy       (kcal/mol) =      -0.49
 (included in total energy above)
 Leave Link  502 at Wed Jan  8 01:27:28 2020, MaxMem=  4294967296 cpu:             445.6 elap:              33.3
 (Enter /home/cwagen/sw/g16/g16/l601.exe)
 Copying SCF densities to generalized density rwf, IOpCl= 0 IROHF=0.

 **********************************************************************

            Population analysis using the SCF density.

 **********************************************************************

 Orbital symmetries:
       Occupied  (A) (A) (A) (A) (A) (A) (A) (A) (A) (A) (A) (A)
                 (A) (A) (A) (A) (A) (A) (A) (A) (A) (A) (A) (A)
                 (A) (A) (A)
       Virtual   (A) (A) (A) (A) (A) (A) (A) (A) (A) (A) (A) (A)
                 (A) (A) (A) (A) (A) (A) (A) (A) (A) (A) (A) (A)
                 (A) (A) (A) (A) (A) (A) (A) (A) (A) (A) (A) (A)
                 (A) (A) (A) (A) (A) (A) (A) (A) (A) (A) (A) (A)
                 (A) (A) (A) (A) (A) (A) (A) (A) (A) (A) (A) (A)
                 (A) (A) (A) (A) (A) (A) (A) (A) (A) (A) (A) (A)
                 (A) (A) (A) (A) (A) (A) (A) (A) (A) (A) (A) (A)
                 (A) (A) (A) (A) (A) (A) (A) (A) (A) (A) (A) (A)
                 (A)
 The electronic state is 1-A.
 Alpha  occ. eigenvalues -- -101.45601 -19.15015 -14.32662 -10.33242 -10.21760
 Alpha  occ. eigenvalues --  -10.18844  -9.36883  -7.12927  -7.12531  -7.12528
 Alpha  occ. eigenvalues --   -1.00511  -0.88538  -0.72958  -0.70280  -0.56644
 Alpha  occ. eigenvalues --   -0.46630  -0.42514  -0.41534  -0.38901  -0.36021
 Alpha  occ. eigenvalues --   -0.34793  -0.32248  -0.31997  -0.25907  -0.24576
 Alpha  occ. eigenvalues --   -0.24163  -0.24024
 Alpha virt. eigenvalues --   -0.07794   0.01523   0.03463   0.04144   0.05044
 Alpha virt. eigenvalues --    0.06269   0.06971   0.08369   0.08934   0.09758
 Alpha virt. eigenvalues --    0.09937   0.10388   0.11196   0.12374   0.13405
 Alpha virt. eigenvalues --    0.14176   0.14986   0.16696   0.16906   0.20855
 Alpha virt. eigenvalues --    0.23134   0.24317   0.24485   0.25896   0.26209
 Alpha virt. eigenvalues --    0.27173   0.28479   0.29652   0.33284   0.33734
 Alpha virt. eigenvalues --    0.35752   0.37317   0.41764   0.61456   0.63428
 Alpha virt. eigenvalues --    0.64992   0.66558   0.67863   0.68732   0.72607
 Alpha virt. eigenvalues --    0.74320   0.75745   0.76746   0.79086   0.80444
 Alpha virt. eigenvalues --    0.82727   0.88800   0.93596   0.95603   0.96429
 Alpha virt. eigenvalues --    0.97196   0.98611   0.98800   1.00706   1.01591
 Alpha virt. eigenvalues --    1.05625   1.10817   1.13520   1.15923   1.23887
 Alpha virt. eigenvalues --    1.30870   1.31957   1.33661   1.39546   1.46504
 Alpha virt. eigenvalues --    1.47625   1.54452   1.55823   1.57170   1.60729
 Alpha virt. eigenvalues --    1.66298   1.68864   1.78793   1.84079   1.90291
 Alpha virt. eigenvalues --    1.92994   1.97721   2.00028   2.00364   2.12067
 Alpha virt. eigenvalues --    2.18446   2.24721   2.30339   2.44571   2.49596
 Alpha virt. eigenvalues --    2.64078   2.69374   2.71502   2.78801   2.97446
 Alpha virt. eigenvalues --    3.10755   4.06231   4.13266   4.29626   4.31333
 Alpha virt. eigenvalues --    4.38864   4.51004
          Condensed to atoms (all electrons):
               1          2          3          4          5          6
     1  C    5.329353   0.560300   0.142320  -0.075152  -0.074566   0.011496
     2  O    0.560300   8.147321  -0.150380   0.008720   0.001553  -0.012954
     3  C    0.142320  -0.150380   5.745665   0.373577   0.384574   0.369017
     4  H   -0.075152   0.008720   0.373577   0.472213  -0.021281  -0.029144
     5  H   -0.074566   0.001553   0.384574  -0.021281   0.463984  -0.023399
     6  H    0.011496  -0.012954   0.369017  -0.029144  -0.023399   0.455548
     7  Cl   0.122396  -0.036939  -0.078152   0.004662  -0.001103   0.000906
     8  C   -0.399210  -0.145199  -0.080078   0.026020   0.027167  -0.031028
     9  N   -0.048333  -0.007668   0.005952  -0.001197  -0.000018  -0.000246
               7          8          9
     1  C    0.122396  -0.399210  -0.048333
     2  O   -0.036939  -0.145199  -0.007668
     3  C   -0.078152  -0.080078   0.005952
     4  H    0.004662   0.026020  -0.001197
     5  H   -0.001103   0.027167  -0.000018
     6  H    0.000906  -0.031028  -0.000246
     7  Cl  17.676486  -0.023348  -0.010251
     8  C   -0.023348   5.883275   0.610975
     9  N   -0.010251   0.610975   7.026181
 Mulliken charges:
               1
     1  C    0.431397
     2  O   -0.364755
     3  C   -0.712495
     4  H    0.241582
     5  H    0.243088
     6  H    0.259806
     7  Cl  -0.654656
     8  C    0.131426
     9  N   -0.575393
 Sum of Mulliken charges =  -1.00000
 Mulliken charges with hydrogens summed into heavy atoms:
               1
     1  C    0.431397
     2  O   -0.364755
     3  C    0.031981
     7  Cl  -0.654656
     8  C    0.131426
     9  N   -0.575393
 Electronic spatial extent (au):  <R**2>=            905.8313
 Charge=             -1.0000 electrons
 Dipole moment (field-independent basis, Debye):
    X=              2.3750    Y=              4.8564    Z=             -2.8935  Tot=              6.1317
 Quadrupole moment (field-independent basis, Debye-Ang):
   XX=            -71.2467   YY=            -52.7380   ZZ=            -49.4780
   XY=              4.9503   XZ=             -1.7310   YZ=             -4.9558
 Traceless Quadrupole moment (field-independent basis, Debye-Ang):
   XX=            -13.4258   YY=              5.0829   ZZ=              8.3429
   XY=              4.9503   XZ=             -1.7310   YZ=             -4.9558
 Octapole moment (field-independent basis, Debye-Ang**2):
  XXX=              3.5802  YYY=             22.9636  ZZZ=             -5.3325  XYY=            -11.8405
  XXY=             33.2750  XXZ=              2.6697  XZZ=             -0.2148  YZZ=             -0.3616
  YYZ=             -3.2436  XYZ=             -3.4352
 Hexadecapole moment (field-independent basis, Debye-Ang**3):
 XXXX=           -896.7411 YYYY=           -380.1479 ZZZZ=           -188.2839 XXXY=             54.5381
 XXXZ=              3.2594 YYYX=             33.7176 YYYZ=             -8.3939 ZZZX=             -2.3606
 ZZZY=             -5.7298 XXYY=           -227.6987 XXZZ=           -161.4550 YYZZ=            -95.9818
 XXYZ=             -5.3594 YYXZ=              0.3434 ZZXY=              1.0690
 N-N= 2.297675735770D+02 E-N=-2.137155832263D+03  KE= 7.020004208326D+02
 No NMR shielding tensors so no spin-rotation constants.
 Leave Link  601 at Wed Jan  8 01:27:30 2020, MaxMem=  4294967296 cpu:              12.7 elap:               1.1
 (Enter /home/cwagen/sw/g16/g16/l701.exe)
 ... and contract with generalized density number  0.
 Compute integral first derivatives.
 D1PCM: PCM CHGder 1st derivatives, ID1Alg=3 FixD1E=F DoIter=F DoCFld=F I1PDM=0.
 GePol: Maximum number of non-zero 1st derivatives   =     390
 Leave Link  701 at Wed Jan  8 01:27:34 2020, MaxMem=  4294967296 cpu:              51.7 elap:               4.4
 (Enter /home/cwagen/sw/g16/g16/l702.exe)
 L702 exits ... SP integral derivatives will be done elsewhere.
 Leave Link  702 at Wed Jan  8 01:27:34 2020, MaxMem=  4294967296 cpu:               0.8 elap:               0.1
 (Enter /home/cwagen/sw/g16/g16/l703.exe)
 Integral derivatives from FoFJK, PRISM(SPDF).
 Compute integral first derivatives, UseDBF=F ICtDFT=           0.
 Calling FoFJK, ICntrl=      2127 FMM=F ISym2X=0 I1Cent= 0 IOpClX= 0 NMat=1 NMatS=1 NMatT=0.
 FoFJK:  IHMeth= 1 ICntrl=    2127 DoSepK=F KAlg= 0 I1Cent=           0 FoldK=F
 IRaf=         0 NMat=       1 IRICut=       1 DoRegI=T DoRafI=F ISym2E= 0 IDoP0=0 IntGTp=1.
 FoFCou: FMM=F IPFlag=           0 FMFlag=      100000 FMFlg1=         800
         NFxFlg=           0 DoJE=F BraDBF=F KetDBF=F FulRan=T
         wScrn=  0.000000 ICntrl=      2127 IOpCl=  0 I1Cent=           0 NGrid=           0
         NMat0=    1 NMatS0=      1 NMatT0=    0 NMatD0=    1 NMtDS0=    0 NMtDT0=    0
 Symmetry not used in FoFCou.
 Leave Link  703 at Wed Jan  8 01:27:37 2020, MaxMem=  4294967296 cpu:              31.7 elap:               2.5
 (Enter /home/cwagen/sw/g16/g16/l716.exe)
 Dipole        = 9.34389475D-01 1.91064176D+00-1.13839490D+00
 ***** Axes restored to original set *****
 -------------------------------------------------------------------
 Center     Atomic                   Forces (Hartrees/Bohr)
 Number     Number              X              Y              Z
 -------------------------------------------------------------------
      1        6           0.071175596   -0.072282501   -0.075896435
      2        8          -0.012004374    0.052072748    0.085667038
      3        6          -0.026284270    0.023252622    0.007241114
      4        1          -0.000634706    0.001405805   -0.002946346
      5        1           0.001326220   -0.000761072    0.001554273
      6        1           0.002024014    0.004933537   -0.004250989
      7       17           0.011478421   -0.013326597   -0.002649065
      8        6          -0.041425702    0.007743990   -0.010409401
      9        7          -0.005655200   -0.003038532    0.001689811
 -------------------------------------------------------------------
 Cartesian Forces:  Max     0.085667038 RMS     0.033242469
 Leave Link  716 at Wed Jan  8 01:27:37 2020, MaxMem=  4294967296 cpu:               0.9 elap:               0.1
 (Enter /home/cwagen/sw/g16/g16/l103.exe)

 GradGradGradGradGradGradGradGradGradGradGradGradGradGradGradGradGradGrad
 Berny optimization.
 FormGI is forming the generalized inverse of G from B-inverse, IUseBI=4.
 Internal  Forces:  Max     0.096359015 RMS     0.023463565
 Search for a local minimum.
 Step number   1 out of a maximum of   41
 All quantities printed in internal units (Hartrees-Bohrs-Radians)
 RMS Force = .22624D-01 SwitMx=.10000D-02 MixMth= 1
 Mixed Optimization -- RFO/linear search
 Second derivative matrix not updated -- first step.
 ITU=  0
     Eigenvalues ---    0.00230   0.04746   0.04746   0.05330   0.05908
     Eigenvalues ---    0.07453   0.10176   0.16000   0.16000   0.16000
     Eigenvalues ---    0.25000   0.25000   0.25000   0.26946   0.33918
     Eigenvalues ---    0.33999   0.34275   0.67840   1.220341000.00000
     Eigenvalues --- 1000.000001000.000001000.000001000.000001000.00000
     Eigenvalues --- 1000.000001000.000001000.000001000.000001000.00000
     Eigenvalues --- 1000.00000
 RFO step:  Lambda=-3.91749485D-02 EMin= 2.30000000D-03
 Linear search not attempted -- first point.
 Maximum step size (   0.300) exceeded in Quadratic search.
    -- Step size scaled by   0.931
 Iteration  1 RMS(Cart)=  0.08655254 RMS(Int)=  0.00862685
 Iteration  2 RMS(Cart)=  0.00841173 RMS(Int)=  0.00553231
 Iteration  3 RMS(Cart)=  0.00003827 RMS(Int)=  0.00553217
 Iteration  4 RMS(Cart)=  0.00000110 RMS(Int)=  0.00553217
 Iteration  5 RMS(Cart)=  0.00000002 RMS(Int)=  0.00553217
 Iteration  1 RMS(Cart)=  0.00000000 RMS(Int)=  0.00000000
 ITry= 1 IFail=0 DXMaxC= 1.89D-01 DCOld= 1.00D+10 DXMaxT= 3.00D-01 DXLimC= 3.00D+00 Rises=F
 Variable       Old X    -DE/DX   Delta X   Delta X   Delta X     New X
                                 (Linear)    (Quad)   (Total)
    R1        2.45227  -0.09636   0.00000  -0.12502  -0.12502   2.32725
    R2        2.94503  -0.01829   0.00000  -0.05518  -0.05518   2.88985
    R3        4.91329  -0.01767   0.00000   0.00000   0.00000   4.91329
    R4        3.40151  -0.04372   0.00000   0.00000   0.00000   3.40151
    R5        2.07331  -0.00246   0.00000  -0.00604  -0.00604   2.06728
    R6        2.07468  -0.00109   0.00000  -0.00267  -0.00267   2.07201
    R7        2.06868  -0.00138   0.00000  -0.00336  -0.00336   2.06532
    R8        2.20923  -0.00618   0.00000  -0.00457  -0.00457   2.20466
    A1        1.99667   0.04113   0.00000   0.14150   0.13189   2.12856
    A2        2.01908  -0.01841   0.00000  -0.08767  -0.08289   1.93619
    A3        1.89239  -0.00957   0.00000   0.04046   0.02010   1.91249
    A4        1.92419  -0.02386   0.00000  -0.10712  -0.10214   1.82205
    A5        1.77194   0.03073   0.00000   0.12045   0.10765   1.87959
    A6        1.83479  -0.01829   0.00000  -0.09450  -0.08979   1.74499
    A7        1.97398  -0.00211   0.00000  -0.01081  -0.01113   1.96284
    A8        1.87942   0.00497   0.00000   0.02715   0.02732   1.90675
    A9        1.90140  -0.00964   0.00000  -0.04815  -0.04833   1.85306
   A10        1.90356  -0.00033   0.00000   0.00401   0.00400   1.90757
   A11        1.90837   0.00477   0.00000   0.01523   0.01455   1.92292
   A12        1.89554   0.00252   0.00000   0.01370   0.01409   1.90964
   A13        3.09831  -0.00422   0.00000  -0.04530  -0.04530   3.05301
   A14        2.91170   0.00263   0.00000   0.02823   0.02823   2.93993
    D1        3.04510   0.01154   0.00000   0.08954   0.09544   3.14055
    D2       -1.13357   0.01321   0.00000   0.10640   0.11223  -1.02134
    D3        0.91915   0.01375   0.00000   0.11174   0.11717   1.03631
    D4       -0.92685   0.00014   0.00000  -0.00830  -0.00783  -0.93468
    D5        1.17766   0.00180   0.00000   0.00856   0.00896   1.18662
    D6       -3.05280   0.00235   0.00000   0.01390   0.01389  -3.03891
    D7        1.01121  -0.01448   0.00000  -0.09618  -0.10201   0.90920
    D8        3.11572  -0.01282   0.00000  -0.07932  -0.08522   3.03050
    D9       -1.11475  -0.01227   0.00000  -0.07398  -0.08029  -1.19503
         Item               Value     Threshold  Converged?
 Maximum Force            0.096359     0.000450     NO 
 RMS     Force            0.022624     0.000300     NO 
 Maximum Displacement     0.189403     0.001800     NO 
 RMS     Displacement     0.085194     0.001200     NO 
 Predicted change in Energy=-2.303913D-02
 Lowest energy point so far.  Saving SCF results.
 GradGradGradGradGradGradGradGradGradGradGradGradGradGradGradGradGradGrad

 Leave Link  103 at Wed Jan  8 01:27:41 2020, MaxMem=  4294967296 cpu:              55.7 elap:               4.4
 (Enter /home/cwagen/sw/g16/g16/l202.exe)
                          Input orientation:                          
 ---------------------------------------------------------------------
 Center     Atomic      Atomic             Coordinates (Angstroms)
 Number     Number       Type             X           Y           Z
 ---------------------------------------------------------------------
      1          6           0       -0.127721   -0.389109   -0.239055
      2          8           0       -0.248923   -0.619364   -1.442781
      3          6           0       -0.367046   -1.466717    0.819276
      4          1           0       -0.215473   -1.094340    1.836675
      5          1           0       -1.390380   -1.848170    0.721767
      6          1           0        0.342115   -2.269472    0.602133
      7         17           0       -1.658457    1.582607    0.488394
      8          6           0        1.488461    0.337908    0.076230
      9          7           0        2.605604    0.665670    0.151409
 ---------------------------------------------------------------------
                    Distance matrix (angstroms):
                    1          2          3          4          5
     1  C    0.000000
     2  O    1.231529   0.000000
     3  C    1.529242   2.418443   0.000000
     4  H    2.194017   3.313843   1.093956   0.000000
     5  H    2.155539   2.738276   1.096462   1.786529   0.000000
     6  H    2.112843   2.693298   1.092921   1.793303   1.786994
     7  Cl   2.600000   3.250370   3.328003   3.326577   3.449139
     8  C    1.800000   2.498452   2.692896   2.837938   3.671972
     9  N    2.955687   3.512986   3.718839   3.727765   4.755269
                    6          7          8          9
     6  H    0.000000
     7  Cl   4.342089   0.000000
     8  C    2.896396   3.409142   0.000000
     9  N    3.733843   4.374534   1.166657   0.000000
 Stoichiometry    C3H3ClNO(1-)
 Framework group  C1[X(C3H3ClNO)]
 Deg. of freedom    21
 Full point group                 C1      NOp   1
 RotChk:  IX=0 Diff= 1.01D-01
 Largest Abelian subgroup         C1      NOp   1
 Largest concise Abelian subgroup C1      NOp   1
                         Standard orientation:                         
 ---------------------------------------------------------------------
 Center     Atomic      Atomic             Coordinates (Angstroms)
 Number     Number       Type             X           Y           Z
 ---------------------------------------------------------------------
      1          6           0        0.300164    0.595672    0.225671
      2          8           0        0.441824    0.995075    1.381989
      3          6           0        0.372947    1.543074   -0.972542
      4          1           0        0.226807    1.024706   -1.924738
      5          1           0       -0.390155    2.322850   -0.863669
      6          1           0        1.365617    1.999176   -0.940130
      7         17           0       -1.972268   -0.634877   -0.060343
      8          6           0        1.434216   -0.767222   -0.084887
      9          7           0        2.306819   -1.534795   -0.187286
 ---------------------------------------------------------------------
 Rotational constants (GHZ):           3.1304019           1.7367245           1.4169636
 Leave Link  202 at Wed Jan  8 01:27:41 2020, MaxMem=  4294967296 cpu:               1.7 elap:               0.2
 (Enter /home/cwagen/sw/g16/g16/l301.exe)
 Standard basis: 6-31+G(d) (6D, 7F)
 Ernie: Thresh=  0.10000D-02 Tol=  0.10000D-05 Strict=F.
 There are   124 symmetry adapted cartesian basis functions of A   symmetry.
 There are   124 symmetry adapted basis functions of A   symmetry.
   124 basis functions,   228 primitive gaussians,   124 cartesian basis functions
    27 alpha electrons       27 beta electrons
       nuclear repulsion energy       233.3775946616 Hartrees.
 IExCor=  402 DFT=T Ex+Corr=B3LYP ExCW=0 ScaHFX=  0.200000
 ScaDFX=  0.800000  0.720000  1.000000  0.810000 ScalE2=  1.000000  1.000000
 IRadAn=      5 IRanWt=     -1 IRanGd=            0 ICorTp=0 IEmpDi=  4
 NAtoms=    9 NActive=    9 NUniq=    9 SFac= 1.00D+00 NAtFMM=   60 NAOKFM=F Big=F
 Integral buffers will be    131072 words long.
 Raffenetti 2 integral format.
 Two-electron integral symmetry is turned on.
 ------------------------------------------------------------------------------
 Polarizable Continuum Model (PCM)
 =================================
 Model                : PCM.
 Atomic radii         : SMD-Coulomb.
 Polarization charges : Total charges.
 Charge compensation  : None.
 Solution method      : On-the-fly selection.
 Cavity type          : VdW (van der Waals Surface) (Alpha=1.000).
 Cavity algorithm     : GePol (No added spheres)
                        Default sphere list used, NSphG=    9.
                        Lebedev-Laikov grids with approx.  5.0 points / Ang**2.
                        Smoothing algorithm: York/Karplus (Gamma=1.0000).
                        Polarization charges: spherical gaussians, with
                                              point-specific exponents (IZeta= 3).
                        Self-potential: point-specific (ISelfS= 7).
                        Self-field    : sphere-specific E.n sum rule (ISelfD= 2).
 1st derivatives      : Analytical E(r).r(x)/FMM algorithm (CHGder, D1EAlg=3).
                        Cavity 1st derivative terms included.
 Solvent              : TetraHydroFuran, Eps=   7.425700 Eps(inf)=   1.974025
 ------------------------------------------------------------------------------
 Spheres list:
 ISph  on   Nord     Re0    Alpha      Xe            Ye            Ze
    1   C      1    1.8500  1.000      0.300164      0.595672      0.225671
    2   O      2    2.2940  1.000      0.441824      0.995075      1.381989
    3   C      3    1.8500  1.000      0.372947      1.543074     -0.972542
    4   H      4    1.2000  1.000      0.226807      1.024706     -1.924738
    5   H      5    1.2000  1.000     -0.390155      2.322850     -0.863669
    6   H      6    1.2000  1.000      1.365617      1.999176     -0.940130
    7  Cl      7    2.3800  1.000     -1.972268     -0.634877     -0.060343
    8   C      8    1.8500  1.000      1.434216     -0.767222     -0.084887
    9   N      9    1.8900  1.000      2.306819     -1.534795     -0.187286
 ------------------------------------------------------------------------------
 GePol: Number of generator spheres                  =       9
 GePol: Total number of spheres                      =       9
 GePol: Number of exposed spheres                    =       9 (100.00%)
 GePol: Number of points                             =    1216
 GePol: Average weight of points                     =       0.14
 GePol: Minimum weight of points                     =   0.19D-09
 GePol: Maximum weight of points                     =    0.18138
 GePol: Number of points with low weight             =      38
 GePol: Fraction of low-weight points (<1% of avg)   =       3.13%
 GePol: Cavity surface area                          =    166.271 Ang**2
 GePol: Cavity volume                                =    151.023 Ang**3
 ------------------------------------------------------------------------------
 Atomic radii for non-electrostatic terms: SMD-CDS.
 ------------------------------------------------------------------------------
 PCM non-electrostatic energy =        -0.0008790297 Hartrees.
 Nuclear repulsion after PCM non-electrostatic terms =      233.3767156319 Hartrees.
 Leave Link  301 at Wed Jan  8 01:27:42 2020, MaxMem=  4294967296 cpu:               2.0 elap:               0.3
 (Enter /home/cwagen/sw/g16/g16/l302.exe)
 NPDir=0 NMtPBC=     1 NCelOv=     1 NCel=       1 NClECP=     1 NCelD=      1
         NCelK=      1 NCelE2=     1 NClLst=     1 CellRange=     0.0.
 One-electron integrals computed using PRISM.
 One-electron integral symmetry used in STVInt
 NBasis=   124 RedAO= T EigKep=  8.45D-05  NBF=   124
 NBsUse=   124 1.00D-06 EigRej= -1.00D+00 NBFU=   124
 Precomputing XC quadrature grid using
 IXCGrd= 4 IRadAn=           5 IRanWt=          -1 IRanGd=           0 AccXCQ= 0.00D+00.
 Generated NRdTot=       0 NPtTot=           0 NUsed=           0 NTot=          32
 NSgBfM=   124   124   124   124   124 MxSgAt=     9 MxSgA2=     9.
 Leave Link  302 at Wed Jan  8 01:27:43 2020, MaxMem=  4294967296 cpu:              21.2 elap:               1.8
 (Enter /home/cwagen/sw/g16/g16/l303.exe)
 DipDrv:  MaxL=1.
 Leave Link  303 at Wed Jan  8 01:27:44 2020, MaxMem=  4294967296 cpu:               2.8 elap:               0.3
 (Enter /home/cwagen/sw/g16/g16/l401.exe)
 Initial guess from the checkpoint file:  "/scratch/users/cwagen/cwagen_scan_260_180/Gau-22009.chk"
 B after Tr=     0.000000    0.000000    0.000000
         Rot=    0.999587   -0.010127   -0.006872   -0.026007 Ang=  -3.29 deg.
 Guess basis will be translated and rotated to current coordinates.
 JPrj=2 DoOrth=T DoCkMO=T.
 Generating alternative initial guess.
 ExpMin= 4.38D-02 ExpMax= 2.52D+04 ExpMxC= 3.78D+03 IAcc=2 IRadAn=         4 AccDes= 0.00D+00
 Harris functional with IExCor=  402 and IRadAn=       4 diagonalized for initial guess.
 HarFok:  IExCor=  402 AccDes= 0.00D+00 IRadAn=         4 IDoV= 1 UseB2=F ITyADJ=14
 ICtDFT=  3500011 ScaDFX=  1.000000  1.000000  1.000000  1.000000
 FoFCou: FMM=F IPFlag=           0 FMFlag=      100000 FMFlg1=           0
         NFxFlg=           0 DoJE=T BraDBF=F KetDBF=T FulRan=T
         wScrn=  0.000000 ICntrl=       500 IOpCl=  0 I1Cent=   200000004 NGrid=           0
         NMat0=    1 NMatS0=      1 NMatT0=    0 NMatD0=    1 NMtDS0=    0 NMtDT0=    0
 Petite list used in FoFCou.
 Harris En= -706.399634820800    
 Leave Link  401 at Wed Jan  8 01:27:46 2020, MaxMem=  4294967296 cpu:              32.7 elap:               2.6
 (Enter /home/cwagen/sw/g16/g16/l502.exe)
 Keep R1 ints in memory in canonical form, NReq=45236517.
 FoFCou: FMM=F IPFlag=           0 FMFlag=           0 FMFlg1=           0
         NFxFlg=           0 DoJE=F BraDBF=F KetDBF=F FulRan=T
         wScrn=  0.000000 ICntrl=       600 IOpCl=  0 I1Cent=           0 NGrid=           0
         NMat0=    1 NMatS0=   7750 NMatT0=    0 NMatD0=    1 NMtDS0=    0 NMtDT0=    0
 Symmetry not used in FoFCou.
 Two-electron integral symmetry not used.
 Closed shell SCF:
 Using DIIS extrapolation, IDIIS=  1040.
 NGot=  4294967296 LenX=  4264898079 LenY=  4264882262
 Requested convergence on RMS density matrix=1.00D-08 within 128 cycles.
 Requested convergence on MAX density matrix=1.00D-06.
 Requested convergence on             energy=1.00D-06.
 No special actions if energy rises.

 Cycle   1  Pass 1  IDiag  1:
 Inv3:  Mode=1 IEnd=     4435968.
 Iteration    1 A*A^-1 deviation from unit magnitude is 3.55D-15 for   1215.
 Iteration    1 A*A^-1 deviation from orthogonality  is 1.25D-15 for    476    222.
 Iteration    1 A^-1*A deviation from unit magnitude is 3.55D-15 for   1215.
 Iteration    1 A^-1*A deviation from orthogonality  is 1.31D-15 for   1214   1213.
 E= -706.402102174712    
 DIIS: error= 4.60D-03 at cycle   1 NSaved=   1.
 NSaved= 1 IEnMin= 1 EnMin= -706.402102174712     IErMin= 1 ErrMin= 4.60D-03
 ErrMax= 4.60D-03  0.00D+00 EMaxC= 1.00D-01 BMatC= 9.82D-03 BMatP= 9.82D-03
 IDIUse=3 WtCom= 9.54D-01 WtEn= 4.60D-02
 Coeff-Com:  0.100D+01
 Coeff-En:   0.100D+01
 Coeff:      0.100D+01
 Gap=     0.566 Goal=   None    Shift=    0.000
 GapD=    0.566 DampG=2.000 DampE=1.000 DampFc=2.0000 IDamp=-1.
 RMSDP=2.30D-03 MaxDP=5.95D-02              OVMax= 4.61D-02

 Cycle   2  Pass 1  IDiag  1:
 E= -706.418027629757     Delta-E=       -0.015925455045 Rises=F Damp=F
 DIIS: error= 1.65D-03 at cycle   2 NSaved=   2.
 NSaved= 2 IEnMin= 2 EnMin= -706.418027629757     IErMin= 2 ErrMin= 1.65D-03
 ErrMax= 1.65D-03  0.00D+00 EMaxC= 1.00D-01 BMatC= 6.49D-04 BMatP= 9.82D-03
 IDIUse=3 WtCom= 9.83D-01 WtEn= 1.65D-02
 Coeff-Com:  0.596D-01 0.940D+00
 Coeff-En:   0.000D+00 0.100D+01
 Coeff:      0.586D-01 0.941D+00
 Gap=     0.188 Goal=   None    Shift=    0.000
 RMSDP=6.11D-04 MaxDP=1.22D-02 DE=-1.59D-02 OVMax= 2.10D-02

 Cycle   3  Pass 1  IDiag  1:
 E= -706.417421610785     Delta-E=        0.000606018972 Rises=F Damp=F
 DIIS: error= 2.60D-03 at cycle   3 NSaved=   3.
 NSaved= 3 IEnMin= 2 EnMin= -706.418027629757     IErMin= 2 ErrMin= 1.65D-03
 ErrMax= 2.60D-03  0.00D+00 EMaxC= 1.00D-01 BMatC= 1.40D-03 BMatP= 6.49D-04
 IDIUse=3 WtCom= 1.64D-01 WtEn= 8.36D-01
 Coeff-Com: -0.294D-01 0.614D+00 0.416D+00
 Coeff-En:   0.000D+00 0.646D+00 0.354D+00
 Coeff:     -0.482D-02 0.641D+00 0.364D+00
 Gap=     0.181 Goal=   None    Shift=    0.000
 RMSDP=4.28D-04 MaxDP=1.09D-02 DE= 6.06D-04 OVMax= 1.40D-02

 Cycle   4  Pass 1  IDiag  1:
 E= -706.418655678843     Delta-E=       -0.001234068057 Rises=F Damp=F
 DIIS: error= 6.05D-04 at cycle   4 NSaved=   4.
 NSaved= 4 IEnMin= 4 EnMin= -706.418655678843     IErMin= 4 ErrMin= 6.05D-04
 ErrMax= 6.05D-04  0.00D+00 EMaxC= 1.00D-01 BMatC= 5.99D-05 BMatP= 6.49D-04
 IDIUse=3 WtCom= 9.94D-01 WtEn= 6.05D-03
 Coeff-Com: -0.236D-01 0.279D+00 0.220D+00 0.525D+00
 Coeff-En:   0.000D+00 0.000D+00 0.000D+00 0.100D+01
 Coeff:     -0.235D-01 0.277D+00 0.219D+00 0.528D+00
 Gap=     0.180 Goal=   None    Shift=    0.000
 RMSDP=1.05D-04 MaxDP=2.08D-03 DE=-1.23D-03 OVMax= 2.59D-03

 Cycle   5  Pass 1  IDiag  1:
 E= -706.418699886382     Delta-E=       -0.000044207539 Rises=F Damp=F
 DIIS: error= 1.85D-04 at cycle   5 NSaved=   5.
 NSaved= 5 IEnMin= 5 EnMin= -706.418699886382     IErMin= 5 ErrMin= 1.85D-04
 ErrMax= 1.85D-04  0.00D+00 EMaxC= 1.00D-01 BMatC= 9.04D-06 BMatP= 5.99D-05
 IDIUse=3 WtCom= 9.98D-01 WtEn= 1.85D-03
 Coeff-Com: -0.723D-02 0.724D-01 0.753D-01 0.299D+00 0.560D+00
 Coeff-En:   0.000D+00 0.000D+00 0.000D+00 0.120D+00 0.880D+00
 Coeff:     -0.721D-02 0.723D-01 0.751D-01 0.299D+00 0.561D+00
 Gap=     0.181 Goal=   None    Shift=    0.000
 RMSDP=6.70D-05 MaxDP=2.75D-03 DE=-4.42D-05 OVMax= 1.29D-03

 Cycle   6  Pass 1  IDiag  1:
 E= -706.418709061297     Delta-E=       -0.000009174916 Rises=F Damp=F
 DIIS: error= 5.77D-05 at cycle   6 NSaved=   6.
 NSaved= 6 IEnMin= 6 EnMin= -706.418709061297     IErMin= 6 ErrMin= 5.77D-05
 ErrMax= 5.77D-05  0.00D+00 EMaxC= 1.00D-01 BMatC= 7.94D-07 BMatP= 9.04D-06
 IDIUse=1 WtCom= 1.00D+00 WtEn= 0.00D+00
 Coeff-Com: -0.194D-02 0.126D-01 0.197D-01 0.114D+00 0.302D+00 0.553D+00
 Coeff:     -0.194D-02 0.126D-01 0.197D-01 0.114D+00 0.302D+00 0.553D+00
 Gap=     0.181 Goal=   None    Shift=    0.000
 RMSDP=1.52D-05 MaxDP=5.98D-04 DE=-9.17D-06 OVMax= 3.33D-04

 Cycle   7  Pass 1  IDiag  1:
 E= -706.418709667963     Delta-E=       -0.000000606666 Rises=F Damp=F
 DIIS: error= 3.86D-05 at cycle   7 NSaved=   7.
 NSaved= 7 IEnMin= 7 EnMin= -706.418709667963     IErMin= 7 ErrMin= 3.86D-05
 ErrMax= 3.86D-05  0.00D+00 EMaxC= 1.00D-01 BMatC= 2.33D-07 BMatP= 7.94D-07
 IDIUse=1 WtCom= 1.00D+00 WtEn= 0.00D+00
 Coeff-Com: -0.161D-03-0.376D-02 0.875D-03 0.330D-01 0.131D+00 0.381D+00
 Coeff-Com:  0.458D+00
 Coeff:     -0.161D-03-0.376D-02 0.875D-03 0.330D-01 0.131D+00 0.381D+00
 Coeff:      0.458D+00
 Gap=     0.181 Goal=   None    Shift=    0.000
 RMSDP=4.44D-06 MaxDP=1.06D-04 DE=-6.07D-07 OVMax= 1.92D-04

 Cycle   8  Pass 1  IDiag  1:
 E= -706.418709854223     Delta-E=       -0.000000186260 Rises=F Damp=F
 DIIS: error= 1.19D-05 at cycle   8 NSaved=   8.
 NSaved= 8 IEnMin= 8 EnMin= -706.418709854223     IErMin= 8 ErrMin= 1.19D-05
 ErrMax= 1.19D-05  0.00D+00 EMaxC= 1.00D-01 BMatC= 2.30D-08 BMatP= 2.33D-07
 IDIUse=1 WtCom= 1.00D+00 WtEn= 0.00D+00
 Coeff-Com:  0.210D-03-0.436D-02-0.292D-02 0.206D-02 0.343D-01 0.137D+00
 Coeff-Com:  0.285D+00 0.549D+00
 Coeff:      0.210D-03-0.436D-02-0.292D-02 0.206D-02 0.343D-01 0.137D+00
 Coeff:      0.285D+00 0.549D+00
 Gap=     0.181 Goal=   None    Shift=    0.000
 RMSDP=2.03D-06 MaxDP=5.28D-05 DE=-1.86D-07 OVMax= 5.24D-05

 Cycle   9  Pass 1  IDiag  1:
 E= -706.418709876038     Delta-E=       -0.000000021815 Rises=F Damp=F
 DIIS: error= 1.79D-06 at cycle   9 NSaved=   9.
 NSaved= 9 IEnMin= 9 EnMin= -706.418709876038     IErMin= 9 ErrMin= 1.79D-06
 ErrMax= 1.79D-06  0.00D+00 EMaxC= 1.00D-01 BMatC= 1.05D-09 BMatP= 2.30D-08
 IDIUse=1 WtCom= 1.00D+00 WtEn= 0.00D+00
 Coeff-Com:  0.974D-04-0.153D-02-0.156D-02-0.171D-02 0.465D-02 0.233D-01
 Coeff-Com:  0.833D-01 0.230D+00 0.664D+00
 Coeff:      0.974D-04-0.153D-02-0.156D-02-0.171D-02 0.465D-02 0.233D-01
 Coeff:      0.833D-01 0.230D+00 0.664D+00
 Gap=     0.181 Goal=   None    Shift=    0.000
 RMSDP=5.80D-07 MaxDP=2.05D-05 DE=-2.18D-08 OVMax= 1.88D-05

 Cycle  10  Pass 1  IDiag  1:
 E= -706.418709877344     Delta-E=       -0.000000001307 Rises=F Damp=F
 DIIS: error= 5.09D-07 at cycle  10 NSaved=  10.
 NSaved=10 IEnMin=10 EnMin= -706.418709877344     IErMin=10 ErrMin= 5.09D-07
 ErrMax= 5.09D-07  0.00D+00 EMaxC= 1.00D-01 BMatC= 7.69D-11 BMatP= 1.05D-09
 IDIUse=1 WtCom= 1.00D+00 WtEn= 0.00D+00
 Coeff-Com:  0.177D-04-0.119D-03-0.339D-03-0.793D-03-0.149D-02-0.554D-02
 Coeff-Com:  0.869D-03 0.327D-01 0.265D+00 0.710D+00
 Coeff:      0.177D-04-0.119D-03-0.339D-03-0.793D-03-0.149D-02-0.554D-02
 Coeff:      0.869D-03 0.327D-01 0.265D+00 0.710D+00
 Gap=     0.181 Goal=   None    Shift=    0.000
 RMSDP=1.61D-07 MaxDP=5.92D-06 DE=-1.31D-09 OVMax= 4.12D-06

 Cycle  11  Pass 1  IDiag  1:
 E= -706.418709877437     Delta-E=       -0.000000000093 Rises=F Damp=F
 DIIS: error= 1.31D-07 at cycle  11 NSaved=  11.
 NSaved=11 IEnMin=11 EnMin= -706.418709877437     IErMin=11 ErrMin= 1.31D-07
 ErrMax= 1.31D-07  0.00D+00 EMaxC= 1.00D-01 BMatC= 1.96D-12 BMatP= 7.69D-11
 IDIUse=1 WtCom= 1.00D+00 WtEn= 0.00D+00
 Coeff-Com: -0.197D-06 0.492D-04-0.985D-06-0.142D-03-0.633D-03-0.261D-02
 Coeff-Com: -0.445D-02-0.245D-02 0.363D-01 0.184D+00 0.790D+00
 Coeff:     -0.197D-06 0.492D-04-0.985D-06-0.142D-03-0.633D-03-0.261D-02
 Coeff:     -0.445D-02-0.245D-02 0.363D-01 0.184D+00 0.790D+00
 Gap=     0.181 Goal=   None    Shift=    0.000
 RMSDP=6.71D-08 MaxDP=3.10D-06 DE=-9.30D-11 OVMax= 1.03D-06

 Cycle  12  Pass 1  IDiag  1:
 E= -706.418709877442     Delta-E=       -0.000000000005 Rises=F Damp=F
 DIIS: error= 2.51D-08 at cycle  12 NSaved=  12.
 NSaved=12 IEnMin=12 EnMin= -706.418709877442     IErMin=12 ErrMin= 2.51D-08
 ErrMax= 2.51D-08  0.00D+00 EMaxC= 1.00D-01 BMatC= 9.84D-14 BMatP= 1.96D-12
 IDIUse=1 WtCom= 1.00D+00 WtEn= 0.00D+00
 Coeff-Com: -0.697D-06 0.127D-04 0.159D-04-0.161D-05-0.622D-04-0.204D-03
 Coeff-Com: -0.937D-03-0.162D-02-0.410D-02 0.128D-02 0.154D+00 0.852D+00
 Coeff:     -0.697D-06 0.127D-04 0.159D-04-0.161D-05-0.622D-04-0.204D-03
 Coeff:     -0.937D-03-0.162D-02-0.410D-02 0.128D-02 0.154D+00 0.852D+00
 Gap=     0.181 Goal=   None    Shift=    0.000
 RMSDP=1.19D-08 MaxDP=4.05D-07 DE=-4.55D-12 OVMax= 3.21D-07

 Cycle  13  Pass 1  IDiag  1:
 E= -706.418709877441     Delta-E=        0.000000000001 Rises=F Damp=F
 DIIS: error= 5.34D-09 at cycle  13 NSaved=  13.
 NSaved=13 IEnMin=12 EnMin= -706.418709877442     IErMin=13 ErrMin= 5.34D-09
 ErrMax= 5.34D-09  0.00D+00 EMaxC= 1.00D-01 BMatC= 1.03D-14 BMatP= 9.84D-14
 IDIUse=1 WtCom= 1.00D+00 WtEn= 0.00D+00
 Coeff-Com: -0.224D-06 0.115D-05 0.529D-05 0.105D-04 0.254D-04 0.113D-03
 Coeff-Com: -0.826D-05-0.371D-03-0.384D-02-0.126D-01-0.375D-03 0.288D+00
 Coeff-Com:  0.729D+00
 Coeff:     -0.224D-06 0.115D-05 0.529D-05 0.105D-04 0.254D-04 0.113D-03
 Coeff:     -0.826D-05-0.371D-03-0.384D-02-0.126D-01-0.375D-03 0.288D+00
 Coeff:      0.729D+00
 Gap=     0.181 Goal=   None    Shift=    0.000
 RMSDP=1.64D-09 MaxDP=2.87D-08 DE= 6.82D-13 OVMax= 8.07D-08

 Error on total polarization charges =  0.02348
 SCF Done:  E(RB3LYP) =  -706.418709877     A.U. after   13 cycles
            NFock= 13  Conv=0.16D-08     -V/T= 2.0060
 KE= 7.022312813629D+02 PE=-2.144639077094D+03 EE= 5.026123702216D+02
 SMD-CDS (non-electrostatic) energy       (kcal/mol) =      -0.55
 (included in total energy above)
 Leave Link  502 at Wed Jan  8 01:28:18 2020, MaxMem=  4294967296 cpu:             421.2 elap:              31.5
 (Enter /home/cwagen/sw/g16/g16/l701.exe)
 ... and contract with generalized density number  0.
 Compute integral first derivatives.
 D1PCM: PCM CHGder 1st derivatives, ID1Alg=3 FixD1E=F DoIter=F DoCFld=F I1PDM=0.
 GePol: Maximum number of non-zero 1st derivatives   =     380
 Leave Link  701 at Wed Jan  8 01:28:22 2020, MaxMem=  4294967296 cpu:              52.3 elap:               4.1
 (Enter /home/cwagen/sw/g16/g16/l702.exe)
 L702 exits ... SP integral derivatives will be done elsewhere.
 Leave Link  702 at Wed Jan  8 01:28:22 2020, MaxMem=  4294967296 cpu:               0.9 elap:               0.1
 (Enter /home/cwagen/sw/g16/g16/l703.exe)
 Integral derivatives from FoFJK, PRISM(SPDF).
 Compute integral first derivatives, UseDBF=F ICtDFT=           0.
 Calling FoFJK, ICntrl=      2127 FMM=F ISym2X=0 I1Cent= 0 IOpClX= 0 NMat=1 NMatS=1 NMatT=0.
 FoFJK:  IHMeth= 1 ICntrl=    2127 DoSepK=F KAlg= 0 I1Cent=           0 FoldK=F
 IRaf=         0 NMat=       1 IRICut=       1 DoRegI=T DoRafI=F ISym2E= 0 IDoP0=0 IntGTp=1.
 FoFCou: FMM=F IPFlag=           0 FMFlag=      100000 FMFlg1=         800
         NFxFlg=           0 DoJE=F BraDBF=F KetDBF=F FulRan=T
         wScrn=  0.000000 ICntrl=      2127 IOpCl=  0 I1Cent=           0 NGrid=           0
         NMat0=    1 NMatS0=      1 NMatT0=    0 NMatD0=    1 NMtDS0=    0 NMtDT0=    0
 Symmetry not used in FoFCou.
 Leave Link  703 at Wed Jan  8 01:28:24 2020, MaxMem=  4294967296 cpu:              32.1 elap:               2.4
 (Enter /home/cwagen/sw/g16/g16/l716.exe)
 Dipole        = 1.06093749D+00 2.30080116D+00-1.01693494D+00
 ***** Axes restored to original set *****
 -------------------------------------------------------------------
 Center     Atomic                   Forces (Hartrees/Bohr)
 Number     Number              X              Y              Z
 -------------------------------------------------------------------
      1        6           0.056389229   -0.026414635   -0.037855096
      2        8          -0.010645420    0.021159770    0.038281721
      3        6          -0.012859352    0.020268779    0.004175199
      4        1           0.000497102   -0.000080592   -0.001598100
      5        1           0.001424258    0.000387627   -0.000688515
      6        1           0.002107930   -0.000251063   -0.000783023
      7       17           0.005985173   -0.007295225   -0.000780414
      8        6          -0.041896811   -0.007951357   -0.000378513
      9        7          -0.001002110    0.000176695   -0.000373258
 -------------------------------------------------------------------
 Cartesian Forces:  Max     0.056389229 RMS     0.019100875
 Leave Link  716 at Wed Jan  8 01:28:24 2020, MaxMem=  4294967296 cpu:               0.8 elap:               0.1
 (Enter /home/cwagen/sw/g16/g16/l103.exe)

 GradGradGradGradGradGradGradGradGradGradGradGradGradGradGradGradGradGrad
 Berny optimization.
 Using GEDIIS/GDIIS optimizer.
 FormGI is forming the generalized inverse of G from B-inverse, IUseBI=4.
 Internal  Forces:  Max     0.041809207 RMS     0.012641448
 Search for a local minimum.
 Step number   2 out of a maximum of   41
 All quantities printed in internal units (Hartrees-Bohrs-Radians)
 RMS Force = .10373D-01 SwitMx=.10000D-02 MixMth= 1
 Mixed Optimization -- RFO/linear search
 Update second derivatives using D2CorX and points    1    2
 DE= -2.71D-02 DEPred=-2.30D-02 R= 1.18D+00
 TightC=F SS=  1.41D+00  RLast= 3.74D-01 DXNew= 5.0454D-01 1.1220D+00
 Trust test= 1.18D+00 RLast= 3.74D-01 DXMaxT set to 5.05D-01
 ITU=  1  0
 Use linear search instead of GDIIS.
     Eigenvalues ---    0.00230   0.04711   0.04747   0.05438   0.05611
     Eigenvalues ---    0.06034   0.09013   0.15982   0.16000   0.16218
     Eigenvalues ---    0.23214   0.25000   0.26407   0.28127   0.33915
     Eigenvalues ---    0.33989   0.34345   0.58001   1.220661000.00000
     Eigenvalues --- 1000.000001000.000001000.000001000.000001000.00000
     Eigenvalues --- 1000.000001000.000001000.000001000.000001000.00000
     Eigenvalues --- 1000.00000
 RFO step:  Lambda=-5.72429903D-03 EMin= 2.30275907D-03
 Quartic linear search produced a step of  0.77378.
 Iteration  1 RMS(Cart)=  0.10733558 RMS(Int)=  0.01385680
 Iteration  2 RMS(Cart)=  0.01227402 RMS(Int)=  0.00989609
 Iteration  3 RMS(Cart)=  0.00010486 RMS(Int)=  0.00989567
 Iteration  4 RMS(Cart)=  0.00000308 RMS(Int)=  0.00989567
 Iteration  5 RMS(Cart)=  0.00000007 RMS(Int)=  0.00989567
 Iteration  1 RMS(Cart)=  0.00000000 RMS(Int)=  0.00000000
 ITry= 1 IFail=0 DXMaxC= 2.44D-01 DCOld= 1.00D+10 DXMaxT= 5.05D-01 DXLimC= 3.00D+00 Rises=F
 Variable       Old X    -DE/DX   Delta X   Delta X   Delta X     New X
                                 (Linear)    (Quad)   (Total)
    R1        2.32725  -0.04033  -0.09674  -0.00928  -0.10601   2.22124
    R2        2.88985  -0.01220  -0.04270  -0.03089  -0.07358   2.81627
    R3        4.91329  -0.00926   0.00000   0.00000   0.00000   4.91329
    R4        3.40151  -0.04181   0.00000   0.00000   0.00000   3.40151
    R5        2.06728  -0.00145  -0.00467  -0.00241  -0.00708   2.06020
    R6        2.07201  -0.00139  -0.00207  -0.00501  -0.00708   2.06493
    R7        2.06532   0.00174  -0.00260   0.01181   0.00922   2.07454
    R8        2.20466  -0.00093  -0.00354   0.00202  -0.00151   2.20315
    A1        2.12856   0.01896   0.10205   0.03823   0.11803   2.24659
    A2        1.93619  -0.00666  -0.06414  -0.01735  -0.06936   1.86683
    A3        1.91249   0.00066   0.01555   0.09649   0.07836   1.99086
    A4        1.82205  -0.01414  -0.07903  -0.06182  -0.13135   1.69070
    A5        1.87959   0.00294   0.08330  -0.03815   0.01622   1.89581
    A6        1.74499  -0.00718  -0.06948  -0.03962  -0.10584   1.63916
    A7        1.96284  -0.00049  -0.00861   0.00618  -0.00269   1.96015
    A8        1.90675  -0.00021   0.02114  -0.02863  -0.00738   1.89937
    A9        1.85306  -0.00183  -0.03740   0.02755  -0.01004   1.84302
   A10        1.90757   0.00093   0.00310   0.00905   0.01215   1.91972
   A11        1.92292   0.00061   0.01126  -0.00958   0.00111   1.92404
   A12        1.90964   0.00095   0.01090  -0.00490   0.00625   1.91589
   A13        3.05301   0.00104  -0.03505   0.11098   0.07593   3.12894
   A14        2.93993  -0.00041   0.02184  -0.06121  -0.03936   2.90057
    D1        3.14055   0.00941   0.07385   0.04950   0.13157  -3.01107
    D2       -1.02134   0.01013   0.08684   0.04506   0.14004  -0.88130
    D3        1.03631   0.01013   0.09066   0.03973   0.13822   1.17453
    D4       -0.93468   0.00114  -0.00606  -0.00490  -0.01267  -0.94734
    D5        1.18662   0.00185   0.00693  -0.00934  -0.00420   1.18242
    D6       -3.03891   0.00186   0.01075  -0.01468  -0.00602  -3.04493
    D7        0.90920  -0.01147  -0.07893  -0.08733  -0.17230   0.73690
    D8        3.03050  -0.01076  -0.06594  -0.09176  -0.16384   2.86666
    D9       -1.19503  -0.01075  -0.06212  -0.09710  -0.16566  -1.36069
         Item               Value     Threshold  Converged?
 Maximum Force            0.040334     0.000450     NO 
 RMS     Force            0.010373     0.000300     NO 
 Maximum Displacement     0.244331     0.001800     NO 
 RMS     Displacement     0.109611     0.001200     NO 
 Predicted change in Energy=-1.292966D-02
 Lowest energy point so far.  Saving SCF results.
 GradGradGradGradGradGradGradGradGradGradGradGradGradGradGradGradGradGrad

 Leave Link  103 at Wed Jan  8 01:28:29 2020, MaxMem=  4294967296 cpu:              56.2 elap:               4.7
 (Enter /home/cwagen/sw/g16/g16/l202.exe)
                          Input orientation:                          
 ---------------------------------------------------------------------
 Center     Atomic      Atomic             Coordinates (Angstroms)
 Number     Number       Type             X           Y           Z
 ---------------------------------------------------------------------
      1          6           0       -0.062233   -0.504220   -0.298838
      2          8           0       -0.269069   -0.616886   -1.450427
      3          6           0       -0.380564   -1.455919    0.802951
      4          1           0       -0.189355   -1.028243    1.787375
      5          1           0       -1.429330   -1.751674    0.721421
      6          1           0        0.265234   -2.327775    0.635705
      7         17           0       -1.541180    1.458948    0.548919
      8          6           0        1.484502    0.329820    0.091018
      9          7           0        2.550172    0.794964    0.175926
 ---------------------------------------------------------------------
                    Distance matrix (angstroms):
                    1          2          3          4          5
     1  C    0.000000
     2  O    1.175429   0.000000
     3  C    1.490303   2.407098   0.000000
     4  H    2.154772   3.264802   1.090210   0.000000
     5  H    2.113296   2.711249   1.092716   1.788058   0.000000
     6  H    2.075080   2.750375   1.097797   1.794931   1.791867
     7  Cl   2.600000   3.150355   3.147699   3.089874   3.217197
     8  C    1.800000   2.519389   2.678467   2.742947   3.635993
     9  N    2.956001   3.547741   3.748180   3.664131   4.755982
                    6          7          8          9
     6  H    0.000000
     7  Cl   4.196418   0.000000
     8  C    2.974240   3.261802   0.000000
     9  N    3.896644   4.161629   1.165856   0.000000
 Stoichiometry    C3H3ClNO(1-)
 Framework group  C1[X(C3H3ClNO)]
 Deg. of freedom    21
 Full point group                 C1      NOp   1
 RotChk:  IX=0 Diff= 1.38D-01
 Largest Abelian subgroup         C1      NOp   1
 Largest concise Abelian subgroup C1      NOp   1
                         Standard orientation:                         
 ---------------------------------------------------------------------
 Center     Atomic      Atomic             Coordinates (Angstroms)
 Number     Number       Type             X           Y           Z
 ---------------------------------------------------------------------
      1          6           0        0.332913    0.703981    0.233725
      2          8           0        0.357363    1.087346    1.344611
      3          6           0        0.172643    1.491944   -1.021039
      4          1           0        0.057416    0.854651   -1.898045
      5          1           0       -0.696412    2.146269   -0.917934
      6          1           0        1.084629    2.096782   -1.108283
      7         17           0       -1.817670   -0.734049   -0.025238
      8          6           0        1.442928   -0.675189   -0.091473
      9          7           0        2.272135   -1.491722   -0.161551
 ---------------------------------------------------------------------
 Rotational constants (GHZ):           3.0690018           1.9014785           1.5074892
 Leave Link  202 at Wed Jan  8 01:28:29 2020, MaxMem=  4294967296 cpu:               1.5 elap:               0.1
 (Enter /home/cwagen/sw/g16/g16/l301.exe)
 Standard basis: 6-31+G(d) (6D, 7F)
 Ernie: Thresh=  0.10000D-02 Tol=  0.10000D-05 Strict=F.
 There are   124 symmetry adapted cartesian basis functions of A   symmetry.
 There are   124 symmetry adapted basis functions of A   symmetry.
   124 basis functions,   228 primitive gaussians,   124 cartesian basis functions
    27 alpha electrons       27 beta electrons
       nuclear repulsion energy       238.2092612537 Hartrees.
 IExCor=  402 DFT=T Ex+Corr=B3LYP ExCW=0 ScaHFX=  0.200000
 ScaDFX=  0.800000  0.720000  1.000000  0.810000 ScalE2=  1.000000  1.000000
 IRadAn=      5 IRanWt=     -1 IRanGd=            0 ICorTp=0 IEmpDi=  4
 NAtoms=    9 NActive=    9 NUniq=    9 SFac= 1.00D+00 NAtFMM=   60 NAOKFM=F Big=F
 Integral buffers will be    131072 words long.
 Raffenetti 2 integral format.
 Two-electron integral symmetry is turned on.
 ------------------------------------------------------------------------------
 Polarizable Continuum Model (PCM)
 =================================
 Model                : PCM.
 Atomic radii         : SMD-Coulomb.
 Polarization charges : Total charges.
 Charge compensation  : None.
 Solution method      : On-the-fly selection.
 Cavity type          : VdW (van der Waals Surface) (Alpha=1.000).
 Cavity algorithm     : GePol (No added spheres)
                        Default sphere list used, NSphG=    9.
                        Lebedev-Laikov grids with approx.  5.0 points / Ang**2.
                        Smoothing algorithm: York/Karplus (Gamma=1.0000).
                        Polarization charges: spherical gaussians, with
                                              point-specific exponents (IZeta= 3).
                        Self-potential: point-specific (ISelfS= 7).
                        Self-field    : sphere-specific E.n sum rule (ISelfD= 2).
 1st derivatives      : Analytical E(r).r(x)/FMM algorithm (CHGder, D1EAlg=3).
                        Cavity 1st derivative terms included.
 Solvent              : TetraHydroFuran, Eps=   7.425700 Eps(inf)=   1.974025
 ------------------------------------------------------------------------------
 Spheres list:
 ISph  on   Nord     Re0    Alpha      Xe            Ye            Ze
    1   C      1    1.8500  1.000      0.332913      0.703981      0.233725
    2   O      2    2.2940  1.000      0.357363      1.087346      1.344611
    3   C      3    1.8500  1.000      0.172643      1.491944     -1.021039
    4   H      4    1.2000  1.000      0.057416      0.854651     -1.898045
    5   H      5    1.2000  1.000     -0.696412      2.146269     -0.917934
    6   H      6    1.2000  1.000      1.084629      2.096782     -1.108283
    7  Cl      7    2.3800  1.000     -1.817670     -0.734049     -0.025238
    8   C      8    1.8500  1.000      1.442928     -0.675189     -0.091473
    9   N      9    1.8900  1.000      2.272135     -1.491722     -0.161551
 ------------------------------------------------------------------------------
 GePol: Number of generator spheres                  =       9
 GePol: Total number of spheres                      =       9
 GePol: Number of exposed spheres                    =       9 (100.00%)
 GePol: Number of points                             =    1210
 GePol: Average weight of points                     =       0.13
 GePol: Minimum weight of points                     =   0.18D-08
 GePol: Maximum weight of points                     =    0.18138
 GePol: Number of points with low weight             =      40
 GePol: Fraction of low-weight points (<1% of avg)   =       3.31%
 GePol: Cavity surface area                          =    163.090 Ang**2
 GePol: Cavity volume                                =    149.256 Ang**3
 ------------------------------------------------------------------------------
 Atomic radii for non-electrostatic terms: SMD-CDS.
 ------------------------------------------------------------------------------
 PCM non-electrostatic energy =        -0.0008815186 Hartrees.
[...]
      5        1           0.000015078   -0.000020966    0.000029273
      6        1           0.000027353    0.000003934   -0.000035637
      7       17          -0.002668937    0.003824275    0.001841996
      8        6          -0.036635359   -0.021466106   -0.009402592
      9        7          -0.000016133    0.000032861   -0.000035388
 -------------------------------------------------------------------
 Cartesian Forces:  Max     0.039243498 RMS     0.011907365
 Leave Link  716 at Wed Jan  8 01:32:02 2020, MaxMem=  4294967296 cpu:               0.9 elap:               0.1
 (Enter /home/cwagen/sw/g16/g16/l103.exe)

 GradGradGradGradGradGradGradGradGradGradGradGradGradGradGradGradGradGrad
 Berny optimization.
 Using GEDIIS/GDIIS optimizer.
 FormGI is forming the generalized inverse of G from B-inverse, IUseBI=4.
 Internal  Forces:  Max     0.043481521 RMS     0.007861109
 Search for a local minimum.
 Step number   8 out of a maximum of   41
 All quantities printed in internal units (Hartrees-Bohrs-Radians)
 RMS Force = .19756D-04 SwitMx=.10000D-02 MixMth= 2
 Mixed Optimization -- En-DIIS/RFO-DIIS
 Swapping is turned off.
 Update second derivatives using D2CorX and points    3    4    5    6    7
                                                      8
 DE= -2.62D-06 DEPred=-8.97D-07 R= 2.92D+00
 TightC=F SS=  1.41D+00  RLast= 1.34D-02 DXNew= 1.4270D+00 4.0197D-02
 Trust test= 2.92D+00 RLast= 1.34D-02 DXMaxT set to 8.49D-01
 ITU=  1  1  1  1  1  1  1  0
     Eigenvalues ---    0.00239   0.02697   0.04448   0.05046   0.05419
     Eigenvalues ---    0.05981   0.07648   0.15292   0.16082   0.16385
     Eigenvalues ---    0.21013   0.25188   0.26526   0.28132   0.33945
     Eigenvalues ---    0.34055   0.34454   0.93384   1.221641000.00000
     Eigenvalues --- 1000.000001000.000001000.000001000.000001000.00000
     Eigenvalues --- 1000.000001000.000001000.000001000.000001000.00000
     Eigenvalues --- 1000.00000
 En-DIIS/RFO-DIIS/Sim-DIIS IScMMF=       -3 using points:     8    7    6    5
 RFO step:  Lambda=-2.00708980D-06.
 NNeg= 0 NGDIIS= 4 SimSw=  2.50D-01 Rises=F DC= -2.62D-06 SmlDif=  1.00D-05
 NRisDI= 0 DoIntr=F SqrtH=F CThrHd= 10.0 CDAdj=  3.0
 RMS Error=  0.4637081459D-03 NUsed= 4 OKEnD=F EnDIS=F
 InvSVX:  RCond= 2.41D-07 Info=           0 Equed=N FErr=  1.08D-13 BErr=  5.08D-17
 DidBck=F Rises=F RFO-DIIS coefs:    1.35214   -0.43229    0.10178   -0.02163
 Iteration  1 RMS(Cart)=  0.00044819 RMS(Int)=  0.00000014
 Iteration  2 RMS(Cart)=  0.00000014 RMS(Int)=  0.00000002
 Iteration  1 RMS(Cart)=  0.00000000 RMS(Int)=  0.00000000
 ITry= 1 IFail=0 DXMaxC= 1.07D-03 DCOld= 1.00D+10 DXMaxT= 8.49D-01 DXLimC= 3.00D+00 Rises=F
 Variable       Old X    -DE/DX   Delta X   Delta X   Delta X     New X
                                 (Linear)    (Quad)   (Total)
    R1        2.25506   0.00004   0.00010  -0.00004   0.00006   2.25512
    R2        2.82403   0.00000   0.00021  -0.00018   0.00003   2.82405
    R3        4.91329   0.00501   0.00000   0.00000   0.00000   4.91329
    R4        3.40151  -0.04348   0.00000   0.00000   0.00000   3.40151
    R5        2.05774   0.00000   0.00007  -0.00008  -0.00001   2.05773
    R6        2.06608   0.00001  -0.00002   0.00004   0.00003   2.06611
    R7        2.07892  -0.00001  -0.00005   0.00003  -0.00003   2.07889
    R8        2.20395   0.00000   0.00002  -0.00001   0.00000   2.20395
    A1        2.27172  -0.00003  -0.00022   0.00002  -0.00020   2.27152
    A2        1.84204   0.00003   0.00011   0.00019   0.00030   1.84233
    A3        2.02074   0.00006   0.00025   0.00002   0.00027   2.02101
    A4        1.64480  -0.00001   0.00013  -0.00006   0.00007   1.64487
    A5        1.91331  -0.00004  -0.00011  -0.00007  -0.00018   1.91313
    A6        1.55753   0.00000  -0.00006  -0.00010  -0.00016   1.55737
    A7        1.95024   0.00001   0.00019  -0.00013   0.00006   1.95030
    A8        1.90802   0.00001   0.00015  -0.00011   0.00004   1.90805
    A9        1.86415  -0.00002  -0.00028   0.00015  -0.00013   1.86402
   A10        1.92829  -0.00002  -0.00031   0.00004  -0.00027   1.92802
   A11        1.90748   0.00002   0.00026   0.00002   0.00028   1.90776
   A12        1.90414   0.00000  -0.00001   0.00003   0.00002   1.90416
   A13        3.12982  -0.00001  -0.00015  -0.00032  -0.00047   3.12934
   A14        3.00031  -0.00002  -0.00015  -0.00018  -0.00034   2.99998
    D1       -2.86670   0.00000  -0.00075  -0.00005  -0.00080  -2.86750
    D2       -0.72663  -0.00001  -0.00091  -0.00016  -0.00107  -0.72771
    D3        1.33132  -0.00002  -0.00101  -0.00009  -0.00110   1.33022
    D4       -0.86895   0.00002  -0.00058   0.00017  -0.00042  -0.86937
    D5        1.27112   0.00000  -0.00074   0.00005  -0.00069   1.27043
    D6       -2.95411   0.00000  -0.00084   0.00012  -0.00072  -2.95483
    D7        0.71416   0.00001  -0.00061   0.00003  -0.00057   0.71358
    D8        2.85423   0.00000  -0.00077  -0.00008  -0.00085   2.85338
    D9       -1.37100  -0.00001  -0.00086  -0.00001  -0.00087  -1.37188
         Item               Value     Threshold  Converged?
 Maximum Force            0.000060     0.000450     YES
 RMS     Force            0.000020     0.000300     YES
 Maximum Displacement     0.001072     0.001800     YES
 RMS     Displacement     0.000448     0.001200     YES
 Predicted change in Energy=-4.534251D-08
 Optimization completed.
    -- Stationary point found.
                           ----------------------------
                           !   Optimized Parameters   !
                           ! (Angstroms and Degrees)  !
 --------------------------                            --------------------------
 ! Name  Definition              Value          Derivative Info.                !
 --------------------------------------------------------------------------------
 ! R1    R(1,2)                  1.1933         -DE/DX =    0.0                 !
 ! R2    R(1,3)                  1.4944         -DE/DX =    0.0                 !
 ! R3    R(1,7)                  2.6            -DE/DX =    0.005               !
 ! R4    R(1,8)                  1.8            -DE/DX =   -0.0435              !
 ! R5    R(3,4)                  1.0889         -DE/DX =    0.0                 !
 ! R6    R(3,5)                  1.0933         -DE/DX =    0.0                 !
 ! R7    R(3,6)                  1.1001         -DE/DX =    0.0                 !
 ! R8    R(8,9)                  1.1663         -DE/DX =    0.0                 !
 ! A1    A(2,1,3)              130.1598         -DE/DX =    0.0                 !
 ! A2    A(2,1,7)              105.5408         -DE/DX =    0.0                 !
 ! A3    A(2,1,8)              115.7797         -DE/DX =    0.0001              !
 ! A4    A(3,1,7)               94.2402         -DE/DX =    0.0                 !
 ! A5    A(3,1,8)              109.6247         -DE/DX =    0.0                 !
 ! A6    A(7,1,8)               89.2399         -DE/DX =    0.0                 !
 ! A7    A(1,3,4)              111.7406         -DE/DX =    0.0                 !
 ! A8    A(1,3,5)              109.3214         -DE/DX =    0.0                 !
 ! A9    A(1,3,6)              106.8078         -DE/DX =    0.0                 !
 ! A10   A(4,3,5)              110.4827         -DE/DX =    0.0                 !
 ! A11   A(4,3,6)              109.2906         -DE/DX =    0.0                 !
 ! A12   A(5,3,6)              109.0992         -DE/DX =    0.0                 !
 ! A13   L(1,8,9,6,-1)         179.3253         -DE/DX =    0.0                 !
 ! A14   L(1,8,9,6,-2)         171.9053         -DE/DX =    0.0                 !
 ! D1    D(2,1,3,4)           -164.2499         -DE/DX =    0.0                 !
 ! D2    D(2,1,3,5)            -41.633          -DE/DX =    0.0                 !
 ! D3    D(2,1,3,6)             76.279          -DE/DX =    0.0                 !
 ! D4    D(7,1,3,4)            -49.7873         -DE/DX =    0.0                 !
 ! D5    D(7,1,3,5)             72.8296         -DE/DX =    0.0                 !
 ! D6    D(7,1,3,6)           -169.2583         -DE/DX =    0.0                 !
 ! D7    D(8,1,3,4)             40.9183         -DE/DX =    0.0                 !
 ! D8    D(8,1,3,5)            163.5351         -DE/DX =    0.0                 !
 ! D9    D(8,1,3,6)            -78.5528         -DE/DX =    0.0                 !
 --------------------------------------------------------------------------------
 Lowest energy point so far.  Saving SCF results.
 Largest change from initial coordinates is atom    6       0.134 Angstoms.
 GradGradGradGradGradGradGradGradGradGradGradGradGradGradGradGradGradGrad

 Leave Link  103 at Wed Jan  8 01:32:02 2020, MaxMem=  4294967296 cpu:               4.2 elap:               0.3
 (Enter /home/cwagen/sw/g16/g16/l202.exe)
                          Input orientation:                          
 ---------------------------------------------------------------------
 Center     Atomic      Atomic             Coordinates (Angstroms)
 Number     Number       Type             X           Y           Z
 ---------------------------------------------------------------------
      1          6           0       -0.038477   -0.551634   -0.333899
      2          8           0       -0.317458   -0.618390   -1.492233
      3          6           0       -0.389811   -1.464158    0.796200
      4          1           0       -0.221844   -0.992077    1.762973
      5          1           0       -1.433285   -1.775613    0.698664
      6          1           0        0.259511   -2.347556    0.705408
      7         17           0       -1.412875    1.448310    0.599510
      8          6           0        1.476596    0.338437    0.056395
      9          7           0        2.505822    0.861695    0.221031
 ---------------------------------------------------------------------
                    Distance matrix (angstroms):
                    1          2          3          4          5
     1  C    0.000000
     2  O    1.193325   0.000000
     3  C    1.494410   2.440796   0.000000
     4  H    2.150462   3.277980   1.088909   0.000000
     5  H    2.123630   2.717401   1.093323   1.792839   0.000000
     6  H    2.096257   2.855264   1.100115   1.785349   1.786819
     7  Cl   2.600000   3.137926   3.093190   2.954267   3.225513
     8  C    1.800000   2.555855   2.698173   2.750887   3.653645
     9  N    2.962921   3.618955   3.758338   3.640635   4.764461
                    6          7          8          9
     6  H    0.000000
     7  Cl   4.149300   0.000000
     8  C    3.019449   3.142584   0.000000
     9  N    3.947129   3.980395   1.166281   0.000000
 Stoichiometry    C3H3ClNO(1-)
 Framework group  C1[X(C3H3ClNO)]
 Deg. of freedom    21
 Full point group                 C1      NOp   1
 RotChk:  IX=0 Diff= 7.08D-16
 Largest Abelian subgroup         C1      NOp   1
 Largest concise Abelian subgroup C1      NOp   1
                         Standard orientation:                         
 ---------------------------------------------------------------------
 Center     Atomic      Atomic             Coordinates (Angstroms)
 Number     Number       Type             X           Y           Z
 ---------------------------------------------------------------------
      1          6           0        0.351384    0.769937    0.222278
      2          8           0        0.317602    1.188622    1.339232
      3          6           0        0.108993    1.468281   -1.076500
      4          1           0       -0.053799    0.762590   -1.889655
      5          1           0       -0.749577    2.137208   -0.972819
      6          1           0        1.007668    2.066283   -1.288705
      7         17           0       -1.723115   -0.781049   -0.003320
      8          6           0        1.416657   -0.655694   -0.047480
      9          7           0        2.183662   -1.527481   -0.156575
 ---------------------------------------------------------------------
 Rotational constants (GHZ):           2.9122208           2.0331558           1.5600746
 Leave Link  202 at Wed Jan  8 01:32:02 2020, MaxMem=  4294967296 cpu:               1.3 elap:               0.1
 (Enter /home/cwagen/sw/g16/g16/l601.exe)
 Copying SCF densities to generalized density rwf, IOpCl= 0 IROHF=0.

 **********************************************************************

            Population analysis using the SCF density.

 **********************************************************************

 Orbital symmetries:
       Occupied  (A) (A) (A) (A) (A) (A) (A) (A) (A) (A) (A) (A)
                 (A) (A) (A) (A) (A) (A) (A) (A) (A) (A) (A) (A)
                 (A) (A) (A)
       Virtual   (A) (A) (A) (A) (A) (A) (A) (A) (A) (A) (A) (A)
                 (A) (A) (A) (A) (A) (A) (A) (A) (A) (A) (A) (A)
                 (A) (A) (A) (A) (A) (A) (A) (A) (A) (A) (A) (A)
                 (A) (A) (A) (A) (A) (A) (A) (A) (A) (A) (A) (A)
                 (A) (A) (A) (A) (A) (A) (A) (A) (A) (A) (A) (A)
                 (A) (A) (A) (A) (A) (A) (A) (A) (A) (A) (A) (A)
                 (A) (A) (A) (A) (A) (A) (A) (A) (A) (A) (A) (A)
                 (A) (A) (A) (A) (A) (A) (A) (A) (A) (A) (A) (A)
                 (A)
 The electronic state is 1-A.
 Alpha  occ. eigenvalues -- -101.42659 -19.16250 -14.32301 -10.32756 -10.21297
 Alpha  occ. eigenvalues --  -10.18657  -9.34070  -7.09955  -7.09788  -7.09779
 Alpha  occ. eigenvalues --   -1.06817  -0.88369  -0.74928  -0.68197  -0.56603
 Alpha  occ. eigenvalues --   -0.48399  -0.44499  -0.44155  -0.39551  -0.36860
 Alpha  occ. eigenvalues --   -0.36528  -0.32427  -0.32291  -0.27677  -0.22554
 Alpha  occ. eigenvalues --   -0.22223  -0.22185
 Alpha virt. eigenvalues --   -0.02649   0.02021   0.03096   0.04215   0.05344
 Alpha virt. eigenvalues --    0.06725   0.06821   0.08303   0.09426   0.09797
 Alpha virt. eigenvalues --    0.10438   0.10625   0.11076   0.13157   0.13683
 Alpha virt. eigenvalues --    0.14161   0.14448   0.17237   0.17336   0.21147
 Alpha virt. eigenvalues --    0.23398   0.24425   0.25026   0.25280   0.26577
 Alpha virt. eigenvalues --    0.28383   0.28967   0.31039   0.32739   0.35137
 Alpha virt. eigenvalues --    0.37667   0.41419   0.47399   0.62306   0.63548
 Alpha virt. eigenvalues --    0.64903   0.66183   0.69198   0.70484   0.72339
 Alpha virt. eigenvalues --    0.75282   0.78546   0.79890   0.80293   0.81156
 Alpha virt. eigenvalues --    0.82789   0.89345   0.94253   0.97598   0.98383
 Alpha virt. eigenvalues --    0.98860   0.99551   1.01791   1.01991   1.03559
 Alpha virt. eigenvalues --    1.04790   1.09297   1.14706   1.17283   1.27867
 Alpha virt. eigenvalues --    1.30116   1.33515   1.34505   1.38219   1.44779
 Alpha virt. eigenvalues --    1.49704   1.55336   1.56214   1.59031   1.63218
 Alpha virt. eigenvalues --    1.67587   1.69402   1.80382   1.84624   1.88881
 Alpha virt. eigenvalues --    1.93750   1.98009   1.98991   2.05908   2.14873
 Alpha virt. eigenvalues --    2.24499   2.27369   2.40208   2.50358   2.58208
 Alpha virt. eigenvalues --    2.64504   2.74142   2.78264   2.90074   3.13665
 Alpha virt. eigenvalues --    3.15527   4.11251   4.16741   4.30215   4.36884
 Alpha virt. eigenvalues --    4.42081   4.54334
          Condensed to atoms (all electrons):
               1          2          3          4          5          6
     1  C    5.709226   0.596869  -0.006917  -0.093551  -0.085682   0.022423
     2  O    0.596869   8.021794  -0.109341   0.007874   0.001643  -0.006735
     3  C   -0.006917  -0.109341   5.851566   0.401326   0.394248   0.333070
     4  H   -0.093551   0.007874   0.401326   0.443839  -0.019395  -0.025075
     5  H   -0.085682   0.001643   0.394248  -0.019395   0.449829  -0.023313
     6  H    0.022423  -0.006735   0.333070  -0.025075  -0.023313   0.466485
     7  Cl   0.235448  -0.069954  -0.126047  -0.002009  -0.005769   0.005154
     8  C   -0.716660  -0.127087  -0.076642   0.024701   0.029426  -0.028362
     9  N   -0.028114  -0.002143  -0.011190   0.000397  -0.000029  -0.000814
               7          8          9
     1  C    0.235448  -0.716660  -0.028114
     2  O   -0.069954  -0.127087  -0.002143
     3  C   -0.126047  -0.076642  -0.011190
     4  H   -0.002009   0.024701   0.000397
     5  H   -0.005769   0.029426  -0.000029
     6  H    0.005154  -0.028362  -0.000814
     7  Cl  17.841696  -0.082853  -0.018532
     8  C   -0.082853   6.180270   0.602076
     9  N   -0.018532   0.602076   7.058419
 Mulliken charges:
               1
     1  C    0.366959
     2  O   -0.312919
     3  C   -0.650072
     4  H    0.261894
     5  H    0.259043
     6  H    0.257168
     7  Cl  -0.777134
     8  C    0.195131
     9  N   -0.600070
 Sum of Mulliken charges =  -1.00000
 Mulliken charges with hydrogens summed into heavy atoms:
               1
     1  C    0.366959
     2  O   -0.312919
     3  C    0.128033
     7  Cl  -0.777134
     8  C    0.195131
     9  N   -0.600070
 Electronic spatial extent (au):  <R**2>=            817.7310
 Charge=             -1.0000 electrons
 Dipole moment (field-independent basis, Debye):
    X=              2.7296    Y=              6.7861    Z=             -2.7896  Tot=              7.8284
 Quadrupole moment (field-independent basis, Debye-Ang):
   XX=            -68.4732   YY=            -53.6697   ZZ=            -48.0657
   XY=              2.2504   XZ=              0.0699   YZ=             -5.1206
 Traceless Quadrupole moment (field-independent basis, Debye-Ang):
   XX=            -11.7370   YY=              3.0665   ZZ=              8.6705
   XY=              2.2504   XZ=              0.0699   YZ=             -5.1206
 Octapole moment (field-independent basis, Debye-Ang**2):
  XXX=              1.2534  YYY=             27.9654  ZZZ=             -4.0616  XYY=             -8.0540
  XXY=             34.9197  XXZ=              2.7721  XZZ=              0.7336  YZZ=              1.6902
  YYZ=             -4.2089  XYZ=             -2.7619
 Hexadecapole moment (field-independent basis, Debye-Ang**3):
 XXXX=           -717.4887 YYYY=           -413.2778 ZZZZ=           -187.9033 XXXY=             33.4012
 XXXZ=              6.6945 YYYX=             21.9116 YYYZ=            -10.0451 ZZZX=              0.3316
 ZZZY=             -4.5383 XXYY=           -205.1696 XXZZ=           -134.9840 YYZZ=           -101.2726
 XXYZ=             -4.8628 YYXZ=              1.5441 ZZXY=             -0.2672
 N-N= 2.390447737623D+02 E-N=-2.156289407950D+03  KE= 7.024269384526D+02
 No NMR shielding tensors so no spin-rotation constants.
 Leave Link  601 at Wed Jan  8 01:32:03 2020, MaxMem=  4294967296 cpu:              12.3 elap:               0.9
 (Enter /home/cwagen/sw/g16/g16/l9999.exe)
 1\1\GINC-NODE006\FOpt\RB3LYP\6-31+G(d)\C3H3Cl1N1O1(1-)\CWAGEN\08-Jan-2
 020\0\\#p opt=modredundant b3lyp/6-31+g(d) scrf=(smd, solvent=tetrahyd
 rofuran)\\title\\-1,1\C,-0.0384767753,-0.5516338217,-0.3338992013\O,-0
 .3174577414,-0.6183900854,-1.4922332448\C,-0.3898109176,-1.464158418,0
 .7962002734\H,-0.2218443602,-0.9920772801,1.7629732221\H,-1.4332847676
 ,-1.7756134268,0.6986643914\H,0.259511312,-2.3475558748,0.7054078577\C
 l,-1.4128751925,1.4483104718,0.5995095057\C,1.47659554,0.3384373048,0.
 0563946178\N,2.5058216527,0.8616953102,0.2210310179\\Version=AS64L-G16
 RevA.03\State=1-A\HF=-706.4317849\RMSD=4.711e-09\RMSF=1.191e-02\Dipole
 =0.1714277,-3.0641589,0.2598904\Quadrupole=-8.6022884,4.335571,4.26671
 74,1.9368458,0.5429292,-4.3814932\PG=C01 [X(C3H3Cl1N1O1)]\\@


 I DO NOT DEFINE TIME, SPACE, PLACE, AND MOTION, AS BEING WELL KNOWN TO ALL.
                                            -- NEWTON (1642-1726), PRINCIPIA
 Job cpu time:       0 days  1 hours 11 minutes 16.5 seconds.
 Elapsed time:       0 days  0 hours  5 minutes 13.0 seconds.
 File lengths (MBytes):  RWF=     37 Int=      0 D2E=      0 Chk=      3 Scr=      1
 Normal termination of Gaussian 16 at Wed Jan  8 01:32:03 2020.
