 Entering Gaussian System, Link 0=g16
 Input=scan_270_120.gjf
 Output=scan_270_120.out
 Initial command:
 /home/cwagen/sw/g16/g16/l1.exe "/scratch/users/cwagen/cwagen_scan_270_120/Gau-17078.inp" -scrdir="/scratch/users/cwagen/cwagen_scan_270_120/"
 Entering Link 1 = /home/cwagen/sw/g16/g16/l1.exe PID=     17079.
  
 Copyright (c) 1988,1990,1992,1993,1995,1998,2003,2009,2016,
            Gaussian, Inc.  All Rights Reserved.
  
 This is part of the Gaussian(R) 16 program.  It is based on
 the Gaussian(R) 09 system (copyright 2009, Gaussian, Inc.),
 the Gaussian(R) 03 system (copyright 2003, Gaussian, Inc.),
 the Gaussian(R) 98 system (copyright 1998, Gaussian, Inc.),
 the Gaussian(R) 94 system (copyright 1995, Gaussian, Inc.),
 the Gaussian 92(TM) system (copyright 1992, Gaussian, Inc.),
 the Gaussian 90(TM) system (copyright 1990, Gaussian, Inc.),
 the Gaussian 88(TM) system (copyright 1988, Gaussian, Inc.),
 the Gaussian 86(TM) system (copyright 1986, Carnegie Mellon
 University), and the Gaussian 82(TM) system (copyright 1983,
 Carnegie Mellon University). Gaussian is a federally registered
 trademark of Gaussian, Inc.
  
 This software contains proprietary and confidential information,
 including trade secrets, belonging to Gaussian, Inc.
  
 This software is provided under written license and may be
 used, copied, transmitted, or stored only in accord with that
 written license.
  
 The following legend is applicable only to US Government
 contracts under FAR:
  
                    RESTRICTED RIGHTS LEGEND
  
 Use, reproduction and disclosure by the US Government is
 subject to restrictions as set forth in subparagraphs (a)
 and (c) of the Commercial Computer Software - Restricted
 Rights clause in FAR 52.227-19.
  
 Gaussian, Inc.
 340 Quinnipiac St., Bldg. 40, Wallingford CT 06492
  
  
 ---------------------------------------------------------------
 Warning -- This program may not be used in any manner that
 competes with the business of Gaussian, Inc. or will provide
 assistance to any competitor of Gaussian, Inc.  The licensee
 of this program is prohibited from giving any competitor of
 Gaussian, Inc. access to this program.  By using this program,
 the user acknowledges that Gaussian, Inc. is engaged in the
 business of creating and licensing software in the field of
 computational chemistry and represents and warrants to the
 licensee that it is not a competitor of Gaussian, Inc. and that
 it will not use this program in any manner prohibited above.
 ---------------------------------------------------------------
  

 Cite this work as:
 Gaussian 16, Revision A.03,
 M. J. Frisch, G. W. Trucks, H. B. Schlegel, G. E. Scuseria, 
 M. A. Robb, J. R. Cheeseman, G. Scalmani, V. Barone, 
 G. A. Petersson, H. Nakatsuji, X. Li, M. Caricato, A. V. Marenich, 
 J. Bloino, B. G. Janesko, R. Gomperts, B. Mennucci, H. P. Hratchian, 
 J. V. Ortiz, A. F. Izmaylov, J. L. Sonnenberg, D. Williams-Young, 
 F. Ding, F. Lipparini, F. Egidi, J. Goings, B. Peng, A. Petrone, 
 T. Henderson, D. Ranasinghe, V. G. Zakrzewski, J. Gao, N. Rega, 
 G. Zheng, W. Liang, M. Hada, M. Ehara, K. Toyota, R. Fukuda, 
 J. Hasegawa, M. Ishida, T. Nakajima, Y. Honda, O. Kitao, H. Nakai, 
 T. Vreven, K. Throssell, J. A. Montgomery, Jr., J. E. Peralta, 
 F. Ogliaro, M. J. Bearpark, J. J. Heyd, E. N. Brothers, K. N. Kudin, 
 V. N. Staroverov, T. A. Keith, R. Kobayashi, J. Normand, 
 K. Raghavachari, A. P. Rendell, J. C. Burant, S. S. Iyengar, 
 J. Tomasi, M. Cossi, J. M. Millam, M. Klene, C. Adamo, R. Cammi, 
 J. W. Ochterski, R. L. Martin, K. Morokuma, O. Farkas, 
 J. B. Foresman, and D. J. Fox, Gaussian, Inc., Wallingford CT, 2016.
 
 ******************************************
 Gaussian 16:  AS64L-G16RevA.03 25-Dec-2016
                 8-Jan-2020 
 ******************************************
 %nprocshared=16
 Will use up to   16 processors via shared memory.
 %mem=32GB
 ----------------------------------------------------------------------
 #p opt=modredundant b3lyp/6-31+g(d) scrf=(smd, solvent=tetrahydrofuran
 )
 ----------------------------------------------------------------------
 1/18=120,19=15,26=3,38=1/1,3;
 2/9=110,12=2,17=6,18=5,40=1/2;
 3/5=1,6=6,7=11,11=2,25=1,30=1,70=32201,71=1,72=20,74=-5/1,2,3;
 4//1;
 5/5=2,38=5,53=20/2;
 6/7=2,8=2,9=2,10=2,28=1/1;
 7//1,2,3,16;
 1/18=20,19=15,26=3/3(2);
 2/9=110/2;
 99//99;
 2/9=110/2;
 3/5=1,6=6,7=11,11=2,25=1,30=1,70=32205,71=1,72=20,74=-5/1,2,3;
 4/5=5,16=3,69=1/1;
 5/5=2,38=5,53=20/2;
 7//1,2,3,16;
 1/18=20,19=15,26=3/3(-5);
 2/9=110/2;
 6/7=2,8=2,9=2,10=2,19=2,28=1/1;
 99/9=1/99;
 Leave Link    1 at Wed Jan  8 01:32:14 2020, MaxMem=  4294967296 cpu:               1.9 elap:               0.2
 (Enter /home/cwagen/sw/g16/g16/l101.exe)
 -----
 title
 -----
 Symbolic Z-matrix:
 Charge = -1 Multiplicity = 1
 6                    -0.19426  -0.292    -0.21291 
 8                    -0.25532  -0.66526  -1.45426 
 6                    -0.33095  -1.45422   0.81632 
 1                    -0.18039  -1.13044   1.85373 
 1                    -1.34067  -1.87301   0.71427 
 1                     0.39707  -2.23395   0.57058 
 17                   -1.81086   1.75879   0.4733 
 6                     0.91828   0.09759   0.01174 
 7                     2.05285   0.37788   0.04204 
 
 Add virtual bond connecting atoms Cl7        and C1         Dist= 5.10D+00.
 The following ModRedundant input section has been read:
 B       1       7 F                                                           
 B       1       8 F                                                           
 
 ITRead=  0  0  0  0  0  0  0  0  0
 MicOpt= -1 -1 -1 -1 -1 -1 -1 -1 -1
 NAtoms=      9 NQM=        9 NQMF=       0 NMMI=      0 NMMIF=      0
                NMic=       0 NMicF=      0.
                    Isotopes and Nuclear Properties:
 (Nuclear quadrupole moments (NQMom) in fm**2, nuclear magnetic moments (NMagM)
  in nuclear magnetons)

  Atom         1           2           3           4           5           6           7           8           9
 IAtWgt=          12          16          12           1           1           1          35          12          14
 AtmWgt=  12.0000000  15.9949146  12.0000000   1.0078250   1.0078250   1.0078250  34.9688527  12.0000000  14.0030740
 NucSpn=           0           0           0           1           1           1           3           0           2
 AtZEff=   0.0000000   0.0000000   0.0000000   0.0000000   0.0000000   0.0000000   0.0000000   0.0000000   0.0000000
 NQMom=    0.0000000   0.0000000   0.0000000   0.0000000   0.0000000   0.0000000  -8.1650000   0.0000000   2.0440000
 NMagM=    0.0000000   0.0000000   0.0000000   2.7928460   2.7928460   2.7928460   0.8218740   0.0000000   0.4037610
 AtZNuc=   6.0000000   8.0000000   6.0000000   1.0000000   1.0000000   1.0000000  17.0000000   6.0000000   7.0000000
 Leave Link  101 at Wed Jan  8 01:32:14 2020, MaxMem=  4294967296 cpu:               8.4 elap:               0.6
 (Enter /home/cwagen/sw/g16/g16/l103.exe)

 GradGradGradGradGradGradGradGradGradGradGradGradGradGradGradGradGradGrad
 Berny optimization.
 Initialization pass.
                           ----------------------------
                           !    Initial Parameters    !
                           ! (Angstroms and Degrees)  !
 --------------------------                            --------------------------
 ! Name  Definition              Value          Derivative Info.                !
 --------------------------------------------------------------------------------
 ! R1    R(1,2)                  1.2977         estimate D2E/DX2                !
 ! R2    R(1,3)                  1.5584         estimate D2E/DX2                !
 ! R3    R(1,7)                  2.7            Frozen                          !
 ! R4    R(1,8)                  1.2            Frozen                          !
 ! R5    R(3,4)                  1.0971         estimate D2E/DX2                !
 ! R6    R(3,5)                  1.0979         estimate D2E/DX2                !
 ! R7    R(3,6)                  1.0947         estimate D2E/DX2                !
 ! R8    R(8,9)                  1.1691         estimate D2E/DX2                !
 ! A1    A(2,1,3)              114.4006         estimate D2E/DX2                !
 ! A2    A(2,1,7)              115.6846         estimate D2E/DX2                !
 ! A3    A(2,1,8)              108.426          estimate D2E/DX2                !
 ! A4    A(3,1,7)              110.248          estimate D2E/DX2                !
 ! A5    A(3,1,8)              101.5248         estimate D2E/DX2                !
 ! A6    A(7,1,8)              105.1256         estimate D2E/DX2                !
 ! A7    A(1,3,4)              113.1005         estimate D2E/DX2                !
 ! A8    A(1,3,5)              107.683          estimate D2E/DX2                !
 ! A9    A(1,3,6)              108.9421         estimate D2E/DX2                !
 ! A10   A(4,3,5)              109.0662         estimate D2E/DX2                !
 ! A11   A(4,3,6)              109.3417         estimate D2E/DX2                !
 ! A12   A(5,3,6)              108.6067         estimate D2E/DX2                !
 ! A13   L(1,8,9,6,-1)         177.7776         estimate D2E/DX2                !
 ! A14   L(1,8,9,6,-2)         168.2463         estimate D2E/DX2                !
 ! D1    D(2,1,3,4)            174.4714         estimate D2E/DX2                !
 ! D2    D(2,1,3,5)            -64.9488         estimate D2E/DX2                !
 ! D3    D(2,1,3,6)             52.6633         estimate D2E/DX2                !
 ! D4    D(7,1,3,4)            -53.1046         estimate D2E/DX2                !
 ! D5    D(7,1,3,5)             67.4752         estimate D2E/DX2                !
 ! D6    D(7,1,3,6)           -174.9127         estimate D2E/DX2                !
 ! D7    D(8,1,3,4)             57.938          estimate D2E/DX2                !
 ! D8    D(8,1,3,5)            178.5177         estimate D2E/DX2                !
 ! D9    D(8,1,3,6)            -63.8702         estimate D2E/DX2                !
 --------------------------------------------------------------------------------
 Trust Radius=3.00D-01 FncErr=1.00D-07 GrdErr=1.00D-06 EigMax=2.50D+02 EigMin=1.00D-04
 Number of steps in this run=     41 maximum allowed number of steps=    100.
 GradGradGradGradGradGradGradGradGradGradGradGradGradGradGradGradGradGrad

 Leave Link  103 at Wed Jan  8 01:32:14 2020, MaxMem=  4294967296 cpu:               1.0 elap:               0.1
 (Enter /home/cwagen/sw/g16/g16/l202.exe)
                          Input orientation:                          
 ---------------------------------------------------------------------
 Center     Atomic      Atomic             Coordinates (Angstroms)
 Number     Number       Type             X           Y           Z
 ---------------------------------------------------------------------
      1          6           0       -0.194263   -0.291999   -0.212908
      2          8           0       -0.255321   -0.665256   -1.454255
      3          6           0       -0.330945   -1.454221    0.816316
      4          1           0       -0.180394   -1.130438    1.853734
      5          1           0       -1.340665   -1.873010    0.714272
      6          1           0        0.397068   -2.233949    0.570583
      7         17           0       -1.810859    1.758790    0.473300
      8          6           0        0.918283    0.097585    0.011737
      9          7           0        2.052854    0.377883    0.042040
 ---------------------------------------------------------------------
                    Distance matrix (angstroms):
                    1          2          3          4          5
     1  C    0.000000
     2  O    1.297687   0.000000
     3  C    1.558443   2.404928   0.000000
     4  H    2.230287   3.341377   1.097150   0.000000
     5  H    2.161827   2.709087   1.097876   1.787740   0.000000
     6  H    2.175937   2.643176   1.094698   1.788205   1.780629
     7  Cl   2.700000   3.465713   3.554046   3.593279   3.670030
     8  C    1.200000   2.026920   2.148493   2.471454   3.078904
     9  N    2.358660   2.941889   3.104611   3.247255   4.127274
                    6          7          8          9
     6  H    0.000000
     7  Cl   4.563592   0.000000
     8  C    2.453574   3.228136   0.000000
     9  N    3.137300   4.125672   1.169075   0.000000
 Stoichiometry    C3H3ClNO(1-)
 Framework group  C1[X(C3H3ClNO)]
 Deg. of freedom    21
 Full point group                 C1      NOp   1
 Largest Abelian subgroup         C1      NOp   1
 Largest concise Abelian subgroup C1      NOp   1
                         Standard orientation:                         
 ---------------------------------------------------------------------
 Center     Atomic      Atomic             Coordinates (Angstroms)
 Number     Number       Type             X           Y           Z
 ---------------------------------------------------------------------
      1          6           0       -0.479063   -0.300183    0.215037
      2          8           0       -0.877041   -0.579743    1.418137
      3          6           0       -0.960023   -1.307448   -0.872548
      4          1           0       -0.693996   -1.000141   -1.891630
      5          1           0       -0.494148   -2.278042   -0.657513
      6          1           0       -2.046679   -1.417671   -0.799113
      7         17           0        2.163122    0.182108   -0.061106
      8          6           0       -1.020495    0.710770   -0.138270
      9          7           0       -1.680635    1.659876   -0.311908
 ---------------------------------------------------------------------
 Rotational constants (GHZ):           3.9239912           1.7184775           1.5407083
 Leave Link  202 at Wed Jan  8 01:32:14 2020, MaxMem=  4294967296 cpu:               1.3 elap:               0.1
 (Enter /home/cwagen/sw/g16/g16/l301.exe)
 Standard basis: 6-31+G(d) (6D, 7F)
 Ernie: Thresh=  0.10000D-02 Tol=  0.10000D-05 Strict=F.
 There are   124 symmetry adapted cartesian basis functions of A   symmetry.
 There are   124 symmetry adapted basis functions of A   symmetry.
   124 basis functions,   228 primitive gaussians,   124 cartesian basis functions
    27 alpha electrons       27 beta electrons
       nuclear repulsion energy       245.3405057626 Hartrees.
 IExCor=  402 DFT=T Ex+Corr=B3LYP ExCW=0 ScaHFX=  0.200000
 ScaDFX=  0.800000  0.720000  1.000000  0.810000 ScalE2=  1.000000  1.000000
 IRadAn=      5 IRanWt=     -1 IRanGd=            0 ICorTp=0 IEmpDi=  4
 NAtoms=    9 NActive=    9 NUniq=    9 SFac= 1.00D+00 NAtFMM=   60 NAOKFM=F Big=F
 Integral buffers will be    131072 words long.
 Raffenetti 2 integral format.
 Two-electron integral symmetry is turned on.
 ------------------------------------------------------------------------------
 Polarizable Continuum Model (PCM)
 =================================
 Model                : PCM.
 Atomic radii         : SMD-Coulomb.
 Polarization charges : Total charges.
 Charge compensation  : None.
 Solution method      : On-the-fly selection.
 Cavity type          : VdW (van der Waals Surface) (Alpha=1.000).
 Cavity algorithm     : GePol (No added spheres)
                        Default sphere list used, NSphG=    9.
                        Lebedev-Laikov grids with approx.  5.0 points / Ang**2.
                        Smoothing algorithm: York/Karplus (Gamma=1.0000).
                        Polarization charges: spherical gaussians, with
                                              point-specific exponents (IZeta= 3).
                        Self-potential: point-specific (ISelfS= 7).
                        Self-field    : sphere-specific E.n sum rule (ISelfD= 2).
 1st derivatives      : Analytical E(r).r(x)/FMM algorithm (CHGder, D1EAlg=3).
                        Cavity 1st derivative terms included.
 Solvent              : TetraHydroFuran, Eps=   7.425700 Eps(inf)=   1.974025
 ------------------------------------------------------------------------------
 Spheres list:
 ISph  on   Nord     Re0    Alpha      Xe            Ye            Ze
    1   C      1    1.8500  1.000     -0.479063     -0.300183      0.215037
    2   O      2    2.2940  1.000     -0.877041     -0.579743      1.418137
    3   C      3    1.8500  1.000     -0.960023     -1.307448     -0.872548
    4   H      4    1.2000  1.000     -0.693996     -1.000141     -1.891630
    5   H      5    1.2000  1.000     -0.494148     -2.278042     -0.657513
    6   H      6    1.2000  1.000     -2.046679     -1.417671     -0.799113
    7  Cl      7    2.3800  1.000      2.163122      0.182108     -0.061106
    8   C      8    1.8500  1.000     -1.020495      0.710770     -0.138270
    9   N      9    1.8900  1.000     -1.680635      1.659876     -0.311908
 ------------------------------------------------------------------------------
 GePol: Number of generator spheres                  =       9
 GePol: Total number of spheres                      =       9
 GePol: Number of exposed spheres                    =       9 (100.00%)
 GePol: Number of points                             =    1176
 GePol: Average weight of points                     =       0.14
 GePol: Minimum weight of points                     =   0.73D-11
 GePol: Maximum weight of points                     =    0.18138
 GePol: Number of points with low weight             =      30
 GePol: Fraction of low-weight points (<1% of avg)   =       2.55%
 GePol: Cavity surface area                          =    162.479 Ang**2
 GePol: Cavity volume                                =    147.362 Ang**3
 ------------------------------------------------------------------------------
 Atomic radii for non-electrostatic terms: SMD-CDS.
 ------------------------------------------------------------------------------
 PCM non-electrostatic energy =        -0.0013595123 Hartrees.
 Nuclear repulsion after PCM non-electrostatic terms =      245.3391462503 Hartrees.
 Leave Link  301 at Wed Jan  8 01:32:15 2020, MaxMem=  4294967296 cpu:               2.4 elap:               0.2
 (Enter /home/cwagen/sw/g16/g16/l302.exe)
 NPDir=0 NMtPBC=     1 NCelOv=     1 NCel=       1 NClECP=     1 NCelD=      1
         NCelK=      1 NCelE2=     1 NClLst=     1 CellRange=     0.0.
 One-electron integrals computed using PRISM.
 One-electron integral symmetry used in STVInt
 NBasis=   124 RedAO= T EigKep=  1.62D-05  NBF=   124
 NBsUse=   124 1.00D-06 EigRej= -1.00D+00 NBFU=   124
 Precomputing XC quadrature grid using
 IXCGrd= 4 IRadAn=           5 IRanWt=          -1 IRanGd=           0 AccXCQ= 0.00D+00.
 Generated NRdTot=       0 NPtTot=           0 NUsed=           0 NTot=          32
 NSgBfM=   124   124   124   124   124 MxSgAt=     9 MxSgA2=     9.
 Leave Link  302 at Wed Jan  8 01:32:16 2020, MaxMem=  4294967296 cpu:              23.1 elap:               1.6
 (Enter /home/cwagen/sw/g16/g16/l303.exe)
 DipDrv:  MaxL=1.
 Leave Link  303 at Wed Jan  8 01:32:17 2020, MaxMem=  4294967296 cpu:               3.4 elap:               0.3
 (Enter /home/cwagen/sw/g16/g16/l401.exe)
 ExpMin= 4.38D-02 ExpMax= 2.52D+04 ExpMxC= 3.78D+03 IAcc=3 IRadAn=         5 AccDes= 0.00D+00
 Harris functional with IExCor=  402 and IRadAn=       5 diagonalized for initial guess.
 HarFok:  IExCor=  402 AccDes= 0.00D+00 IRadAn=         5 IDoV= 1 UseB2=F ITyADJ=14
 ICtDFT=  3500011 ScaDFX=  1.000000  1.000000  1.000000  1.000000
 FoFCou: FMM=F IPFlag=           0 FMFlag=      100000 FMFlg1=           0
         NFxFlg=           0 DoJE=T BraDBF=F KetDBF=T FulRan=T
         wScrn=  0.000000 ICntrl=       500 IOpCl=  0 I1Cent=   200000004 NGrid=           0
         NMat0=    1 NMatS0=      1 NMatT0=    0 NMatD0=    1 NMtDS0=    0 NMtDT0=    0
 Petite list used in FoFCou.
 Harris En= -706.311826712366    
 JPrj=0 DoOrth=F DoCkMO=F.
 Leave Link  401 at Wed Jan  8 01:32:18 2020, MaxMem=  4294967296 cpu:              23.3 elap:               1.6
 (Enter /home/cwagen/sw/g16/g16/l502.exe)
 Keep R1 ints in memory in canonical form, NReq=45236517.
 FoFCou: FMM=F IPFlag=           0 FMFlag=           0 FMFlg1=           0
         NFxFlg=           0 DoJE=F BraDBF=F KetDBF=F FulRan=T
         wScrn=  0.000000 ICntrl=       600 IOpCl=  0 I1Cent=           0 NGrid=           0
         NMat0=    1 NMatS0=   7750 NMatT0=    0 NMatD0=    1 NMtDS0=    0 NMtDT0=    0
 Symmetry not used in FoFCou.
 Two-electron integral symmetry not used.
 Closed shell SCF:
 Using DIIS extrapolation, IDIIS=  1040.
 NGot=  4294967296 LenX=  4264898079 LenY=  4264882262
 Requested convergence on RMS density matrix=1.00D-08 within 128 cycles.
 Requested convergence on MAX density matrix=1.00D-06.
 Requested convergence on             energy=1.00D-06.
 No special actions if energy rises.

 Cycle   1  Pass 1  IDiag  1:
 Inv3:  Mode=1 IEnd=     4148928.
 Iteration    1 A*A^-1 deviation from unit magnitude is 3.11D-15 for    122.
 Iteration    1 A*A^-1 deviation from orthogonality  is 1.11D-15 for    916    855.
 Iteration    1 A^-1*A deviation from unit magnitude is 3.11D-15 for    328.
 Iteration    1 A^-1*A deviation from orthogonality  is 1.04D-15 for   1175    860.
 E= -706.170600820697    
 DIIS: error= 2.41D-02 at cycle   1 NSaved=   1.
 NSaved= 1 IEnMin= 1 EnMin= -706.170600820697     IErMin= 1 ErrMin= 2.41D-02
 ErrMax= 2.41D-02  0.00D+00 EMaxC= 1.00D-01 BMatC= 1.59D-01 BMatP= 1.59D-01
 IDIUse=3 WtCom= 7.59D-01 WtEn= 2.41D-01
 Coeff-Com:  0.100D+01
 Coeff-En:   0.100D+01
 Coeff:      0.100D+01
 Gap=     0.242 Goal=   None    Shift=    0.000
 GapD=    0.242 DampG=1.000 DampE=0.500 DampFc=0.5000 IDamp=-1.
 Damping current iteration by 5.00D-01
 RMSDP=7.02D-02 MaxDP=4.20D+00              OVMax= 4.18D-01

 Cycle   2  Pass 1  IDiag  1:
 E= -706.184589273179     Delta-E=       -0.013988452483 Rises=F Damp=T
 DIIS: error= 1.36D-02 at cycle   2 NSaved=   2.
 NSaved= 2 IEnMin= 2 EnMin= -706.184589273179     IErMin= 2 ErrMin= 1.36D-02
 ErrMax= 1.36D-02  0.00D+00 EMaxC= 1.00D-01 BMatC= 5.43D-02 BMatP= 1.59D-01
 IDIUse=3 WtCom= 8.64D-01 WtEn= 1.36D-01
 Coeff-Com:  0.317D+00 0.683D+00
 Coeff-En:   0.461D+00 0.539D+00
 Coeff:      0.337D+00 0.663D+00
 Gap=     0.153 Goal=   None    Shift=    0.000
 RMSDP=3.95D-02 MaxDP=2.48D+00 DE=-1.40D-02 OVMax= 2.54D-01

 Cycle   3  Pass 1  IDiag  1:
 E= -706.276645524162     Delta-E=       -0.092056250982 Rises=F Damp=F
 DIIS: error= 1.51D-02 at cycle   3 NSaved=   3.
 NSaved= 3 IEnMin= 3 EnMin= -706.276645524162     IErMin= 2 ErrMin= 1.36D-02
 ErrMax= 1.51D-02  0.00D+00 EMaxC= 1.00D-01 BMatC= 5.98D-02 BMatP= 5.43D-02
 IDIUse=2 WtCom= 0.00D+00 WtEn= 1.00D+00
 Coeff-En:   0.000D+00 0.147D+00 0.853D+00
 Coeff:      0.000D+00 0.147D+00 0.853D+00
 Gap=     0.140 Goal=   None    Shift=    0.000
 RMSDP=9.09D-03 MaxDP=2.12D-01 DE=-9.21D-02 OVMax= 2.80D-01

 Cycle   4  Pass 1  IDiag  1:
 E= -706.084010986155     Delta-E=        0.192634538007 Rises=F Damp=F
 DIIS: error= 3.45D-02 at cycle   4 NSaved=   4.
 NSaved= 4 IEnMin= 3 EnMin= -706.276645524162     IErMin= 2 ErrMin= 1.36D-02
 ErrMax= 3.45D-02  0.00D+00 EMaxC= 1.00D-01 BMatC= 2.81D-01 BMatP= 5.43D-02
 IDIUse=2 WtCom= 0.00D+00 WtEn= 1.00D+00
 Coeff-En:   0.000D+00 0.000D+00 0.750D+00 0.250D+00
 Coeff:      0.000D+00 0.000D+00 0.750D+00 0.250D+00
 Gap=     0.132 Goal=   None    Shift=    0.000
 RMSDP=6.12D-03 MaxDP=2.46D-01 DE= 1.93D-01 OVMax= 1.44D-01

 Cycle   5  Pass 1  IDiag  1:
 E= -706.318501032564     Delta-E=       -0.234490046410 Rises=F Damp=F
 DIIS: error= 7.12D-03 at cycle   5 NSaved=   5.
 NSaved= 5 IEnMin= 5 EnMin= -706.318501032564     IErMin= 5 ErrMin= 7.12D-03
 ErrMax= 7.12D-03  0.00D+00 EMaxC= 1.00D-01 BMatC= 1.41D-02 BMatP= 5.43D-02
 IDIUse=3 WtCom= 9.29D-01 WtEn= 7.12D-02
 Coeff-Com: -0.172D-01 0.550D-01 0.263D+00-0.745D-01 0.774D+00
 Coeff-En:   0.000D+00 0.000D+00 0.242D+00 0.000D+00 0.758D+00
 Coeff:     -0.159D-01 0.511D-01 0.261D+00-0.692D-01 0.773D+00
 Gap=     0.143 Goal=   None    Shift=    0.000
 RMSDP=1.76D-03 MaxDP=3.59D-02 DE=-2.34D-01 OVMax= 3.97D-02

 Cycle   6  Pass 1  IDiag  1:
 E= -706.330640694235     Delta-E=       -0.012139661670 Rises=F Damp=F
 DIIS: error= 9.03D-04 at cycle   6 NSaved=   6.
 NSaved= 6 IEnMin= 6 EnMin= -706.330640694235     IErMin= 6 ErrMin= 9.03D-04
 ErrMax= 9.03D-04  0.00D+00 EMaxC= 1.00D-01 BMatC= 2.58D-04 BMatP= 1.41D-02
 IDIUse=3 WtCom= 9.91D-01 WtEn= 9.03D-03
 Coeff-Com: -0.148D-01 0.398D-01 0.151D+00-0.668D-01 0.536D+00 0.355D+00
 Coeff-En:   0.000D+00 0.000D+00 0.000D+00 0.000D+00 0.000D+00 0.100D+01
 Coeff:     -0.147D-01 0.394D-01 0.149D+00-0.662D-01 0.531D+00 0.361D+00
 Gap=     0.142 Goal=   None    Shift=    0.000
 RMSDP=3.25D-04 MaxDP=1.24D-02 DE=-1.21D-02 OVMax= 4.49D-03

 Cycle   7  Pass 1  IDiag  1:
 E= -706.330874954694     Delta-E=       -0.000234260459 Rises=F Damp=F
 DIIS: error= 2.47D-04 at cycle   7 NSaved=   7.
 NSaved= 7 IEnMin= 7 EnMin= -706.330874954694     IErMin= 7 ErrMin= 2.47D-04
 ErrMax= 2.47D-04  0.00D+00 EMaxC= 1.00D-01 BMatC= 1.31D-05 BMatP= 2.58D-04
 IDIUse=3 WtCom= 9.98D-01 WtEn= 2.47D-03
 Coeff-Com: -0.936D-03-0.136D-02 0.273D-01-0.103D-01 0.867D-01 0.119D+00
 Coeff-Com:  0.779D+00
 Coeff-En:   0.000D+00 0.000D+00 0.000D+00 0.000D+00 0.000D+00 0.000D+00
 Coeff-En:   0.100D+01
 Coeff:     -0.934D-03-0.136D-02 0.273D-01-0.102D-01 0.865D-01 0.119D+00
 Coeff:      0.780D+00
 Gap=     0.141 Goal=   None    Shift=    0.000
 RMSDP=9.76D-05 MaxDP=3.56D-03 DE=-2.34D-04 OVMax= 1.01D-03

 Cycle   8  Pass 1  IDiag  1:
 E= -706.330885352987     Delta-E=       -0.000010398293 Rises=F Damp=F
 DIIS: error= 7.95D-05 at cycle   8 NSaved=   8.
 NSaved= 8 IEnMin= 8 EnMin= -706.330885352987     IErMin= 8 ErrMin= 7.95D-05
 ErrMax= 7.95D-05  0.00D+00 EMaxC= 1.00D-01 BMatC= 1.72D-06 BMatP= 1.31D-05
 IDIUse=1 WtCom= 1.00D+00 WtEn= 0.00D+00
 Coeff-Com:  0.455D-03-0.200D-02 0.547D-02-0.289D-02 0.157D-01 0.365D-01
 Coeff-Com:  0.432D+00 0.514D+00
 Coeff:      0.455D-03-0.200D-02 0.547D-02-0.289D-02 0.157D-01 0.365D-01
 Coeff:      0.432D+00 0.514D+00
 Gap=     0.141 Goal=   None    Shift=    0.000
 RMSDP=2.75D-05 MaxDP=1.02D-03 DE=-1.04D-05 OVMax= 8.66D-04

 Cycle   9  Pass 1  IDiag  1:
 E= -706.330887148984     Delta-E=       -0.000001795997 Rises=F Damp=F
 DIIS: error= 2.08D-05 at cycle   9 NSaved=   9.
 NSaved= 9 IEnMin= 9 EnMin= -706.330887148984     IErMin= 9 ErrMin= 2.08D-05
 ErrMax= 2.08D-05  0.00D+00 EMaxC= 1.00D-01 BMatC= 1.39D-07 BMatP= 1.72D-06
 IDIUse=1 WtCom= 1.00D+00 WtEn= 0.00D+00
 Coeff-Com:  0.655D-03-0.170D-02-0.230D-02 0.989D-03-0.100D-01-0.430D-02
 Coeff-Com:  0.769D-01 0.211D+00 0.728D+00
 Coeff:      0.655D-03-0.170D-02-0.230D-02 0.989D-03-0.100D-01-0.430D-02
 Coeff:      0.769D-01 0.211D+00 0.728D+00
 Gap=     0.141 Goal=   None    Shift=    0.000
 RMSDP=1.36D-05 MaxDP=3.19D-04 DE=-1.80D-06 OVMax= 2.05D-04

 Cycle  10  Pass 1  IDiag  1:
 E= -706.330887298366     Delta-E=       -0.000000149383 Rises=F Damp=F
 DIIS: error= 8.45D-06 at cycle  10 NSaved=  10.
 NSaved=10 IEnMin=10 EnMin= -706.330887298366     IErMin=10 ErrMin= 8.45D-06
 ErrMax= 8.45D-06  0.00D+00 EMaxC= 1.00D-01 BMatC= 1.40D-08 BMatP= 1.39D-07
 IDIUse=1 WtCom= 1.00D+00 WtEn= 0.00D+00
 Coeff-Com:  0.234D-03-0.487D-03-0.111D-02 0.476D-03-0.423D-02-0.314D-02
 Coeff-Com: -0.408D-02 0.577D-01 0.377D+00 0.578D+00
 Coeff:      0.234D-03-0.487D-03-0.111D-02 0.476D-03-0.423D-02-0.314D-02
 Coeff:     -0.408D-02 0.577D-01 0.377D+00 0.578D+00
 Gap=     0.141 Goal=   None    Shift=    0.000
 RMSDP=2.49D-06 MaxDP=8.44D-05 DE=-1.49D-07 OVMax= 5.10D-05

 Cycle  11  Pass 1  IDiag  1:
 E= -706.330887313269     Delta-E=       -0.000000014903 Rises=F Damp=F
 DIIS: error= 1.28D-06 at cycle  11 NSaved=  11.
 NSaved=11 IEnMin=11 EnMin= -706.330887313269     IErMin=11 ErrMin= 1.28D-06
 ErrMax= 1.28D-06  0.00D+00 EMaxC= 1.00D-01 BMatC= 6.68D-10 BMatP= 1.40D-08
 IDIUse=1 WtCom= 1.00D+00 WtEn= 0.00D+00
 Coeff-Com: -0.981D-05 0.494D-04-0.900D-04 0.224D-04-0.578D-04 0.211D-03
 Coeff-Com: -0.961D-02-0.408D-02 0.345D-01 0.128D+00 0.851D+00
 Coeff:     -0.981D-05 0.494D-04-0.900D-04 0.224D-04-0.578D-04 0.211D-03
 Coeff:     -0.961D-02-0.408D-02 0.345D-01 0.128D+00 0.851D+00
 Gap=     0.141 Goal=   None    Shift=    0.000
 RMSDP=8.34D-07 MaxDP=1.88D-05 DE=-1.49D-08 OVMax= 2.15D-05

 Cycle  12  Pass 1  IDiag  1:
 E= -706.330887314174     Delta-E=       -0.000000000905 Rises=F Damp=F
 DIIS: error= 3.21D-07 at cycle  12 NSaved=  12.
 NSaved=12 IEnMin=12 EnMin= -706.330887314174     IErMin=12 ErrMin= 3.21D-07
 ErrMax= 3.21D-07  0.00D+00 EMaxC= 1.00D-01 BMatC= 2.82D-11 BMatP= 6.68D-10
 IDIUse=1 WtCom= 1.00D+00 WtEn= 0.00D+00
 Coeff-Com: -0.126D-04 0.221D-04 0.295D-04-0.978D-05 0.144D-03 0.148D-03
 Coeff-Com: -0.515D-03-0.175D-02-0.168D-01-0.254D-01 0.573D-01 0.987D+00
 Coeff:     -0.126D-04 0.221D-04 0.295D-04-0.978D-05 0.144D-03 0.148D-03
 Coeff:     -0.515D-03-0.175D-02-0.168D-01-0.254D-01 0.573D-01 0.987D+00
 Gap=     0.141 Goal=   None    Shift=    0.000
 RMSDP=2.50D-07 MaxDP=7.07D-06 DE=-9.05D-10 OVMax= 1.03D-05

 Cycle  13  Pass 1  IDiag  1:
 E= -706.330887314246     Delta-E=       -0.000000000072 Rises=F Damp=F
 DIIS: error= 7.30D-08 at cycle  13 NSaved=  13.
 NSaved=13 IEnMin=13 EnMin= -706.330887314246     IErMin=13 ErrMin= 7.30D-08
 ErrMax= 7.30D-08  0.00D+00 EMaxC= 1.00D-01 BMatC= 9.20D-13 BMatP= 2.82D-11
 IDIUse=1 WtCom= 1.00D+00 WtEn= 0.00D+00
 Coeff-Com:  0.230D-06-0.263D-05 0.343D-05-0.688D-06-0.490D-05-0.395D-04
 Coeff-Com:  0.714D-03 0.340D-03-0.365D-02-0.147D-01-0.640D-01 0.744D-01
 Coeff-Com:  0.101D+01
 Coeff:      0.230D-06-0.263D-05 0.343D-05-0.688D-06-0.490D-05-0.395D-04
 Coeff:      0.714D-03 0.340D-03-0.365D-02-0.147D-01-0.640D-01 0.744D-01
 Coeff:      0.101D+01
 Gap=     0.141 Goal=   None    Shift=    0.000
 RMSDP=8.81D-08 MaxDP=4.38D-06 DE=-7.16D-11 OVMax= 3.84D-06

 Cycle  14  Pass 1  IDiag  1:
 E= -706.330887314253     Delta-E=       -0.000000000007 Rises=F Damp=F
 DIIS: error= 1.53D-08 at cycle  14 NSaved=  14.
 NSaved=14 IEnMin=14 EnMin= -706.330887314253     IErMin=14 ErrMin= 1.53D-08
 ErrMax= 1.53D-08  0.00D+00 EMaxC= 1.00D-01 BMatC= 9.51D-14 BMatP= 9.20D-13
 IDIUse=1 WtCom= 1.00D+00 WtEn= 0.00D+00
 Coeff-Com:  0.803D-06-0.203D-05-0.145D-06 0.535D-06-0.746D-05-0.137D-04
 Coeff-Com:  0.181D-03 0.859D-04 0.227D-03-0.234D-02-0.173D-01-0.361D-01
 Coeff-Com:  0.226D+00 0.829D+00
 Coeff:      0.803D-06-0.203D-05-0.145D-06 0.535D-06-0.746D-05-0.137D-04
 Coeff:      0.181D-03 0.859D-04 0.227D-03-0.234D-02-0.173D-01-0.361D-01
 Coeff:      0.226D+00 0.829D+00
 Gap=     0.141 Goal=   None    Shift=    0.000
 RMSDP=1.34D-08 MaxDP=3.41D-07 DE=-7.16D-12 OVMax= 6.03D-07

 Cycle  15  Pass 1  IDiag  1:
 E= -706.330887314254     Delta-E=       -0.000000000001 Rises=F Damp=F
 DIIS: error= 5.47D-09 at cycle  15 NSaved=  15.
 NSaved=15 IEnMin=15 EnMin= -706.330887314254     IErMin=15 ErrMin= 5.47D-09
 ErrMax= 5.47D-09  0.00D+00 EMaxC= 1.00D-01 BMatC= 1.44D-14 BMatP= 9.51D-14
 IDIUse=1 WtCom= 1.00D+00 WtEn= 0.00D+00
 Coeff-Com:  0.266D-06-0.358D-06-0.599D-07-0.787D-07-0.101D-05 0.127D-07
 Coeff-Com:  0.230D-04 0.280D-05 0.396D-03 0.146D-03-0.218D-02-0.191D-01
 Coeff-Com:  0.969D-02 0.325D+00 0.686D+00
 Coeff:      0.266D-06-0.358D-06-0.599D-07-0.787D-07-0.101D-05 0.127D-07
 Coeff:      0.230D-04 0.280D-05 0.396D-03 0.146D-03-0.218D-02-0.191D-01
 Coeff:      0.969D-02 0.325D+00 0.686D+00
 Gap=     0.141 Goal=   None    Shift=    0.000
 RMSDP=4.75D-09 MaxDP=1.16D-07 DE=-7.96D-13 OVMax= 8.70D-08

 Error on total polarization charges =  0.02260
 SCF Done:  E(RB3LYP) =  -706.330887314     A.U. after   15 cycles
            NFock= 15  Conv=0.48D-08     -V/T= 2.0045
 KE= 7.031861420373D+02 PE=-2.169098275145D+03 EE= 5.142420995435D+02
 SMD-CDS (non-electrostatic) energy       (kcal/mol) =      -0.85
 (included in total energy above)
 Leave Link  502 at Wed Jan  8 01:32:55 2020, MaxMem=  4294967296 cpu:             488.7 elap:              36.5
 (Enter /home/cwagen/sw/g16/g16/l601.exe)
 Copying SCF densities to generalized density rwf, IOpCl= 0 IROHF=0.

 **********************************************************************

            Population analysis using the SCF density.

 **********************************************************************

 Orbital symmetries:
       Occupied  (A) (A) (A) (A) (A) (A) (A) (A) (A) (A) (A) (A)
                 (A) (A) (A) (A) (A) (A) (A) (A) (A) (A) (A) (A)
                 (A) (A) (A)
       Virtual   (A) (A) (A) (A) (A) (A) (A) (A) (A) (A) (A) (A)
                 (A) (A) (A) (A) (A) (A) (A) (A) (A) (A) (A) (A)
                 (A) (A) (A) (A) (A) (A) (A) (A) (A) (A) (A) (A)
                 (A) (A) (A) (A) (A) (A) (A) (A) (A) (A) (A) (A)
                 (A) (A) (A) (A) (A) (A) (A) (A) (A) (A) (A) (A)
                 (A) (A) (A) (A) (A) (A) (A) (A) (A) (A) (A) (A)
                 (A) (A) (A) (A) (A) (A) (A) (A) (A) (A) (A) (A)
                 (A) (A) (A) (A) (A) (A) (A) (A) (A) (A) (A) (A)
                 (A)
 The electronic state is 1-A.
 Alpha  occ. eigenvalues -- -101.44794 -19.14023 -14.33308 -10.27575 -10.21600
 Alpha  occ. eigenvalues --  -10.18158  -9.36088  -7.12083  -7.11761  -7.11757
 Alpha  occ. eigenvalues --   -1.02591  -0.90029  -0.78026  -0.69642  -0.67043
 Alpha  occ. eigenvalues --   -0.46677  -0.45211  -0.44664  -0.38583  -0.37141
 Alpha  occ. eigenvalues --   -0.37078  -0.30923  -0.30083  -0.24541  -0.24071
 Alpha  occ. eigenvalues --   -0.23627  -0.23502
 Alpha virt. eigenvalues --   -0.09373   0.02607   0.03168   0.04841   0.05461
 Alpha virt. eigenvalues --    0.06840   0.08149   0.09415   0.09795   0.10081
 Alpha virt. eigenvalues --    0.10424   0.11021   0.12135   0.13355   0.13864
 Alpha virt. eigenvalues --    0.14898   0.16318   0.16932   0.20982   0.21843
 Alpha virt. eigenvalues --    0.23839   0.24934   0.25887   0.26378   0.27187
 Alpha virt. eigenvalues --    0.28493   0.30715   0.33075   0.35462   0.36811
 Alpha virt. eigenvalues --    0.37779   0.40412   0.46937   0.55640   0.64315
 Alpha virt. eigenvalues --    0.66403   0.67140   0.68725   0.71512   0.72329
 Alpha virt. eigenvalues --    0.73687   0.76676   0.79060   0.81667   0.84487
 Alpha virt. eigenvalues --    0.87559   0.90213   0.95431   0.96233   0.96982
 Alpha virt. eigenvalues --    0.97391   1.00138   1.01825   1.02961   1.06133
 Alpha virt. eigenvalues --    1.10135   1.13077   1.14735   1.17356   1.23373
 Alpha virt. eigenvalues --    1.28161   1.31900   1.34696   1.35205   1.41365
 Alpha virt. eigenvalues --    1.49171   1.55060   1.59717   1.63385   1.70454
 Alpha virt. eigenvalues --    1.77936   1.80269   1.86010   1.90119   1.93285
 Alpha virt. eigenvalues --    1.97127   2.05274   2.10504   2.17442   2.22551
 Alpha virt. eigenvalues --    2.25168   2.34650   2.40935   2.51967   2.58261
 Alpha virt. eigenvalues --    2.74334   2.90890   2.99630   3.02652   3.21502
 Alpha virt. eigenvalues --    3.51219   4.15583   4.23866   4.36134   4.39109
 Alpha virt. eigenvalues --    4.53525   4.82884
          Condensed to atoms (all electrons):
               1          2          3          4          5          6
     1  C    8.670837   0.548117  -0.132686  -0.145457  -0.148851   0.076755
     2  O    0.548117   8.280396  -0.161329   0.009568   0.004813  -0.013242
     3  C   -0.132686  -0.161329   5.963915   0.376748   0.398459   0.361151
     4  H   -0.145457   0.009568   0.376748   0.473452  -0.019809  -0.029325
     5  H   -0.148851   0.004813   0.398459  -0.019809   0.469312  -0.022511
     6  H    0.076755  -0.013242   0.361151  -0.029325  -0.022511   0.456591
     7  Cl   0.156732  -0.029111  -0.106117   0.005240   0.000261   0.000222
     8  C   -3.321471  -0.162052  -0.012844   0.088648   0.079607  -0.084056
     9  N   -0.072294  -0.043276   0.040811  -0.001838  -0.000932  -0.001737
               7          8          9
     1  C    0.156732  -3.321471  -0.072294
     2  O   -0.029111  -0.162052  -0.043276
     3  C   -0.106117  -0.012844   0.040811
     4  H    0.005240   0.088648  -0.001838
     5  H    0.000261   0.079607  -0.000932
     6  H    0.000222  -0.084056  -0.001737
     7  Cl  17.711841  -0.019911  -0.021585
     8  C   -0.019911   8.837742   0.248741
     9  N   -0.021585   0.248741   7.445034
 Mulliken charges:
               1
     1  C    0.368318
     2  O   -0.433884
     3  C   -0.728108
     4  H    0.242772
     5  H    0.239651
     6  H    0.256153
     7  Cl  -0.697573
     8  C    0.345595
     9  N   -0.592925
 Sum of Mulliken charges =  -1.00000
 Mulliken charges with hydrogens summed into heavy atoms:
               1
     1  C    0.368318
     2  O   -0.433884
     3  C    0.010469
     7  Cl  -0.697573
     8  C    0.345595
     9  N   -0.592925
 Electronic spatial extent (au):  <R**2>=            820.6199
 Charge=             -1.0000 electrons
 Dipole moment (field-independent basis, Debye):
    X=             -4.4060    Y=             -3.6060    Z=             -2.6666  Tot=              6.2870
 Quadrupole moment (field-independent basis, Debye-Ang):
   XX=            -67.2680   YY=            -51.9396   ZZ=            -50.0929
   XY=              5.0327   XZ=              2.7069   YZ=              4.0628
 Traceless Quadrupole moment (field-independent basis, Debye-Ang):
   XX=            -10.8345   YY=              4.4939   ZZ=              6.3406
   XY=              5.0327   XZ=              2.7069   YZ=              4.0628
 Octapole moment (field-independent basis, Debye-Ang**2):
  XXX=            -35.7810  YYY=            -19.5693  ZZZ=             -5.6327  XYY=              8.9217
  XXY=            -17.5575  XXZ=              1.7029  XZZ=              0.8473  YZZ=              0.1376
  YYZ=              1.7762  XYZ=             -5.1274
 Hexadecapole moment (field-independent basis, Debye-Ang**3):
 XXXX=           -801.7991 YYYY=           -310.2059 ZZZZ=           -188.6432 XXXY=             28.7807
 XXXZ=             -1.6172 YYYX=             28.7343 YYYZ=              7.6579 ZZZX=              4.1791
 ZZZY=              5.0679 XXYY=           -193.1908 XXZZ=           -156.7174 YYZZ=            -83.1586
 XXYZ=              7.8298 YYXZ=             -3.6398 ZZXY=              0.7861
 N-N= 2.453391462503D+02 E-N=-2.169098276028D+03  KE= 7.031861420373D+02
 No NMR shielding tensors so no spin-rotation constants.
 Leave Link  601 at Wed Jan  8 01:32:55 2020, MaxMem=  4294967296 cpu:               8.7 elap:               0.7
 (Enter /home/cwagen/sw/g16/g16/l701.exe)
 ... and contract with generalized density number  0.
 Compute integral first derivatives.
 D1PCM: PCM CHGder 1st derivatives, ID1Alg=3 FixD1E=F DoIter=F DoCFld=F I1PDM=0.
 GePol: Maximum number of non-zero 1st derivatives   =     391
 Leave Link  701 at Wed Jan  8 01:33:00 2020, MaxMem=  4294967296 cpu:              58.2 elap:               4.5
 (Enter /home/cwagen/sw/g16/g16/l702.exe)
 L702 exits ... SP integral derivatives will be done elsewhere.
 Leave Link  702 at Wed Jan  8 01:33:00 2020, MaxMem=  4294967296 cpu:               1.4 elap:               0.1
 (Enter /home/cwagen/sw/g16/g16/l703.exe)
 Integral derivatives from FoFJK, PRISM(SPDF).
 Compute integral first derivatives, UseDBF=F ICtDFT=           0.
 Calling FoFJK, ICntrl=      2127 FMM=F ISym2X=0 I1Cent= 0 IOpClX= 0 NMat=1 NMatS=1 NMatT=0.
 FoFJK:  IHMeth= 1 ICntrl=    2127 DoSepK=F KAlg= 0 I1Cent=           0 FoldK=F
 IRaf=         0 NMat=       1 IRICut=       1 DoRegI=T DoRafI=F ISym2E= 0 IDoP0=0 IntGTp=1.
 FoFCou: FMM=F IPFlag=           0 FMFlag=      100000 FMFlg1=         800
         NFxFlg=           0 DoJE=F BraDBF=F KetDBF=F FulRan=T
         wScrn=  0.000000 ICntrl=      2127 IOpCl=  0 I1Cent=           0 NGrid=           0
         NMat0=    1 NMatS0=      1 NMatT0=    0 NMatD0=    1 NMtDS0=    0 NMtDT0=    0
 Symmetry not used in FoFCou.
 Leave Link  703 at Wed Jan  8 01:33:02 2020, MaxMem=  4294967296 cpu:              32.6 elap:               2.2
 (Enter /home/cwagen/sw/g16/g16/l716.exe)
 Dipole        =-1.73345321D+00-1.41871021D+00-1.04912078D+00
 ***** Axes restored to original set *****
 -------------------------------------------------------------------
 Center     Atomic                   Forces (Hartrees/Bohr)
 Number     Number              X              Y              Z
 -------------------------------------------------------------------
      1        6          -0.239285811   -0.179782587   -0.085890842
      2        8          -0.038280246    0.020891515    0.015195862
      3        6          -0.046962065    0.001489056    0.012513092
      4        1          -0.001178083    0.000557272   -0.002210862
      5        1           0.000482400   -0.003696212    0.003529288
      6        1           0.000597584    0.003813186   -0.003276153
      7       17           0.007677839   -0.010383974   -0.001120180
      8        6           0.312953930    0.166460645    0.050147340
      9        7           0.003994451    0.000651098    0.011112456
 -------------------------------------------------------------------
 Cartesian Forces:  Max     0.312953930 RMS     0.092292655
 Leave Link  716 at Wed Jan  8 01:33:02 2020, MaxMem=  4294967296 cpu:               1.4 elap:               0.1
 (Enter /home/cwagen/sw/g16/g16/l103.exe)

 GradGradGradGradGradGradGradGradGradGradGradGradGradGradGradGradGradGrad
 Berny optimization.
 FormGI is forming the generalized inverse of G from B-inverse, IUseBI=4.
 Internal  Forces:  Max     0.359945436 RMS     0.067405543
 Search for a local minimum.
 Step number   1 out of a maximum of   41
 All quantities printed in internal units (Hartrees-Bohrs-Radians)
 RMS Force = .19586D-01 SwitMx=.10000D-02 MixMth= 1
 Mixed Optimization -- RFO/linear search
 Second derivative matrix not updated -- first step.
 ITU=  0
     Eigenvalues ---    0.00230   0.04746   0.04746   0.05330   0.05908
     Eigenvalues ---    0.07453   0.10176   0.16000   0.16000   0.16000
     Eigenvalues ---    0.25000   0.25000   0.25000   0.26946   0.33918
     Eigenvalues ---    0.33999   0.34275   0.67840   1.220341000.00000
     Eigenvalues --- 1000.000001000.000001000.000001000.000001000.00000
     Eigenvalues --- 1000.000001000.000001000.000001000.000001000.00000
     Eigenvalues --- 1000.00000
 RFO step:  Lambda=-5.85200432D-02 EMin= 2.30000000D-03
 Linear search not attempted -- first point.
 Maximum step size (   0.300) exceeded in Quadratic search.
    -- Step size scaled by   0.696
 Iteration  1 RMS(Cart)=  0.10705270 RMS(Int)=  0.00802621
 Iteration  2 RMS(Cart)=  0.00833483 RMS(Int)=  0.00480522
 Iteration  3 RMS(Cart)=  0.00005145 RMS(Int)=  0.00480516
 Iteration  4 RMS(Cart)=  0.00000052 RMS(Int)=  0.00480516
 Iteration  1 RMS(Cart)=  0.00000000 RMS(Int)=  0.00000000
 ITry= 1 IFail=0 DXMaxC= 3.25D-01 DCOld= 1.00D+10 DXMaxT= 3.00D-01 DXLimC= 3.00D+00 Rises=F
 Variable       Old X    -DE/DX   Delta X   Delta X   Delta X     New X
                                 (Linear)    (Quad)   (Total)
    R1        2.45227  -0.01873   0.00000  -0.01768  -0.01768   2.43459
    R2        2.94503   0.00964   0.00000   0.02044   0.02044   2.96547
    R3        5.10226  -0.01278   0.00000   0.00000   0.00000   5.10226
    R4        2.26767   0.35995   0.00000   0.00000   0.00000   2.26767
    R5        2.07331  -0.00208   0.00000  -0.00362  -0.00362   2.06969
    R6        2.07468   0.00065   0.00000   0.00113   0.00113   2.07581
    R7        2.06868  -0.00221   0.00000  -0.00383  -0.00383   2.06485
    R8        2.20923   0.00433   0.00000   0.00235   0.00235   2.21159
    A1        1.99667   0.01810   0.00000   0.04339   0.03146   2.02813
    A2        2.01908  -0.01398   0.00000  -0.07678  -0.07961   1.93946
    A3        1.89239   0.00095   0.00000   0.08468   0.06809   1.96048
    A4        1.92419  -0.02954   0.00000  -0.10366  -0.10223   1.82196
    A5        1.77194   0.06341   0.00000   0.17614   0.16750   1.93945
    A6        1.83479  -0.03182   0.00000  -0.09331  -0.08602   1.74877
    A7        1.97398  -0.00173   0.00000  -0.00592  -0.00604   1.96793
    A8        1.87942   0.00886   0.00000   0.03025   0.03032   1.90975
    A9        1.90140  -0.00738   0.00000  -0.02514  -0.02514   1.87626
   A10        1.90356  -0.00271   0.00000  -0.00562  -0.00566   1.89790
   A11        1.90837   0.00345   0.00000   0.00733   0.00713   1.91550
   A12        1.89554  -0.00042   0.00000  -0.00049  -0.00026   1.89528
   A13        3.10280  -0.00717   0.00000  -0.04707  -0.04707   3.05573
   A14        2.93645   0.02105   0.00000   0.13813   0.13813   3.07459
    D1        3.04510   0.02559   0.00000   0.12792   0.13105  -3.10703
    D2       -1.13357   0.02718   0.00000   0.13788   0.14104  -0.99253
    D3        0.91915   0.02761   0.00000   0.14050   0.14347   1.06262
    D4       -0.92685  -0.00596   0.00000  -0.04076  -0.03785  -0.96470
    D5        1.17766  -0.00437   0.00000  -0.03080  -0.02786   1.14981
    D6       -3.05280  -0.00394   0.00000  -0.02818  -0.02543  -3.07823
    D7        1.01121  -0.02237   0.00000  -0.09968  -0.10560   0.90561
    D8        3.11572  -0.02078   0.00000  -0.08972  -0.09561   3.02012
    D9       -1.11475  -0.02035   0.00000  -0.08710  -0.09318  -1.20792
         Item               Value     Threshold  Converged?
 Maximum Force            0.063409     0.000450     NO 
 RMS     Force            0.019586     0.000300     NO 
 Maximum Displacement     0.324812     0.001800     NO 
 RMS     Displacement     0.104936     0.001200     NO 
 Predicted change in Energy=-3.212592D-02
 Lowest energy point so far.  Saving SCF results.
 GradGradGradGradGradGradGradGradGradGradGradGradGradGradGradGradGradGrad

 Leave Link  103 at Wed Jan  8 01:33:08 2020, MaxMem=  4294967296 cpu:              80.6 elap:               5.4
 (Enter /home/cwagen/sw/g16/g16/l202.exe)
                          Input orientation:                          
 ---------------------------------------------------------------------
 Center     Atomic      Atomic             Coordinates (Angstroms)
 Number     Number       Type             X           Y           Z
 ---------------------------------------------------------------------
      1          6           0       -0.101795   -0.355563   -0.238879
      2          8           0       -0.302022   -0.680511   -1.469371
      3          6           0       -0.363787   -1.478301    0.825727
      4          1           0       -0.209970   -1.131920    1.853294
      5          1           0       -1.395540   -1.842038    0.726596
      6          1           0        0.318854   -2.303264    0.608077
      7         17           0       -1.723238    1.669728    0.508864
      8          6           0        0.970003    0.157489   -0.071462
      9          7           0        2.063253    0.549766    0.071973
 ---------------------------------------------------------------------
                    Distance matrix (angstroms):
                    1          2          3          4          5
     1  C    0.000000
     2  O    1.288330   0.000000
     3  C    1.569257   2.430588   0.000000
     4  H    2.234193   3.354452   1.095232   0.000000
     5  H    2.194430   2.714258   1.098474   1.783056   0.000000
     6  H    2.165138   2.708247   1.092673   1.789488   1.779304
     7  Cl   2.700000   3.384804   3.443632   3.456400   3.533736
     8  C    1.200000   2.067472   2.293415   2.599922   3.198561
     9  N    2.367209   3.079586   3.251419   3.341963   4.255878
                    6          7          8          9
     6  H    0.000000
     7  Cl   4.468182   0.000000
     8  C    2.634591   3.142800   0.000000
     9  N    3.386756   3.972744   1.170320   0.000000
 Stoichiometry    C3H3ClNO(1-)
 Framework group  C1[X(C3H3ClNO)]
 Deg. of freedom    21
 Full point group                 C1      NOp   1
 RotChk:  IX=0 Diff= 5.61D-02
 Largest Abelian subgroup         C1      NOp   1
 Largest concise Abelian subgroup C1      NOp   1
                         Standard orientation:                         
 ---------------------------------------------------------------------
 Center     Atomic      Atomic             Coordinates (Angstroms)
 Number     Number       Type             X           Y           Z
 ---------------------------------------------------------------------
      1          6           0       -0.563488   -0.312871    0.207415
      2          8           0       -0.853619   -0.678140    1.408330
      3          6           0       -0.871038   -1.353045   -0.926613
      4          1           0       -0.571351   -0.999044   -1.918785
      5          1           0       -0.343831   -2.292774   -0.713054
      6          1           0       -1.946449   -1.545994   -0.912695
      7         17           0        2.076592    0.193579   -0.044551
      8          6           0       -1.013514    0.766405   -0.062100
      9          7           0       -1.560463    1.767022   -0.325280
 ---------------------------------------------------------------------
 Rotational constants (GHZ):           3.6110320           1.8416815           1.5913762
 Leave Link  202 at Wed Jan  8 01:33:08 2020, MaxMem=  4294967296 cpu:               2.2 elap:               0.2
 (Enter /home/cwagen/sw/g16/g16/l301.exe)
 Standard basis: 6-31+G(d) (6D, 7F)
 Ernie: Thresh=  0.10000D-02 Tol=  0.10000D-05 Strict=F.
 There are   124 symmetry adapted cartesian basis functions of A   symmetry.
 There are   124 symmetry adapted basis functions of A   symmetry.
   124 basis functions,   228 primitive gaussians,   124 cartesian basis functions
    27 alpha electrons       27 beta electrons
       nuclear repulsion energy       245.5224475990 Hartrees.
 IExCor=  402 DFT=T Ex+Corr=B3LYP ExCW=0 ScaHFX=  0.200000
 ScaDFX=  0.800000  0.720000  1.000000  0.810000 ScalE2=  1.000000  1.000000
 IRadAn=      5 IRanWt=     -1 IRanGd=            0 ICorTp=0 IEmpDi=  4
 NAtoms=    9 NActive=    9 NUniq=    9 SFac= 1.00D+00 NAtFMM=   60 NAOKFM=F Big=F
 Integral buffers will be    131072 words long.
 Raffenetti 2 integral format.
 Two-electron integral symmetry is turned on.
 ------------------------------------------------------------------------------
 Polarizable Continuum Model (PCM)
 =================================
 Model                : PCM.
 Atomic radii         : SMD-Coulomb.
 Polarization charges : Total charges.
 Charge compensation  : None.
 Solution method      : On-the-fly selection.
 Cavity type          : VdW (van der Waals Surface) (Alpha=1.000).
 Cavity algorithm     : GePol (No added spheres)
                        Default sphere list used, NSphG=    9.
                        Lebedev-Laikov grids with approx.  5.0 points / Ang**2.
                        Smoothing algorithm: York/Karplus (Gamma=1.0000).
                        Polarization charges: spherical gaussians, with
                                              point-specific exponents (IZeta= 3).
                        Self-potential: point-specific (ISelfS= 7).
                        Self-field    : sphere-specific E.n sum rule (ISelfD= 2).
 1st derivatives      : Analytical E(r).r(x)/FMM algorithm (CHGder, D1EAlg=3).
                        Cavity 1st derivative terms included.
 Solvent              : TetraHydroFuran, Eps=   7.425700 Eps(inf)=   1.974025
 ------------------------------------------------------------------------------
 Spheres list:
 ISph  on   Nord     Re0    Alpha      Xe            Ye            Ze
    1   C      1    1.8500  1.000     -0.563488     -0.312871      0.207415
    2   O      2    2.2940  1.000     -0.853619     -0.678140      1.408330
    3   C      3    1.8500  1.000     -0.871038     -1.353045     -0.926613
    4   H      4    1.2000  1.000     -0.571351     -0.999044     -1.918785
    5   H      5    1.2000  1.000     -0.343831     -2.292774     -0.713054
    6   H      6    1.2000  1.000     -1.946449     -1.545994     -0.912695
    7  Cl      7    2.3800  1.000      2.076592      0.193579     -0.044551
    8   C      8    1.8500  1.000     -1.013514      0.766405     -0.062100
    9   N      9    1.8900  1.000     -1.560463      1.767022     -0.325280
 ------------------------------------------------------------------------------
 GePol: Number of generator spheres                  =       9
 GePol: Total number of spheres                      =       9
 GePol: Number of exposed spheres                    =       9 (100.00%)
 GePol: Number of points                             =    1180
 GePol: Average weight of points                     =       0.14
 GePol: Minimum weight of points                     =   0.20D-06
 GePol: Maximum weight of points                     =    0.18138
 GePol: Number of points with low weight             =      31
 GePol: Fraction of low-weight points (<1% of avg)   =       2.63%
 GePol: Cavity surface area                          =    161.998 Ang**2
 GePol: Cavity volume                                =    147.283 Ang**3
 ------------------------------------------------------------------------------
 Atomic radii for non-electrostatic terms: SMD-CDS.
 ------------------------------------------------------------------------------
 PCM non-electrostatic energy =        -0.0014009014 Hartrees.
 Nuclear repulsion after PCM non-electrostatic terms =      245.5210466976 Hartrees.
 Leave Link  301 at Wed Jan  8 01:33:08 2020, MaxMem=  4294967296 cpu:               2.4 elap:               0.2
 (Enter /home/cwagen/sw/g16/g16/l302.exe)
 NPDir=0 NMtPBC=     1 NCelOv=     1 NCel=       1 NClECP=     1 NCelD=      1
         NCelK=      1 NCelE2=     1 NClLst=     1 CellRange=     0.0.
 One-electron integrals computed using PRISM.
 One-electron integral symmetry used in STVInt
 NBasis=   124 RedAO= T EigKep=  1.57D-05  NBF=   124
 NBsUse=   124 1.00D-06 EigRej= -1.00D+00 NBFU=   124
 Precomputing XC quadrature grid using
 IXCGrd= 4 IRadAn=           5 IRanWt=          -1 IRanGd=           0 AccXCQ= 0.00D+00.
 Generated NRdTot=       0 NPtTot=           0 NUsed=           0 NTot=          32
 NSgBfM=   124   124   124   124   124 MxSgAt=     9 MxSgA2=     9.
 Leave Link  302 at Wed Jan  8 01:33:10 2020, MaxMem=  4294967296 cpu:              25.7 elap:               2.0
 (Enter /home/cwagen/sw/g16/g16/l303.exe)
 DipDrv:  MaxL=1.
 Leave Link  303 at Wed Jan  8 01:33:14 2020, MaxMem=  4294967296 cpu:               2.5 elap:               3.8
 (Enter /home/cwagen/sw/g16/g16/l401.exe)
 Initial guess from the checkpoint file:  "/scratch/users/cwagen/cwagen_scan_270_120/Gau-17079.chk"
 B after Tr=     0.000000    0.000000    0.000000
         Rot=    0.999878   -0.014174    0.006486   -0.000558 Ang=  -1.79 deg.
 Guess basis will be translated and rotated to current coordinates.
 JPrj=2 DoOrth=T DoCkMO=T.
 Generating alternative initial guess.
 ExpMin= 4.38D-02 ExpMax= 2.52D+04 ExpMxC= 3.78D+03 IAcc=2 IRadAn=         4 AccDes= 0.00D+00
 Harris functional with IExCor=  402 and IRadAn=       4 diagonalized for initial guess.
 HarFok:  IExCor=  402 AccDes= 0.00D+00 IRadAn=         4 IDoV= 1 UseB2=F ITyADJ=14
 ICtDFT=  3500011 ScaDFX=  1.000000  1.000000  1.000000  1.000000
 FoFCou: FMM=F IPFlag=           0 FMFlag=      100000 FMFlg1=           0
         NFxFlg=           0 DoJE=T BraDBF=F KetDBF=T FulRan=T
         wScrn=  0.000000 ICntrl=       500 IOpCl=  0 I1Cent=   200000004 NGrid=           0
         NMat0=    1 NMatS0=      1 NMatT0=    0 NMatD0=    1 NMtDS0=    0 NMtDT0=    0
 Petite list used in FoFCou.
 Harris En= -706.338992189321    
 Leave Link  401 at Wed Jan  8 01:33:17 2020, MaxMem=  4294967296 cpu:              38.0 elap:               3.1
 (Enter /home/cwagen/sw/g16/g16/l502.exe)
 Keep R1 ints in memory in canonical form, NReq=45236517.
 FoFCou: FMM=F IPFlag=           0 FMFlag=           0 FMFlg1=           0
         NFxFlg=           0 DoJE=F BraDBF=F KetDBF=F FulRan=T
         wScrn=  0.000000 ICntrl=       600 IOpCl=  0 I1Cent=           0 NGrid=           0
         NMat0=    1 NMatS0=   7750 NMatT0=    0 NMatD0=    1 NMtDS0=    0 NMtDT0=    0
 Symmetry not used in FoFCou.
 Two-electron integral symmetry not used.
 Closed shell SCF:
 Using DIIS extrapolation, IDIIS=  1040.
 NGot=  4294967296 LenX=  4264898079 LenY=  4264882262
 Requested convergence on RMS density matrix=1.00D-08 within 128 cycles.
 Requested convergence on MAX density matrix=1.00D-06.
 Requested convergence on             energy=1.00D-06.
 No special actions if energy rises.

 Cycle   1  Pass 1  IDiag  1:
 Inv3:  Mode=1 IEnd=     4177200.
 Iteration    1 A*A^-1 deviation from unit magnitude is 5.77D-15 for   1166.
 Iteration    1 A*A^-1 deviation from orthogonality  is 1.34D-15 for    770    205.
 Iteration    1 A^-1*A deviation from unit magnitude is 5.22D-15 for   1166.
 Iteration    1 A^-1*A deviation from orthogonality  is 1.28D-15 for   1158    873.
 E= -706.330529028653    
 DIIS: error= 6.39D-03 at cycle   1 NSaved=   1.
 NSaved= 1 IEnMin= 1 EnMin= -706.330529028653     IErMin= 1 ErrMin= 6.39D-03
 ErrMax= 6.39D-03  0.00D+00 EMaxC= 1.00D-01 BMatC= 1.90D-02 BMatP= 1.90D-02
 IDIUse=3 WtCom= 9.36D-01 WtEn= 6.39D-02
 Coeff-Com:  0.100D+01
 Coeff-En:   0.100D+01
 Coeff:      0.100D+01
 Gap=     0.537 Goal=   None    Shift=    0.000
 GapD=    0.537 DampG=2.000 DampE=1.000 DampFc=2.0000 IDamp=-1.
 RMSDP=4.92D-03 MaxDP=1.09D-01              OVMax= 6.25D-02

 Cycle   2  Pass 1  IDiag  1:
 E= -706.359981808601     Delta-E=       -0.029452779948 Rises=F Damp=F
 DIIS: error= 1.42D-03 at cycle   2 NSaved=   2.
 NSaved= 2 IEnMin= 2 EnMin= -706.359981808601     IErMin= 2 ErrMin= 1.42D-03
 ErrMax= 1.42D-03  0.00D+00 EMaxC= 1.00D-01 BMatC= 5.69D-04 BMatP= 1.90D-02
 IDIUse=3 WtCom= 9.86D-01 WtEn= 1.42D-02
 Coeff-Com: -0.223D-01 0.102D+01
 Coeff-En:   0.000D+00 0.100D+01
 Coeff:     -0.220D-01 0.102D+01
 Gap=     0.143 Goal=   None    Shift=    0.000
 RMSDP=9.38D-04 MaxDP=2.62D-02 DE=-2.95D-02 OVMax= 2.07D-02

 Cycle   3  Pass 1  IDiag  1:
 E= -706.358577065383     Delta-E=        0.001404743219 Rises=F Damp=F
 DIIS: error= 2.34D-03 at cycle   3 NSaved=   3.
 NSaved= 3 IEnMin= 2 EnMin= -706.359981808601     IErMin= 2 ErrMin= 1.42D-03
 ErrMax= 2.34D-03  0.00D+00 EMaxC= 1.00D-01 BMatC= 2.31D-03 BMatP= 5.69D-04
 IDIUse=3 WtCom= 1.71D-01 WtEn= 8.29D-01
 Coeff-Com: -0.380D-01 0.719D+00 0.319D+00
 Coeff-En:   0.000D+00 0.747D+00 0.253D+00
 Coeff:     -0.650D-02 0.742D+00 0.264D+00
 Gap=     0.142 Goal=   None    Shift=    0.000
 RMSDP=5.40D-04 MaxDP=1.32D-02 DE= 1.40D-03 OVMax= 1.57D-02

 Cycle   4  Pass 1  IDiag  1:
 E= -706.360656765653     Delta-E=       -0.002079700271 Rises=F Damp=F
 DIIS: error= 3.00D-04 at cycle   4 NSaved=   4.
 NSaved= 4 IEnMin= 4 EnMin= -706.360656765653     IErMin= 4 ErrMin= 3.00D-04
 ErrMax= 3.00D-04  0.00D+00 EMaxC= 1.00D-01 BMatC= 2.18D-05 BMatP= 5.69D-04
 IDIUse=3 WtCom= 9.97D-01 WtEn= 3.00D-03
 Coeff-Com: -0.162D-01 0.206D+00 0.728D-01 0.737D+00
 Coeff-En:   0.000D+00 0.000D+00 0.000D+00 0.100D+01
 Coeff:     -0.162D-01 0.205D+00 0.726D-01 0.738D+00
 Gap=     0.142 Goal=   None    Shift=    0.000
 RMSDP=1.37D-04 MaxDP=2.55D-03 DE=-2.08D-03 OVMax= 2.20D-03

 Cycle   5  Pass 1  IDiag  1:
 E= -706.360662206722     Delta-E=       -0.000005441068 Rises=F Damp=F
 DIIS: error= 3.01D-04 at cycle   5 NSaved=   5.
 NSaved= 5 IEnMin= 5 EnMin= -706.360662206722     IErMin= 4 ErrMin= 3.00D-04
 ErrMax= 3.01D-04  0.00D+00 EMaxC= 1.00D-01 BMatC= 2.22D-05 BMatP= 2.18D-05
 IDIUse=3 WtCom= 9.97D-01 WtEn= 3.01D-03
 Coeff-Com: -0.753D-02 0.788D-01 0.246D-01 0.510D+00 0.394D+00
 Coeff-En:   0.000D+00 0.000D+00 0.000D+00 0.432D+00 0.568D+00
 Coeff:     -0.750D-02 0.785D-01 0.245D-01 0.510D+00 0.395D+00
 Gap=     0.141 Goal=   None    Shift=    0.000
 RMSDP=6.93D-05 MaxDP=1.68D-03 DE=-5.44D-06 OVMax= 1.73D-03

 Cycle   6  Pass 1  IDiag  1:
 E= -706.360678465408     Delta-E=       -0.000016258687 Rises=F Damp=F
 DIIS: error= 1.00D-04 at cycle   6 NSaved=   6.
 NSaved= 6 IEnMin= 6 EnMin= -706.360678465408     IErMin= 6 ErrMin= 1.00D-04
 ErrMax= 1.00D-04  0.00D+00 EMaxC= 1.00D-01 BMatC= 2.51D-06 BMatP= 2.18D-05
 IDIUse=3 WtCom= 9.99D-01 WtEn= 1.00D-03
 Coeff-Com: -0.751D-03-0.345D-02-0.207D-02 0.162D+00 0.269D+00 0.575D+00
 Coeff-En:   0.000D+00 0.000D+00 0.000D+00 0.000D+00 0.111D+00 0.889D+00
 Coeff:     -0.750D-03-0.344D-02-0.207D-02 0.162D+00 0.268D+00 0.576D+00
 Gap=     0.142 Goal=   None    Shift=    0.000
 RMSDP=2.55D-05 MaxDP=5.97D-04 DE=-1.63D-05 OVMax= 5.12D-04

 Cycle   7  Pass 1  IDiag  1:
 E= -706.360680524565     Delta-E=       -0.000002059157 Rises=F Damp=F
 DIIS: error= 1.66D-05 at cycle   7 NSaved=   7.
 NSaved= 7 IEnMin= 7 EnMin= -706.360680524565     IErMin= 7 ErrMin= 1.66D-05
 ErrMax= 1.66D-05  0.00D+00 EMaxC= 1.00D-01 BMatC= 1.08D-07 BMatP= 2.51D-06
 IDIUse=1 WtCom= 1.00D+00 WtEn= 0.00D+00
 Coeff-Com:  0.487D-03-0.122D-01-0.419D-02 0.211D-01 0.839D-01 0.264D+00
 Coeff-Com:  0.647D+00
 Coeff:      0.487D-03-0.122D-01-0.419D-02 0.211D-01 0.839D-01 0.264D+00
 Coeff:      0.647D+00
 Gap=     0.142 Goal=   None    Shift=    0.000
 RMSDP=1.30D-05 MaxDP=4.35D-04 DE=-2.06D-06 OVMax= 1.86D-04

 Cycle   8  Pass 1  IDiag  1:
 E= -706.360680635240     Delta-E=       -0.000000110675 Rises=F Damp=F
 DIIS: error= 3.70D-06 at cycle   8 NSaved=   8.
 NSaved= 8 IEnMin= 8 EnMin= -706.360680635240     IErMin= 8 ErrMin= 3.70D-06
 ErrMax= 3.70D-06  0.00D+00 EMaxC= 1.00D-01 BMatC= 4.58D-09 BMatP= 1.08D-07
 IDIUse=1 WtCom= 1.00D+00 WtEn= 0.00D+00
 Coeff-Com:  0.217D-03-0.415D-02-0.113D-02-0.638D-03 0.171D-01 0.597D-01
 Coeff-Com:  0.223D+00 0.706D+00
 Coeff:      0.217D-03-0.415D-02-0.113D-02-0.638D-03 0.171D-01 0.597D-01
 Coeff:      0.223D+00 0.706D+00
 Gap=     0.142 Goal=   None    Shift=    0.000
 RMSDP=2.81D-06 MaxDP=1.48D-04 DE=-1.11D-07 OVMax= 7.13D-05

 Cycle   9  Pass 1  IDiag  1:
 E= -706.360680641408     Delta-E=       -0.000000006167 Rises=F Damp=F
 DIIS: error= 2.40D-06 at cycle   9 NSaved=   9.
 NSaved= 9 IEnMin= 9 EnMin= -706.360680641408     IErMin= 9 ErrMin= 2.40D-06
 ErrMax= 2.40D-06  0.00D+00 EMaxC= 1.00D-01 BMatC= 1.38D-09 BMatP= 4.58D-09
 IDIUse=1 WtCom= 1.00D+00 WtEn= 0.00D+00
 Coeff-Com:  0.290D-04-0.102D-03 0.202D-03-0.408D-02-0.533D-02-0.140D-01
 Coeff-Com:  0.702D-02 0.380D+00 0.637D+00
 Coeff:      0.290D-04-0.102D-03 0.202D-03-0.408D-02-0.533D-02-0.140D-01
 Coeff:      0.702D-02 0.380D+00 0.637D+00
 Gap=     0.142 Goal=   None    Shift=    0.000
 RMSDP=1.02D-06 MaxDP=2.93D-05 DE=-6.17D-09 OVMax= 3.54D-05

 Cycle  10  Pass 1  IDiag  1:
 E= -706.360680643673     Delta-E=       -0.000000002265 Rises=F Damp=F
 DIIS: error= 6.90D-07 at cycle  10 NSaved=  10.
 NSaved=10 IEnMin=10 EnMin= -706.360680643673     IErMin=10 ErrMin= 6.90D-07
 ErrMax= 6.90D-07  0.00D+00 EMaxC= 1.00D-01 BMatC= 8.50D-11 BMatP= 1.38D-09
 IDIUse=1 WtCom= 1.00D+00 WtEn= 0.00D+00
 Coeff-Com: -0.152D-04 0.471D-03 0.225D-03-0.119D-02-0.358D-02-0.113D-01
 Coeff-Com: -0.219D-01 0.337D-01 0.224D+00 0.779D+00
 Coeff:     -0.152D-04 0.471D-03 0.225D-03-0.119D-02-0.358D-02-0.113D-01
 Coeff:     -0.219D-01 0.337D-01 0.224D+00 0.779D+00
 Gap=     0.142 Goal=   None    Shift=    0.000
 RMSDP=3.74D-07 MaxDP=1.05D-05 DE=-2.26D-09 OVMax= 1.47D-05

 Cycle  11  Pass 1  IDiag  1:
 E= -706.360680643865     Delta-E=       -0.000000000192 Rises=F Damp=F
 DIIS: error= 1.97D-07 at cycle  11 NSaved=  11.
 NSaved=11 IEnMin=11 EnMin= -706.360680643865     IErMin=11 ErrMin= 1.97D-07
 ErrMax= 1.97D-07  0.00D+00 EMaxC= 1.00D-01 BMatC= 1.24D-11 BMatP= 8.50D-11
 IDIUse=1 WtCom= 1.00D+00 WtEn= 0.00D+00
 Coeff-Com: -0.874D-05 0.192D-03 0.667D-04-0.602D-04-0.858D-03-0.281D-02
 Coeff-Com: -0.888D-02-0.313D-01 0.221D-01 0.321D+00 0.701D+00
 Coeff:     -0.874D-05 0.192D-03 0.667D-04-0.602D-04-0.858D-03-0.281D-02
 Coeff:     -0.888D-02-0.313D-01 0.221D-01 0.321D+00 0.701D+00
 Gap=     0.142 Goal=   None    Shift=    0.000
 RMSDP=1.15D-07 MaxDP=5.22D-06 DE=-1.92D-10 OVMax= 4.99D-06

 Cycle  12  Pass 1  IDiag  1:
 E= -706.360680643889     Delta-E=       -0.000000000024 Rises=F Damp=F
 DIIS: error= 6.36D-08 at cycle  12 NSaved=  12.
 NSaved=12 IEnMin=12 EnMin= -706.360680643889     IErMin=12 ErrMin= 6.36D-08
 ErrMax= 6.36D-08  0.00D+00 EMaxC= 1.00D-01 BMatC= 1.32D-12 BMatP= 1.24D-11
 IDIUse=1 WtCom= 1.00D+00 WtEn= 0.00D+00
 Coeff-Com: -0.112D-05 0.415D-05-0.414D-05 0.113D-03 0.175D-03 0.483D-03
 Coeff-Com: -0.465D-04-0.171D-01-0.215D-01 0.204D-01 0.270D+00 0.747D+00
 Coeff:     -0.112D-05 0.415D-05-0.414D-05 0.113D-03 0.175D-03 0.483D-03
 Coeff:     -0.465D-04-0.171D-01-0.215D-01 0.204D-01 0.270D+00 0.747D+00
 Gap=     0.142 Goal=   None    Shift=    0.000
 RMSDP=4.39D-08 MaxDP=1.01D-06 DE=-2.41D-11 OVMax= 1.62D-06

 Cycle  13  Pass 1  IDiag  1:
 E= -706.360680643886     Delta-E=        0.000000000003 Rises=F Damp=F
 DIIS: error= 1.85D-08 at cycle  13 NSaved=  13.
 NSaved=13 IEnMin=12 EnMin= -706.360680643889     IErMin=13 ErrMin= 1.85D-08
 ErrMax= 1.85D-08  0.00D+00 EMaxC= 1.00D-01 BMatC= 9.90D-14 BMatP= 1.32D-12
 IDIUse=1 WtCom= 1.00D+00 WtEn= 0.00D+00
 Coeff-Com:  0.216D-06-0.128D-04-0.653D-05 0.495D-04 0.139D-03 0.400D-03
 Coeff-Com:  0.687D-03-0.491D-02-0.110D-01-0.167D-01 0.538D-01 0.290D+00
 Coeff-Com:  0.687D+00
 Coeff:      0.216D-06-0.128D-04-0.653D-05 0.495D-04 0.139D-03 0.400D-03
 Coeff:      0.687D-03-0.491D-02-0.110D-01-0.167D-01 0.538D-01 0.290D+00
 Coeff:      0.687D+00
 Gap=     0.142 Goal=   None    Shift=    0.000
 RMSDP=9.75D-09 MaxDP=3.90D-07 DE= 2.96D-12 OVMax= 3.31D-07

 Error on total polarization charges =  0.02275
 SCF Done:  E(RB3LYP) =  -706.360680644     A.U. after   13 cycles
            NFock= 13  Conv=0.97D-08     -V/T= 2.0046
 KE= 7.031386710429D+02 PE=-2.169537849186D+03 EE= 5.145174508018D+02
 SMD-CDS (non-electrostatic) energy       (kcal/mol) =      -0.88
 (included in total energy above)
 Leave Link  502 at Wed Jan  8 01:33:56 2020, MaxMem=  4294967296 cpu:             556.8 elap:              38.5
 (Enter /home/cwagen/sw/g16/g16/l701.exe)
 ... and contract with generalized density number  0.
 Compute integral first derivatives.
 D1PCM: PCM CHGder 1st derivatives, ID1Alg=3 FixD1E=F DoIter=F DoCFld=F I1PDM=0.
 GePol: Maximum number of non-zero 1st derivatives   =     387
 Leave Link  701 at Wed Jan  8 01:34:02 2020, MaxMem=  4294967296 cpu:              67.0 elap:               5.7
 (Enter /home/cwagen/sw/g16/g16/l702.exe)
 L702 exits ... SP integral derivatives will be done elsewhere.
 Leave Link  702 at Wed Jan  8 01:34:02 2020, MaxMem=  4294967296 cpu:               1.4 elap:               0.2
 (Enter /home/cwagen/sw/g16/g16/l703.exe)
 Integral derivatives from FoFJK, PRISM(SPDF).
 Compute integral first derivatives, UseDBF=F ICtDFT=           0.
 Calling FoFJK, ICntrl=      2127 FMM=F ISym2X=0 I1Cent= 0 IOpClX= 0 NMat=1 NMatS=1 NMatT=0.
 FoFJK:  IHMeth= 1 ICntrl=    2127 DoSepK=F KAlg= 0 I1Cent=           0 FoldK=F
 IRaf=         0 NMat=       1 IRICut=       1 DoRegI=T DoRafI=F ISym2E= 0 IDoP0=0 IntGTp=1.
 FoFCou: FMM=F IPFlag=           0 FMFlag=      100000 FMFlg1=         800
         NFxFlg=           0 DoJE=F BraDBF=F KetDBF=F FulRan=T
         wScrn=  0.000000 ICntrl=      2127 IOpCl=  0 I1Cent=           0 NGrid=           0
         NMat0=    1 NMatS0=      1 NMatT0=    0 NMatD0=    1 NMtDS0=    0 NMtDT0=    0
 Symmetry not used in FoFCou.
 Leave Link  703 at Wed Jan  8 01:34:04 2020, MaxMem=  4294967296 cpu:              33.9 elap:               2.4
 (Enter /home/cwagen/sw/g16/g16/l716.exe)
 Dipole        =-1.99265537D+00-1.35595239D+00-1.05823522D+00
 ***** Axes restored to original set *****
 -------------------------------------------------------------------
 Center     Atomic                   Forces (Hartrees/Bohr)
 Number     Number              X              Y              Z
 -------------------------------------------------------------------
      1        6          -0.259900983   -0.204743682   -0.075349148
      2        8          -0.020601250    0.015940469    0.020721511
      3        6          -0.026495193    0.016321987    0.002010461
      4        1           0.000588941    0.000442178   -0.001257080
      5        1           0.002022382    0.000497032   -0.000121561
      6        1           0.002720027    0.001215874   -0.002240823
      7       17           0.004698166   -0.005400533    0.000225058
      8        6           0.299468985    0.176630789    0.055371725
      9        7          -0.002501076   -0.000904113    0.000639857
 -------------------------------------------------------------------
 Cartesian Forces:  Max     0.299468985 RMS     0.094526423
 Leave Link  716 at Wed Jan  8 01:34:04 2020, MaxMem=  4294967296 cpu:               1.5 elap:               0.2
 (Enter /home/cwagen/sw/g16/g16/l103.exe)

 GradGradGradGradGradGradGradGradGradGradGradGradGradGradGradGradGradGrad
 Berny optimization.
 Using GEDIIS/GDIIS optimizer.
 FormGI is forming the generalized inverse of G from B-inverse, IUseBI=4.
 Internal  Forces:  Max     0.348208270 RMS     0.063407262
 Search for a local minimum.
 Step number   2 out of a maximum of   41
 All quantities printed in internal units (Hartrees-Bohrs-Radians)
 RMS Force = .10731D-01 SwitMx=.10000D-02 MixMth= 1
 Mixed Optimization -- RFO/linear search
 Update second derivatives using D2CorX and points    1    2
 DE= -2.98D-02 DEPred=-3.21D-02 R= 9.27D-01
 TightC=F SS=  1.41D+00  RLast= 4.14D-01 DXNew= 5.0454D-01 1.2409D+00
 Trust test= 9.27D-01 RLast= 4.14D-01 DXMaxT set to 5.05D-01
 ITU=  1  0
 Use linear search instead of GDIIS.
     Eigenvalues ---    0.00230   0.04715   0.04748   0.05363   0.05889
     Eigenvalues ---    0.08138   0.09633   0.15921   0.16000   0.16225
     Eigenvalues ---    0.23813   0.25000   0.25440   0.31118   0.33988
     Eigenvalues ---    0.34018   0.34458   0.67275   1.222371000.00000
     Eigenvalues --- 1000.000001000.000001000.000001000.000001000.00000
     Eigenvalues --- 1000.000001000.000001000.000001000.000001000.00000
     Eigenvalues --- 1000.00000
 RFO step:  Lambda=-1.88930196D-02 EMin= 2.30039888D-03
 Quartic linear search produced a step of  1.31108.
 Iteration  1 RMS(Cart)=  0.14315666 RMS(Int)=  0.03978041
 Iteration  2 RMS(Cart)=  0.03426163 RMS(Int)=  0.02355321
 Iteration  3 RMS(Cart)=  0.00237406 RMS(Int)=  0.02351047
 Iteration  4 RMS(Cart)=  0.00011786 RMS(Int)=  0.02351039
 Iteration  5 RMS(Cart)=  0.00000605 RMS(Int)=  0.02351039
 Iteration  6 RMS(Cart)=  0.00000031 RMS(Int)=  0.02351039
 Iteration  1 RMS(Cart)=  0.00000000 RMS(Int)=  0.00000000
 ITry= 1 IFail=0 DXMaxC= 4.15D-01 DCOld= 1.00D+10 DXMaxT= 5.05D-01 DXLimC= 3.00D+00 Rises=F
 Variable       Old X    -DE/DX   Delta X   Delta X   Delta X     New X
                                 (Linear)    (Quad)   (Total)
    R1        2.43459  -0.02060  -0.02318  -0.03962  -0.06280   2.37179
    R2        2.96547  -0.01074   0.02679  -0.12013  -0.09334   2.87213
    R3        5.10226  -0.00683   0.00000   0.00000   0.00000   5.10226
    R4        2.26767   0.34821   0.00000   0.00000   0.00000   2.26767
    R5        2.06969  -0.00094  -0.00475   0.00000  -0.00475   2.06494
    R6        2.07581  -0.00205   0.00148  -0.01505  -0.01357   2.06224
    R7        2.06485   0.00117  -0.00502   0.01378   0.00876   2.07361
    R8        2.21159  -0.00256   0.00309  -0.00845  -0.00536   2.20622
    A1        2.02813   0.00658   0.04124   0.02890   0.00079   2.02891
    A2        1.93946  -0.00616  -0.10438  -0.03617  -0.15084   1.78863
    A3        1.96048   0.00237   0.08928   0.13029   0.14815   2.10864
    A4        1.82196  -0.01745  -0.13404  -0.08914  -0.20997   1.61199
    A5        1.93945   0.02376   0.21961   0.00527   0.15970   2.09914
    A6        1.74877  -0.01438  -0.11278  -0.07352  -0.15078   1.59799
    A7        1.96793  -0.00072  -0.00792   0.00091  -0.00756   1.96037
    A8        1.90975   0.00106   0.03976  -0.03337   0.00644   1.91619
    A9        1.87626  -0.00484  -0.03296  -0.02402  -0.05746   1.81880
   A10        1.89790   0.00073  -0.00742   0.03106   0.02355   1.92145
   A11        1.91550   0.00194   0.00935  -0.00027   0.00792   1.92342
   A12        1.89528   0.00191  -0.00034   0.02611   0.02601   1.92129
   A13        3.05573  -0.00081  -0.06172   0.07484   0.01312   3.06885
   A14        3.07459   0.00175   0.18111  -0.24106  -0.05995   3.01464
    D1       -3.10703   0.01583   0.17182   0.10579   0.28163  -2.82540
    D2       -0.99253   0.01703   0.18492   0.12245   0.31118  -0.68135
    D3        1.06262   0.01714   0.18811   0.12190   0.31333   1.37595
    D4       -0.96470  -0.00104  -0.04962   0.01073  -0.02535  -0.99004
    D5        1.14981   0.00016  -0.03652   0.02739   0.00420   1.15401
    D6       -3.07823   0.00028  -0.03334   0.02684   0.00635  -3.07188
    D7        0.90561  -0.01665  -0.13844  -0.11416  -0.26926   0.63635
    D8        3.02012  -0.01546  -0.12535  -0.09750  -0.23972   2.78040
    D9       -1.20792  -0.01534  -0.12216  -0.09805  -0.23756  -1.44548
         Item               Value     Threshold  Converged?
 Maximum Force            0.023756     0.000450     NO 
 RMS     Force            0.010731     0.000300     NO 
 Maximum Displacement     0.415126     0.001800     NO 
 RMS     Displacement     0.162966     0.001200     NO 
 Predicted change in Energy=-2.128112D-02
 Lowest energy point so far.  Saving SCF results.
 GradGradGradGradGradGradGradGradGradGradGradGradGradGradGradGradGradGrad

 Leave Link  103 at Wed Jan  8 01:34:09 2020, MaxMem=  4294967296 cpu:              65.3 elap:               4.7
 (Enter /home/cwagen/sw/g16/g16/l202.exe)
                          Input orientation:                          
 ---------------------------------------------------------------------
 Center     Atomic      Atomic             Coordinates (Angstroms)
 Number     Number       Type             X           Y           Z
 ---------------------------------------------------------------------
      1          6           0        0.058536   -0.499507   -0.267623
      2          8           0       -0.369969   -0.715130   -1.427434
      3          6           0       -0.405829   -1.464610    0.810767
      4          1           0       -0.270533   -1.059446    1.816538
      5          1           0       -1.453515   -1.723458    0.648696
      6          1           0        0.227062   -2.349979    0.670556
      7         17           0       -1.590141    1.450053    0.610490
      8          6           0        1.023745    0.190298   -0.087229
      9          7           0        2.036402    0.757165    0.040058
 ---------------------------------------------------------------------
                    Distance matrix (angstroms):
                    1          2          3          4          5
     1  C    0.000000
     2  O    1.255098   0.000000
     3  C    1.519863   2.360625   0.000000
     4  H    2.183013   3.263709   1.092721   0.000000
     5  H    2.150348   2.549728   1.091291   1.790032   0.000000
     6  H    2.081545   2.725939   1.097309   1.796204   1.793696
     7  Cl   2.700000   3.214027   3.152454   3.081153   3.176680
     8  C    1.200000   2.135038   2.364064   2.619416   3.215721
     9  N    2.363439   3.179907   3.390394   3.431895   4.324749
                    6          7          8          9
     6  H    0.000000
     7  Cl   4.212609   0.000000
     8  C    2.768022   2.984324   0.000000
     9  N    3.650423   3.735946   1.167482   0.000000
 Stoichiometry    C3H3ClNO(1-)
 Framework group  C1[X(C3H3ClNO)]
 Deg. of freedom    21
 Full point group                 C1      NOp   1
 RotChk:  IX=0 Diff= 1.63D-01
 Largest Abelian subgroup         C1      NOp   1
 Largest concise Abelian subgroup C1      NOp   1
                         Standard orientation:                         
 ---------------------------------------------------------------------
 Center     Atomic      Atomic             Coordinates (Angstroms)
 Number     Number       Type             X           Y           Z
 ---------------------------------------------------------------------
      1          6           0       -0.707064   -0.365483    0.166287
      2          8           0       -0.802972   -0.836379    1.325740
      3          6           0       -0.592423   -1.376706   -0.962549
      4          1           0       -0.201936   -0.931205   -1.880747
      5          1           0        0.041317   -2.208520   -0.650499
      6          1           0       -1.621422   -1.724681   -1.117987
      7         17           0        1.911834    0.272542    0.010409
      8          6           0       -1.030325    0.766540   -0.066147
      9          7           0       -1.473784    1.825160   -0.279884
 ---------------------------------------------------------------------
 Rotational constants (GHZ):           3.4589098           2.1105185           1.7133265
 Leave Link  202 at Wed Jan  8 01:34:09 2020, MaxMem=  4294967296 cpu:               2.9 elap:               0.3
 (Enter /home/cwagen/sw/g16/g16/l301.exe)
 Standard basis: 6-31+G(d) (6D, 7F)
 Ernie: Thresh=  0.10000D-02 Tol=  0.10000D-05 Strict=F.
 There are   124 symmetry adapted cartesian basis functions of A   symmetry.
 There are   124 symmetry adapted basis functions of A   symmetry.
   124 basis functions,   228 primitive gaussians,   124 cartesian basis functions
    27 alpha electrons       27 beta electrons
       nuclear repulsion energy       250.8703619881 Hartrees.
 IExCor=  402 DFT=T Ex+Corr=B3LYP ExCW=0 ScaHFX=  0.200000
 ScaDFX=  0.800000  0.720000  1.000000  0.810000 ScalE2=  1.000000  1.000000
 IRadAn=      5 IRanWt=     -1 IRanGd=            0 ICorTp=0 IEmpDi=  4
 NAtoms=    9 NActive=    9 NUniq=    9 SFac= 1.00D+00 NAtFMM=   60 NAOKFM=F Big=F
 Integral buffers will be    131072 words long.
 Raffenetti 2 integral format.
 Two-electron integral symmetry is turned on.
 ------------------------------------------------------------------------------
 Polarizable Continuum Model (PCM)
 =================================
 Model                : PCM.
 Atomic radii         : SMD-Coulomb.
 Polarization charges : Total charges.
 Charge compensation  : None.
 Solution method      : On-the-fly selection.
 Cavity type          : VdW (van der Waals Surface) (Alpha=1.000).
 Cavity algorithm     : GePol (No added spheres)
                        Default sphere list used, NSphG=    9.
                        Lebedev-Laikov grids with approx.  5.0 points / Ang**2.
                        Smoothing algorithm: York/Karplus (Gamma=1.0000).
                        Polarization charges: spherical gaussians, with
                                              point-specific exponents (IZeta= 3).
                        Self-potential: point-specific (ISelfS= 7).
                        Self-field    : sphere-specific E.n sum rule (ISelfD= 2).
 1st derivatives      : Analytical E(r).r(x)/FMM algorithm (CHGder, D1EAlg=3).
                        Cavity 1st derivative terms included.
 Solvent              : TetraHydroFuran, Eps=   7.425700 Eps(inf)=   1.974025
 ------------------------------------------------------------------------------
 Spheres list:
 ISph  on   Nord     Re0    Alpha      Xe            Ye            Ze
    1   C      1    1.8500  1.000     -0.707064     -0.365483      0.166287
    2   O      2    2.2940  1.000     -0.802972     -0.836379      1.325740
    3   C      3    1.8500  1.000     -0.592423     -1.376706     -0.962549
    4   H      4    1.2000  1.000     -0.201936     -0.931205     -1.880747
    5   H      5    1.2000  1.000      0.041317     -2.208520     -0.650499
    6   H      6    1.2000  1.000     -1.621422     -1.724681     -1.117987
    7  Cl      7    2.3800  1.000      1.911834      0.272542      0.010409
    8   C      8    1.8500  1.000     -1.030325      0.766540     -0.066147
    9   N      9    1.8900  1.000     -1.473784      1.825160     -0.279884
 ------------------------------------------------------------------------------
 GePol: Number of generator spheres                  =       9
 GePol: Total number of spheres                      =       9
 GePol: Number of exposed spheres                    =       9 (100.00%)
[...]
 DE=  2.93D-06 DEPred=-1.47D-07 R=-2.00D+01
 Trust test=-2.00D+01 RLast= 3.76D-03 DXMaxT set to 2.12D-01
 ITU= -1  1 -1  0  1  1  1  1  1  0
     Eigenvalues ---    0.00199   0.02925   0.05290   0.05457   0.06024
     Eigenvalues ---    0.07842   0.10449   0.13689   0.16293   0.16718
     Eigenvalues ---    0.23037   0.25430   0.26596   0.31802   0.34009
     Eigenvalues ---    0.34410   0.35762   0.72788   1.231951000.00000
     Eigenvalues --- 1000.000001000.000001000.000001000.000001000.00000
     Eigenvalues --- 1000.000001000.000001000.000001000.000001000.00000
     Eigenvalues --- 1000.00000
 En-DIIS/RFO-DIIS/Sim-DIIS IScMMF=       -3 using points:    10    9    8    7    6    5
 RFO step:  Lambda=-1.20559219D-04.
 NNeg= 0 NGDIIS= 6 SimSw=  2.50D-03 Rises=T DC=  2.93D-06 SmlDif=  1.00D-05
 NRisDI= 1 DoIntr=F SqrtH=F CThrHd= 10.0 CDAdj=  3.0
 RMS Error=  0.2421540864D-03 NUsed= 6 OKEnD=T EnDIS=T
 InvSVX:  RCond= 2.65D-08 Info=           0 Equed=N FErr=  2.65D-13 BErr=  6.71D-17
 DIIS inversion failure, remove point   6.
 InvSVX:  RCond= 3.55D-08 Info=           0 Equed=N FErr=  1.47D-13 BErr=  5.70D-17
 DIIS inversion failure, remove point   5.
 InvSVX:  RCond= 5.79D-08 Info=           0 Equed=N FErr=  9.67D-14 BErr=  5.21D-17
 DIIS inversion failure, remove point   4.
 InvSVX:  RCond= 9.58D-07 Info=           0 Equed=N FErr=  3.07D-15 BErr=  5.80D-17
 RFO-DIIS uses    3 points instead of    6
 EnCoef did   100 forward-backward iterations
 IWarn =    2
 Energies =   -706.381516587      -706.381614694      -706.381628579      -706.381625447      -706.381630144    
 Energies =   -706.381627216    
 Point number   1 has energy  -0.7063815166D+03 and has been removed
 EnCoef did   100 forward-backward iterations
 IWarn =    2
 Energies =   -706.381614694      -706.381628579      -706.381625447      -706.381630144      -706.381627216    
 Point number   1 has energy  -0.7063816147D+03 and has been removed
 EnCoef did   100 forward-backward iterations
 IWarn =    2
 Energies =   -706.381628579      -706.381625447      -706.381630144      -706.381627216    
 Point number   2 has energy  -0.7063816254D+03 and has been removed
 EnCoef did   100 forward-backward iterations
 IWarn =    2
 Energies =   -706.381628579      -706.381630144      -706.381627216    
 Point number   1 has energy  -0.7063816286D+03 and has been removed
 IWarn =    0
 DidBck=F Rises=T En-DIIS coefs:    1.00000    0.00000    0.00000    0.00000    0.00000
                  En-DIIS coefs:    0.00000
 Iteration  1 RMS(Cart)=  0.00029289 RMS(Int)=  0.00000004
 Iteration  2 RMS(Cart)=  0.00000004 RMS(Int)=  0.00000000
 Iteration  1 RMS(Cart)=  0.00000000 RMS(Int)=  0.00000000
 ITry= 1 IFail=0 DXMaxC= 7.30D-04 DCOld= 1.00D+10 DXMaxT= 2.12D-01 DXLimC= 3.00D+00 Rises=F
 Variable       Old X    -DE/DX   Delta X   Delta X   Delta X     New X
                                 (Linear)    (Quad)   (Total)
    R1        2.37090  -0.00002   0.00000  -0.00002  -0.00002   2.37089
    R2        2.89110   0.00000   0.00000   0.00000   0.00000   2.89110
    R3        5.10226   0.00764   0.00000   0.00000   0.00000   5.10226
    R4        2.26767   0.34709   0.00000   0.00000   0.00000   2.26767
    R5        2.06324   0.00000   0.00000   0.00000   0.00000   2.06324
    R6        2.06385   0.00001   0.00000   0.00001   0.00001   2.06386
    R7        2.07813   0.00000   0.00000   0.00000   0.00000   2.07813
    R8        2.20843   0.00001   0.00000   0.00000   0.00000   2.20844
    A1        2.07913   0.00001   0.00000   0.00001   0.00001   2.07915
    A2        1.85677  -0.00003   0.00000  -0.00015  -0.00015   1.85663
    A3        2.09365   0.00000   0.00000   0.00003   0.00003   2.09368
    A4        1.61503   0.00005   0.00000   0.00028   0.00028   1.61531
    A5        2.07267  -0.00001   0.00000  -0.00002  -0.00002   2.07265
    A6        1.49365  -0.00003   0.00000  -0.00021  -0.00021   1.49345
    A7        1.97040  -0.00002   0.00000  -0.00004  -0.00004   1.97036
    A8        1.90051   0.00000   0.00000  -0.00006  -0.00006   1.90045
    A9        1.86943   0.00002   0.00000   0.00007   0.00007   1.86951
   A10        1.92158   0.00001   0.00000   0.00007   0.00007   1.92165
   A11        1.89992   0.00000   0.00000  -0.00005  -0.00005   1.89988
   A12        1.90026  -0.00001   0.00000   0.00000   0.00000   1.90026
   A13        3.03523   0.00001   0.00000  -0.00003  -0.00003   3.03520
   A14        2.99601   0.00000   0.00000   0.00000   0.00000   2.99601
    D1       -2.84765   0.00000   0.00000   0.00042   0.00042  -2.84723
    D2       -0.70786   0.00000   0.00000   0.00044   0.00044  -0.70742
    D3        1.34447   0.00001   0.00000   0.00045   0.00045   1.34492
    D4       -0.92151   0.00000   0.00000   0.00042   0.00042  -0.92109
    D5        1.21827   0.00000   0.00000   0.00045   0.00045   1.21872
    D6       -3.01258   0.00000   0.00000   0.00045   0.00045  -3.01213
    D7        0.58554   0.00000   0.00000   0.00034   0.00034   0.58588
    D8        2.72532   0.00000   0.00000   0.00036   0.00036   2.72569
    D9       -1.50553   0.00000   0.00000   0.00037   0.00037  -1.50516
         Item               Value     Threshold  Converged?
 Maximum Force            0.000053     0.000450     YES
 RMS     Force            0.000015     0.000300     YES
 Maximum Displacement     0.000730     0.001800     YES
 RMS     Displacement     0.000293     0.001200     YES
 Predicted change in Energy=-1.556773D-08
 Optimization completed.
    -- Stationary point found.
                           ----------------------------
                           !   Optimized Parameters   !
                           ! (Angstroms and Degrees)  !
 --------------------------                            --------------------------
 ! Name  Definition              Value          Derivative Info.                !
 --------------------------------------------------------------------------------
 ! R1    R(1,2)                  1.2546         -DE/DX =    0.0                 !
 ! R2    R(1,3)                  1.5299         -DE/DX =    0.0                 !
 ! R3    R(1,7)                  2.7            -DE/DX =    0.0076              !
 ! R4    R(1,8)                  1.2            -DE/DX =    0.3471              !
 ! R5    R(3,4)                  1.0918         -DE/DX =    0.0                 !
 ! R6    R(3,5)                  1.0921         -DE/DX =    0.0                 !
 ! R7    R(3,6)                  1.0997         -DE/DX =    0.0                 !
 ! R8    R(8,9)                  1.1687         -DE/DX =    0.0                 !
 ! A1    A(2,1,3)              119.1256         -DE/DX =    0.0                 !
 ! A2    A(2,1,7)              106.3853         -DE/DX =    0.0                 !
 ! A3    A(2,1,8)              119.9576         -DE/DX =    0.0                 !
 ! A4    A(3,1,7)               92.5345         -DE/DX =    0.0001              !
 ! A5    A(3,1,8)              118.755          -DE/DX =    0.0                 !
 ! A6    A(7,1,8)               85.5801         -DE/DX =    0.0                 !
 ! A7    A(1,3,4)              112.8953         -DE/DX =    0.0                 !
 ! A8    A(1,3,5)              108.8913         -DE/DX =    0.0                 !
 ! A9    A(1,3,6)              107.1106         -DE/DX =    0.0                 !
 ! A10   A(4,3,5)              110.0985         -DE/DX =    0.0                 !
 ! A11   A(4,3,6)              108.8576         -DE/DX =    0.0                 !
 ! A12   A(5,3,6)              108.8771         -DE/DX =    0.0                 !
 ! A13   L(1,8,9,6,-1)         173.9061         -DE/DX =    0.0                 !
 ! A14   L(1,8,9,6,-2)         171.6588         -DE/DX =    0.0                 !
 ! D1    D(2,1,3,4)           -163.1581         -DE/DX =    0.0                 !
 ! D2    D(2,1,3,5)            -40.5574         -DE/DX =    0.0                 !
 ! D3    D(2,1,3,6)             77.0326         -DE/DX =    0.0                 !
 ! D4    D(7,1,3,4)            -52.7987         -DE/DX =    0.0                 !
 ! D5    D(7,1,3,5)             69.8019         -DE/DX =    0.0                 !
 ! D6    D(7,1,3,6)           -172.608          -DE/DX =    0.0                 !
 ! D7    D(8,1,3,4)             33.549          -DE/DX =    0.0                 !
 ! D8    D(8,1,3,5)            156.1496         -DE/DX =    0.0                 !
 ! D9    D(8,1,3,6)            -86.2604         -DE/DX =    0.0                 !
 --------------------------------------------------------------------------------
 Largest change from initial coordinates is atom    9       0.612 Angstoms.
 GradGradGradGradGradGradGradGradGradGradGradGradGradGradGradGradGradGrad

 Leave Link  103 at Wed Jan  8 01:40:21 2020, MaxMem=  4294967296 cpu:              35.5 elap:               2.8
 (Enter /home/cwagen/sw/g16/g16/l202.exe)
                          Input orientation:                          
 ---------------------------------------------------------------------
 Center     Atomic      Atomic             Coordinates (Angstroms)
 Number     Number       Type             X           Y           Z
 ---------------------------------------------------------------------
      1          6           0        0.043480   -0.520836   -0.303169
      2          8           0       -0.338059   -0.733711   -1.479266
      3          6           0       -0.399454   -1.475082    0.807608
      4          1           0       -0.268162   -1.054300    1.806496
      5          1           0       -1.446215   -1.742400    0.647585
      6          1           0        0.216695   -2.381743    0.720043
      7         17           0       -1.493117    1.486877    0.644438
      8          6           0        0.969001    0.214714   -0.097312
      9          7           0        1.971590    0.791866    0.068397
 ---------------------------------------------------------------------
                    Distance matrix (angstroms):
                    1          2          3          4          5
     1  C    0.000000
     2  O    1.254628   0.000000
     3  C    1.529902   2.404827   0.000000
     4  H    2.198270   3.302104   1.091821   0.000000
     5  H    2.148335   2.601722   1.092143   1.790074   0.000000
     6  H    2.130714   2.803698   1.099701   1.782574   1.783053
     7  Cl   2.700000   3.282574   3.161633   3.050979   3.229619
     8  C    1.200000   2.125492   2.355198   2.601048   3.196629
     9  N    2.361960   3.171297   3.362637   3.383165   4.294106
                    6          7          8          9
     6  H    0.000000
     7  Cl   4.230295   0.000000
     8  C    2.824115   2.868905   0.000000
     9  N    3.684575   3.580371   1.168652   0.000000
 Stoichiometry    C3H3ClNO(1-)
 Framework group  C1[X(C3H3ClNO)]
 Deg. of freedom    21
 Full point group                 C1      NOp   1
 RotChk:  IX=0 Diff= 1.45D-15
 Largest Abelian subgroup         C1      NOp   1
 Largest concise Abelian subgroup C1      NOp   1
                         Standard orientation:                         
 ---------------------------------------------------------------------
 Center     Atomic      Atomic             Coordinates (Angstroms)
 Number     Number       Type             X           Y           Z
 ---------------------------------------------------------------------
      1          6           0       -0.760976   -0.324522    0.173240
      2          8           0       -0.993817   -0.750885    1.330000
      3          6           0       -0.727768   -1.314585   -0.992639
      4          1           0       -0.240239   -0.908370   -1.881108
      5          1           0       -0.219298   -2.225281   -0.668808
      6          1           0       -1.771207   -1.558401   -1.239885
      7         17           0        1.901419    0.104701    0.041252
      8          6           0       -0.867854    0.846393   -0.066622
      9          7           0       -1.143322    1.953642   -0.319336
 ---------------------------------------------------------------------
 Rotational constants (GHZ):           3.3974275           2.1686398           1.7544464
 Leave Link  202 at Wed Jan  8 01:40:21 2020, MaxMem=  4294967296 cpu:               3.1 elap:               0.3
 (Enter /home/cwagen/sw/g16/g16/l601.exe)
 Copying SCF densities to generalized density rwf, IOpCl= 0 IROHF=0.

 **********************************************************************

            Population analysis using the SCF density.

 **********************************************************************

 Orbital symmetries:
       Occupied  (A) (A) (A) (A) (A) (A) (A) (A) (A) (A) (A) (A)
                 (A) (A) (A) (A) (A) (A) (A) (A) (A) (A) (A) (A)
                 (A) (A) (A)
       Virtual   (A) (A) (A) (A) (A) (A) (A) (A) (A) (A) (A) (A)
                 (A) (A) (A) (A) (A) (A) (A) (A) (A) (A) (A) (A)
                 (A) (A) (A) (A) (A) (A) (A) (A) (A) (A) (A) (A)
                 (A) (A) (A) (A) (A) (A) (A) (A) (A) (A) (A) (A)
                 (A) (A) (A) (A) (A) (A) (A) (A) (A) (A) (A) (A)
                 (A) (A) (A) (A) (A) (A) (A) (A) (A) (A) (A) (A)
                 (A) (A) (A) (A) (A) (A) (A) (A) (A) (A) (A) (A)
                 (A) (A) (A) (A) (A) (A) (A) (A) (A) (A) (A) (A)
                 (A)
 The electronic state is 1-A.
 Alpha  occ. eigenvalues -- -101.42635 -19.13733 -14.34807 -10.27156 -10.22071
 Alpha  occ. eigenvalues --  -10.17305  -9.34044  -7.09932  -7.09758  -7.09755
 Alpha  occ. eigenvalues --   -1.03264  -0.91249  -0.77754  -0.68599  -0.68095
 Alpha  occ. eigenvalues --   -0.47245  -0.44935  -0.44841  -0.38790  -0.37763
 Alpha  occ. eigenvalues --   -0.37409  -0.32614  -0.31365  -0.25376  -0.22430
 Alpha  occ. eigenvalues --   -0.22212  -0.22136
 Alpha virt. eigenvalues --   -0.07901   0.01743   0.02603   0.04932   0.05939
 Alpha virt. eigenvalues --    0.06980   0.08915   0.09272   0.09459   0.10441
 Alpha virt. eigenvalues --    0.10709   0.12367   0.13460   0.13747   0.14334
 Alpha virt. eigenvalues --    0.15079   0.16737   0.17873   0.20724   0.21741
 Alpha virt. eigenvalues --    0.24894   0.25419   0.26019   0.26905   0.28216
 Alpha virt. eigenvalues --    0.28755   0.30633   0.32807   0.36141   0.37301
 Alpha virt. eigenvalues --    0.40826   0.46011   0.47780   0.60426   0.62871
 Alpha virt. eigenvalues --    0.65376   0.68386   0.68808   0.70108   0.72033
 Alpha virt. eigenvalues --    0.74865   0.77562   0.80350   0.81965   0.84641
 Alpha virt. eigenvalues --    0.88233   0.90351   0.95595   0.97963   0.98730
 Alpha virt. eigenvalues --    0.99792   1.00894   1.02584   1.03606   1.05184
 Alpha virt. eigenvalues --    1.07432   1.12854   1.14347   1.17444   1.26680
 Alpha virt. eigenvalues --    1.32202   1.34284   1.36363   1.37883   1.44367
 Alpha virt. eigenvalues --    1.47151   1.55784   1.57238   1.67439   1.68896
 Alpha virt. eigenvalues --    1.75391   1.82699   1.85912   1.88778   1.94455
 Alpha virt. eigenvalues --    1.97184   2.03012   2.06706   2.13913   2.25773
 Alpha virt. eigenvalues --    2.28564   2.35278   2.37777   2.52244   2.63451
 Alpha virt. eigenvalues --    2.81477   2.98736   3.02165   3.05448   3.32029
 Alpha virt. eigenvalues --    3.52930   4.20204   4.28334   4.34787   4.43578
 Alpha virt. eigenvalues --    4.53772   4.87433
          Condensed to atoms (all electrons):
               1          2          3          4          5          6
     1  C    9.362030   0.667196   0.379626  -0.159449  -0.096516   0.039807
     2  O    0.667196   8.235406  -0.178545   0.009240   0.000438  -0.005250
     3  C    0.379626  -0.178545   6.182635   0.391241   0.400469   0.336986
     4  H   -0.159449   0.009240   0.391241   0.469905  -0.020912  -0.025798
     5  H   -0.096516   0.000438   0.400469  -0.020912   0.453420  -0.023870
     6  H    0.039807  -0.005250   0.336986  -0.025798  -0.023870   0.478216
     7  Cl   0.259225  -0.055083  -0.115687   0.001622  -0.006767   0.003986
     8  C   -4.540288  -0.205399  -0.783256   0.091073   0.042675  -0.044164
     9  N    0.026725  -0.022413  -0.015843   0.002259  -0.000561  -0.002109
               7          8          9
     1  C    0.259225  -4.540288   0.026725
     2  O   -0.055083  -0.205399  -0.022413
     3  C   -0.115687  -0.783256  -0.015843
     4  H    0.001622   0.091073   0.002259
     5  H   -0.006767   0.042675  -0.000561
     6  H    0.003986  -0.044164  -0.002109
     7  Cl  17.868624  -0.156791  -0.019386
     8  C   -0.156791  10.830688   0.175344
     9  N   -0.019386   0.175344   7.419420
 Mulliken charges:
               1
     1  C    0.061643
     2  O   -0.445591
     3  C   -0.597626
     4  H    0.240818
     5  H    0.251624
     6  H    0.242195
     7  Cl  -0.779742
     8  C    0.590117
     9  N   -0.563437
 Sum of Mulliken charges =  -1.00000
 Mulliken charges with hydrogens summed into heavy atoms:
               1
     1  C    0.061643
     2  O   -0.445591
     3  C    0.137010
     7  Cl  -0.779742
     8  C    0.590117
     9  N   -0.563437
 Electronic spatial extent (au):  <R**2>=            746.1167
 Charge=             -1.0000 electrons
 Dipole moment (field-independent basis, Debye):
    X=             -5.6251    Y=             -3.1093    Z=             -3.0002  Tot=              7.0930
 Quadrupole moment (field-independent basis, Debye-Ang):
   XX=            -63.0304   YY=            -53.5767   ZZ=            -49.3521
   XY=              2.4168   XZ=              2.4525   YZ=              4.5478
 Traceless Quadrupole moment (field-independent basis, Debye-Ang):
   XX=             -7.7107   YY=              1.7430   ZZ=              5.9676
   XY=              2.4168   XZ=              2.4525   YZ=              4.5478
 Octapole moment (field-independent basis, Debye-Ang**2):
  XXX=            -40.7408  YYY=            -25.6523  ZZZ=             -5.0049  XYY=              6.8406
  XXY=             -8.2181  XXZ=             -2.6786  XZZ=              0.0293  YZZ=              0.4141
  YYZ=              1.3799  XYZ=             -5.0500
 Hexadecapole moment (field-independent basis, Debye-Ang**3):
 XXXX=           -617.5263 YYYY=           -380.0337 ZZZZ=           -188.6422 XXXY=              9.2594
 XXXZ=             -0.2046 YYYX=             25.6327 YYYZ=             10.4331 ZZZX=              2.3870
 ZZZY=              3.7032 XXYY=           -165.6642 XXZZ=           -130.2997 YYZZ=            -91.9608
 XXYZ=              5.9812 YYXZ=             -2.2151 ZZXY=             -0.8939
 N-N= 2.515293677679D+02 E-N=-2.181909292612D+03  KE= 7.033119897269D+02
 No NMR shielding tensors so no spin-rotation constants.
 Leave Link  601 at Wed Jan  8 01:40:22 2020, MaxMem=  4294967296 cpu:              12.3 elap:               1.0
 (Enter /home/cwagen/sw/g16/g16/l9999.exe)
 1\1\GINC-NODE004\FOpt\RB3LYP\6-31+G(d)\C3H3Cl1N1O1(1-)\CWAGEN\08-Jan-2
 020\0\\#p opt=modredundant b3lyp/6-31+g(d) scrf=(smd, solvent=tetrahyd
 rofuran)\\title\\-1,1\C,0.0434799218,-0.5208357081,-0.3031691476\O,-0.
 3380594802,-0.733711096,-1.479266143\C,-0.3994537137,-1.4750816972,0.8
 076075346\H,-0.2681620028,-1.0543001189,1.8064957336\H,-1.4462150672,-
 1.7423996196,0.6475849955\H,0.2166946799,-2.381743288,0.7200431313\Cl,
 -1.4931167352,1.4868773313,0.6444378868\C,0.9690012464,0.2147138196,-0
 .0973120023\N,1.971589801,0.7918656969,0.0683967511\\Version=AS64L-G16
 RevA.03\State=1-A\HF=-706.3816272\RMSD=7.281e-09\RMSF=9.457e-02\Dipole
 =0.9689735,-2.58103,0.4321987\Quadrupole=-4.1397748,1.7776462,2.362128
 6,2.3230464,1.4151722,-4.9761448\PG=C01 [X(C3H3Cl1N1O1)]\\@


 THE REASON MAN'S BEST FRIEND IS A DOG IS BECAUSE
 HE WAGS HIS TAIL INSTEAD OF HIS TONGUE.
 Job cpu time:       0 days  1 hours 50 minutes 31.0 seconds.
 Elapsed time:       0 days  0 hours  8 minutes  8.0 seconds.
 File lengths (MBytes):  RWF=     34 Int=      0 D2E=      0 Chk=      4 Scr=      1
 Normal termination of Gaussian 16 at Wed Jan  8 01:40:23 2020.
