 Entering Gaussian System, Link 0=g16
 Input=scan_290_210.gjf
 Output=scan_290_210.out
 Initial command:
 /home/cwagen/sw/g16/g16/l1.exe "/scratch/users/cwagen/cwagen_scan_290_210/Gau-28926.inp" -scrdir="/scratch/users/cwagen/cwagen_scan_290_210/"
 Entering Link 1 = /home/cwagen/sw/g16/g16/l1.exe PID=     28927.
  
 Copyright (c) 1988,1990,1992,1993,1995,1998,2003,2009,2016,
            Gaussian, Inc.  All Rights Reserved.
  
 This is part of the Gaussian(R) 16 program.  It is based on
 the Gaussian(R) 09 system (copyright 2009, Gaussian, Inc.),
 the Gaussian(R) 03 system (copyright 2003, Gaussian, Inc.),
 the Gaussian(R) 98 system (copyright 1998, Gaussian, Inc.),
 the Gaussian(R) 94 system (copyright 1995, Gaussian, Inc.),
 the Gaussian 92(TM) system (copyright 1992, Gaussian, Inc.),
 the Gaussian 90(TM) system (copyright 1990, Gaussian, Inc.),
 the Gaussian 88(TM) system (copyright 1988, Gaussian, Inc.),
 the Gaussian 86(TM) system (copyright 1986, Carnegie Mellon
 University), and the Gaussian 82(TM) system (copyright 1983,
 Carnegie Mellon University). Gaussian is a federally registered
 trademark of Gaussian, Inc.
  
 This software contains proprietary and confidential information,
 including trade secrets, belonging to Gaussian, Inc.
  
 This software is provided under written license and may be
 used, copied, transmitted, or stored only in accord with that
 written license.
  
 The following legend is applicable only to US Government
 contracts under FAR:
  
                    RESTRICTED RIGHTS LEGEND
  
 Use, reproduction and disclosure by the US Government is
 subject to restrictions as set forth in subparagraphs (a)
 and (c) of the Commercial Computer Software - Restricted
 Rights clause in FAR 52.227-19.
  
 Gaussian, Inc.
 340 Quinnipiac St., Bldg. 40, Wallingford CT 06492
  
  
 ---------------------------------------------------------------
 Warning -- This program may not be used in any manner that
 competes with the business of Gaussian, Inc. or will provide
 assistance to any competitor of Gaussian, Inc.  The licensee
 of this program is prohibited from giving any competitor of
 Gaussian, Inc. access to this program.  By using this program,
 the user acknowledges that Gaussian, Inc. is engaged in the
 business of creating and licensing software in the field of
 computational chemistry and represents and warrants to the
 licensee that it is not a competitor of Gaussian, Inc. and that
 it will not use this program in any manner prohibited above.
 ---------------------------------------------------------------
  

 Cite this work as:
 Gaussian 16, Revision A.03,
 M. J. Frisch, G. W. Trucks, H. B. Schlegel, G. E. Scuseria, 
 M. A. Robb, J. R. Cheeseman, G. Scalmani, V. Barone, 
 G. A. Petersson, H. Nakatsuji, X. Li, M. Caricato, A. V. Marenich, 
 J. Bloino, B. G. Janesko, R. Gomperts, B. Mennucci, H. P. Hratchian, 
 J. V. Ortiz, A. F. Izmaylov, J. L. Sonnenberg, D. Williams-Young, 
 F. Ding, F. Lipparini, F. Egidi, J. Goings, B. Peng, A. Petrone, 
 T. Henderson, D. Ranasinghe, V. G. Zakrzewski, J. Gao, N. Rega, 
 G. Zheng, W. Liang, M. Hada, M. Ehara, K. Toyota, R. Fukuda, 
 J. Hasegawa, M. Ishida, T. Nakajima, Y. Honda, O. Kitao, H. Nakai, 
 T. Vreven, K. Throssell, J. A. Montgomery, Jr., J. E. Peralta, 
 F. Ogliaro, M. J. Bearpark, J. J. Heyd, E. N. Brothers, K. N. Kudin, 
 V. N. Staroverov, T. A. Keith, R. Kobayashi, J. Normand, 
 K. Raghavachari, A. P. Rendell, J. C. Burant, S. S. Iyengar, 
 J. Tomasi, M. Cossi, J. M. Millam, M. Klene, C. Adamo, R. Cammi, 
 J. W. Ochterski, R. L. Martin, K. Morokuma, O. Farkas, 
 J. B. Foresman, and D. J. Fox, Gaussian, Inc., Wallingford CT, 2016.
 
 ******************************************
 Gaussian 16:  AS64L-G16RevA.03 25-Dec-2016
                 8-Jan-2020 
 ******************************************
 %nprocshared=16
 Will use up to   16 processors via shared memory.
 %mem=32GB
 ----------------------------------------------------------------------
 #p opt=modredundant b3lyp/6-31+g(d) scrf=(smd, solvent=tetrahydrofuran
 )
 ----------------------------------------------------------------------
 1/18=120,19=15,26=3,38=1/1,3;
 2/9=110,12=2,17=6,18=5,40=1/2;
 3/5=1,6=6,7=11,11=2,25=1,30=1,70=32201,71=1,72=20,74=-5/1,2,3;
 4//1;
 5/5=2,38=5,53=20/2;
 6/7=2,8=2,9=2,10=2,28=1/1;
 7//1,2,3,16;
 1/18=20,19=15,26=3/3(2);
 2/9=110/2;
 99//99;
 2/9=110/2;
 3/5=1,6=6,7=11,11=2,25=1,30=1,70=32205,71=1,72=20,74=-5/1,2,3;
 4/5=5,16=3,69=1/1;
 5/5=2,38=5,53=20/2;
 7//1,2,3,16;
 1/18=20,19=15,26=3/3(-5);
 2/9=110/2;
 6/7=2,8=2,9=2,10=2,19=2,28=1/1;
 99/9=1/99;
 Leave Link    1 at Wed Jan  8 02:04:09 2020, MaxMem=  4294967296 cpu:               1.4 elap:               0.1
 (Enter /home/cwagen/sw/g16/g16/l101.exe)
 -----
 title
 -----
 Symbolic Z-matrix:
 Charge = -1 Multiplicity = 1
 6                    -0.19426  -0.292    -0.21291 
 8                    -0.25532  -0.66526  -1.45426 
 6                    -0.33095  -1.45422   0.81632 
 1                    -0.18039  -1.13044   1.85373 
 1                    -1.34067  -1.87301   0.71427 
 1                     0.39707  -2.23395   0.57058 
 17                   -1.93061   1.9107    0.52413 
 6                     1.75269   0.38977   0.18022 
 7                     2.88726   0.67007   0.21052 
 
 Add virtual bond connecting atoms C8         and C1         Dist= 3.97D+00.
 Add virtual bond connecting atoms Cl7        and C1         Dist= 5.48D+00.
 The following ModRedundant input section has been read:
 B       1       7 F                                                           
 B       1       8 F                                                           
 
 ITRead=  0  0  0  0  0  0  0  0  0
 MicOpt= -1 -1 -1 -1 -1 -1 -1 -1 -1
 NAtoms=      9 NQM=        9 NQMF=       0 NMMI=      0 NMMIF=      0
                NMic=       0 NMicF=      0.
                    Isotopes and Nuclear Properties:
 (Nuclear quadrupole moments (NQMom) in fm**2, nuclear magnetic moments (NMagM)
  in nuclear magnetons)

  Atom         1           2           3           4           5           6           7           8           9
 IAtWgt=          12          16          12           1           1           1          35          12          14
 AtmWgt=  12.0000000  15.9949146  12.0000000   1.0078250   1.0078250   1.0078250  34.9688527  12.0000000  14.0030740
 NucSpn=           0           0           0           1           1           1           3           0           2
 AtZEff=   0.0000000   0.0000000   0.0000000   0.0000000   0.0000000   0.0000000   0.0000000   0.0000000   0.0000000
 NQMom=    0.0000000   0.0000000   0.0000000   0.0000000   0.0000000   0.0000000  -8.1650000   0.0000000   2.0440000
 NMagM=    0.0000000   0.0000000   0.0000000   2.7928460   2.7928460   2.7928460   0.8218740   0.0000000   0.4037610
 AtZNuc=   6.0000000   8.0000000   6.0000000   1.0000000   1.0000000   1.0000000  17.0000000   6.0000000   7.0000000
 Leave Link  101 at Wed Jan  8 02:04:10 2020, MaxMem=  4294967296 cpu:               7.0 elap:               0.6
 (Enter /home/cwagen/sw/g16/g16/l103.exe)

 GradGradGradGradGradGradGradGradGradGradGradGradGradGradGradGradGradGrad
 Berny optimization.
 Initialization pass.
                           ----------------------------
                           !    Initial Parameters    !
                           ! (Angstroms and Degrees)  !
 --------------------------                            --------------------------
 ! Name  Definition              Value          Derivative Info.                !
 --------------------------------------------------------------------------------
 ! R1    R(1,2)                  1.2977         estimate D2E/DX2                !
 ! R2    R(1,3)                  1.5584         estimate D2E/DX2                !
 ! R3    R(1,7)                  2.9            Frozen                          !
 ! R4    R(1,8)                  2.1            Frozen                          !
 ! R5    R(3,4)                  1.0971         estimate D2E/DX2                !
 ! R6    R(3,5)                  1.0979         estimate D2E/DX2                !
 ! R7    R(3,6)                  1.0947         estimate D2E/DX2                !
 ! R8    R(8,9)                  1.1691         estimate D2E/DX2                !
 ! A1    A(2,1,3)              114.4006         estimate D2E/DX2                !
 ! A2    A(2,1,7)              115.6846         estimate D2E/DX2                !
 ! A3    A(2,1,8)              108.426          estimate D2E/DX2                !
 ! A4    A(3,1,7)              110.248          estimate D2E/DX2                !
 ! A5    A(3,1,8)              101.5248         estimate D2E/DX2                !
 ! A6    A(7,1,8)              105.1256         estimate D2E/DX2                !
 ! A7    A(1,3,4)              113.1005         estimate D2E/DX2                !
 ! A8    A(1,3,5)              107.683          estimate D2E/DX2                !
 ! A9    A(1,3,6)              108.9421         estimate D2E/DX2                !
 ! A10   A(4,3,5)              109.0662         estimate D2E/DX2                !
 ! A11   A(4,3,6)              109.3417         estimate D2E/DX2                !
 ! A12   A(5,3,6)              108.6067         estimate D2E/DX2                !
 ! A13   L(1,8,9,6,-1)         177.3941         estimate D2E/DX2                !
 ! A14   L(1,8,9,6,-2)         165.9899         estimate D2E/DX2                !
 ! D1    D(2,1,3,4)            174.4714         estimate D2E/DX2                !
 ! D2    D(2,1,3,5)            -64.9488         estimate D2E/DX2                !
 ! D3    D(2,1,3,6)             52.6633         estimate D2E/DX2                !
 ! D4    D(7,1,3,4)            -53.1046         estimate D2E/DX2                !
 ! D5    D(7,1,3,5)             67.4752         estimate D2E/DX2                !
 ! D6    D(7,1,3,6)           -174.9127         estimate D2E/DX2                !
 ! D7    D(8,1,3,4)             57.938          estimate D2E/DX2                !
 ! D8    D(8,1,3,5)            178.5177         estimate D2E/DX2                !
 ! D9    D(8,1,3,6)            -63.8702         estimate D2E/DX2                !
 --------------------------------------------------------------------------------
 Trust Radius=3.00D-01 FncErr=1.00D-07 GrdErr=1.00D-06 EigMax=2.50D+02 EigMin=1.00D-04
 Number of steps in this run=     41 maximum allowed number of steps=    100.
 GradGradGradGradGradGradGradGradGradGradGradGradGradGradGradGradGradGrad

 Leave Link  103 at Wed Jan  8 02:04:10 2020, MaxMem=  4294967296 cpu:               0.8 elap:               0.2
 (Enter /home/cwagen/sw/g16/g16/l202.exe)
                          Input orientation:                          
 ---------------------------------------------------------------------
 Center     Atomic      Atomic             Coordinates (Angstroms)
 Number     Number       Type             X           Y           Z
 ---------------------------------------------------------------------
      1          6           0       -0.194263   -0.291999   -0.212908
      2          8           0       -0.255321   -0.665256   -1.454255
      3          6           0       -0.330945   -1.454221    0.816316
      4          1           0       -0.180394   -1.130438    1.853734
      5          1           0       -1.340665   -1.873010    0.714272
      6          1           0        0.397068   -2.233949    0.570583
      7         17           0       -1.930607    1.910701    0.524130
      8          6           0        1.752693    0.389773    0.180220
      9          7           0        2.887264    0.670071    0.210523
 ---------------------------------------------------------------------
                    Distance matrix (angstroms):
                    1          2          3          4          5
     1  C    0.000000
     2  O    1.297687   0.000000
     3  C    1.558443   2.404928   0.000000
     4  H    2.230287   3.341377   1.097150   0.000000
     5  H    2.161827   2.709087   1.097876   1.787740   0.000000
     6  H    2.175937   2.643176   1.094698   1.788205   1.780629
     7  Cl   2.900000   3.654606   3.737243   3.752281   3.834143
     8  C    2.100000   2.795839   2.854204   2.974645   3.869659
     9  N    3.255869   3.798740   3.903392   3.918226   4.959476
                    6          7          8          9
     6  H    0.000000
     7  Cl   4.753772   0.000000
     8  C    2.978929   3.999774   0.000000
     9  N    3.842402   4.984916   1.169075   0.000000
 Stoichiometry    C3H3ClNO(1-)
 Framework group  C1[X(C3H3ClNO)]
 Deg. of freedom    21
 Full point group                 C1      NOp   1
 Largest Abelian subgroup         C1      NOp   1
 Largest concise Abelian subgroup C1      NOp   1
                         Standard orientation:                         
 ---------------------------------------------------------------------
 Center     Atomic      Atomic             Coordinates (Angstroms)
 Number     Number       Type             X           Y           Z
 ---------------------------------------------------------------------
      1          6           0        0.287504    0.632216    0.207313
      2          8           0        0.529995    1.189829    1.353724
      3          6           0        0.570713    1.543652   -1.024685
      4          1           0        0.451446    1.022041   -1.982513
      5          1           0       -0.132367    2.385933   -0.985028
      6          1           0        1.590046    1.935721   -0.949820
      7         17           0       -2.311418   -0.627923   -0.052795
      8          6           0        1.677979   -0.913898   -0.086131
      9          7           0        2.561123   -1.679922   -0.084843
 ---------------------------------------------------------------------
 Rotational constants (GHZ):           2.8396685           1.3570799           1.1117326
 Leave Link  202 at Wed Jan  8 02:04:10 2020, MaxMem=  4294967296 cpu:               2.3 elap:               0.2
 (Enter /home/cwagen/sw/g16/g16/l301.exe)
 Standard basis: 6-31+G(d) (6D, 7F)
 Ernie: Thresh=  0.10000D-02 Tol=  0.10000D-05 Strict=F.
 There are   124 symmetry adapted cartesian basis functions of A   symmetry.
 There are   124 symmetry adapted basis functions of A   symmetry.
   124 basis functions,   228 primitive gaussians,   124 cartesian basis functions
    27 alpha electrons       27 beta electrons
       nuclear repulsion energy       216.0023678647 Hartrees.
 IExCor=  402 DFT=T Ex+Corr=B3LYP ExCW=0 ScaHFX=  0.200000
 ScaDFX=  0.800000  0.720000  1.000000  0.810000 ScalE2=  1.000000  1.000000
 IRadAn=      5 IRanWt=     -1 IRanGd=            0 ICorTp=0 IEmpDi=  4
 NAtoms=    9 NActive=    9 NUniq=    9 SFac= 1.00D+00 NAtFMM=   60 NAOKFM=F Big=F
 Integral buffers will be    131072 words long.
 Raffenetti 2 integral format.
 Two-electron integral symmetry is turned on.
 ------------------------------------------------------------------------------
 Polarizable Continuum Model (PCM)
 =================================
 Model                : PCM.
 Atomic radii         : SMD-Coulomb.
 Polarization charges : Total charges.
 Charge compensation  : None.
 Solution method      : On-the-fly selection.
 Cavity type          : VdW (van der Waals Surface) (Alpha=1.000).
 Cavity algorithm     : GePol (No added spheres)
                        Default sphere list used, NSphG=    9.
                        Lebedev-Laikov grids with approx.  5.0 points / Ang**2.
                        Smoothing algorithm: York/Karplus (Gamma=1.0000).
                        Polarization charges: spherical gaussians, with
                                              point-specific exponents (IZeta= 3).
                        Self-potential: point-specific (ISelfS= 7).
                        Self-field    : sphere-specific E.n sum rule (ISelfD= 2).
 1st derivatives      : Analytical E(r).r(x)/FMM algorithm (CHGder, D1EAlg=3).
                        Cavity 1st derivative terms included.
 Solvent              : TetraHydroFuran, Eps=   7.425700 Eps(inf)=   1.974025
 ------------------------------------------------------------------------------
 Spheres list:
 ISph  on   Nord     Re0    Alpha      Xe            Ye            Ze
    1   C      1    1.8500  1.000      0.287504      0.632216      0.207313
    2   O      2    2.2940  1.000      0.529995      1.189829      1.353724
    3   C      3    1.8500  1.000      0.570713      1.543652     -1.024685
    4   H      4    1.2000  1.000      0.451446      1.022041     -1.982513
    5   H      5    1.2000  1.000     -0.132367      2.385933     -0.985028
    6   H      6    1.2000  1.000      1.590046      1.935721     -0.949820
    7  Cl      7    2.3800  1.000     -2.311418     -0.627923     -0.052795
    8   C      8    1.8500  1.000      1.677979     -0.913898     -0.086131
    9   N      9    1.8900  1.000      2.561123     -1.679922     -0.084843
 ------------------------------------------------------------------------------
 GePol: Number of generator spheres                  =       9
 GePol: Total number of spheres                      =       9
 GePol: Number of exposed spheres                    =       9 (100.00%)
 GePol: Number of points                             =    1301
 GePol: Average weight of points                     =       0.14
 GePol: Minimum weight of points                     =   0.29D-07
 GePol: Maximum weight of points                     =    0.18138
 GePol: Number of points with low weight             =      35
 GePol: Fraction of low-weight points (<1% of avg)   =       2.69%
 GePol: Cavity surface area                          =    178.907 Ang**2
 GePol: Cavity volume                                =    158.776 Ang**3
 ------------------------------------------------------------------------------
 Atomic radii for non-electrostatic terms: SMD-CDS.
 ------------------------------------------------------------------------------
 PCM non-electrostatic energy =         0.0006781918 Hartrees.
 Nuclear repulsion after PCM non-electrostatic terms =      216.0030460565 Hartrees.
 Leave Link  301 at Wed Jan  8 02:04:10 2020, MaxMem=  4294967296 cpu:               2.1 elap:               0.2
 (Enter /home/cwagen/sw/g16/g16/l302.exe)
 NPDir=0 NMtPBC=     1 NCelOv=     1 NCel=       1 NClECP=     1 NCelD=      1
         NCelK=      1 NCelE2=     1 NClLst=     1 CellRange=     0.0.
 One-electron integrals computed using PRISM.
 One-electron integral symmetry used in STVInt
 NBasis=   124 RedAO= T EigKep=  1.63D-04  NBF=   124
 NBsUse=   124 1.00D-06 EigRej= -1.00D+00 NBFU=   124
 Precomputing XC quadrature grid using
 IXCGrd= 4 IRadAn=           5 IRanWt=          -1 IRanGd=           0 AccXCQ= 0.00D+00.
 Generated NRdTot=       0 NPtTot=           0 NUsed=           0 NTot=          32
 NSgBfM=   123   123   123   123   123 MxSgAt=     9 MxSgA2=     9.
 Leave Link  302 at Wed Jan  8 02:04:14 2020, MaxMem=  4294967296 cpu:              40.6 elap:               3.6
 (Enter /home/cwagen/sw/g16/g16/l303.exe)
 DipDrv:  MaxL=1.
 Leave Link  303 at Wed Jan  8 02:04:14 2020, MaxMem=  4294967296 cpu:               4.3 elap:               0.4
 (Enter /home/cwagen/sw/g16/g16/l401.exe)
 ExpMin= 4.38D-02 ExpMax= 2.52D+04 ExpMxC= 3.78D+03 IAcc=3 IRadAn=         5 AccDes= 0.00D+00
 Harris functional with IExCor=  402 and IRadAn=       5 diagonalized for initial guess.
 HarFok:  IExCor=  402 AccDes= 0.00D+00 IRadAn=         5 IDoV= 1 UseB2=F ITyADJ=14
 ICtDFT=  3500011 ScaDFX=  1.000000  1.000000  1.000000  1.000000
 FoFCou: FMM=F IPFlag=           0 FMFlag=      100000 FMFlg1=           0
         NFxFlg=           0 DoJE=T BraDBF=F KetDBF=T FulRan=T
         wScrn=  0.000000 ICntrl=       500 IOpCl=  0 I1Cent=   200000004 NGrid=           0
         NMat0=    1 NMatS0=      1 NMatT0=    0 NMatD0=    1 NMtDS0=    0 NMtDT0=    0
 Petite list used in FoFCou.
 Harris En= -706.339199211396    
 JPrj=0 DoOrth=F DoCkMO=F.
 Leave Link  401 at Wed Jan  8 02:04:17 2020, MaxMem=  4294967296 cpu:              33.9 elap:               2.9
 (Enter /home/cwagen/sw/g16/g16/l502.exe)
 Keep R1 ints in memory in canonical form, NReq=45236517.
 FoFCou: FMM=F IPFlag=           0 FMFlag=           0 FMFlg1=           0
         NFxFlg=           0 DoJE=F BraDBF=F KetDBF=F FulRan=T
         wScrn=  0.000000 ICntrl=       600 IOpCl=  0 I1Cent=           0 NGrid=           0
         NMat0=    1 NMatS0=   7750 NMatT0=    0 NMatD0=    1 NMtDS0=    0 NMtDT0=    0
 Symmetry not used in FoFCou.
 Two-electron integral symmetry not used.
 Closed shell SCF:
 Using DIIS extrapolation, IDIIS=  1040.
 NGot=  4294967296 LenX=  4264898079 LenY=  4264882262
 Requested convergence on RMS density matrix=1.00D-08 within 128 cycles.
 Requested convergence on MAX density matrix=1.00D-06.
 Requested convergence on             energy=1.00D-06.
 No special actions if energy rises.

 Cycle   1  Pass 1  IDiag  1:
 Inv3:  Mode=1 IEnd=     5077803.
 Iteration    1 A*A^-1 deviation from unit magnitude is 5.66D-15 for   1296.
 Iteration    1 A*A^-1 deviation from orthogonality  is 1.96D-15 for   1298   1110.
 Iteration    1 A^-1*A deviation from unit magnitude is 5.66D-15 for   1296.
 Iteration    1 A^-1*A deviation from orthogonality  is 1.56D-15 for   1300    200.
 E= -706.177144707198    
 DIIS: error= 2.37D-02 at cycle   1 NSaved=   1.
 NSaved= 1 IEnMin= 1 EnMin= -706.177144707198     IErMin= 1 ErrMin= 2.37D-02
 ErrMax= 2.37D-02  0.00D+00 EMaxC= 1.00D-01 BMatC= 1.99D-01 BMatP= 1.99D-01
 IDIUse=3 WtCom= 7.63D-01 WtEn= 2.37D-01
 Coeff-Com:  0.100D+01
 Coeff-En:   0.100D+01
 Coeff:      0.100D+01
 Gap=     0.062 Goal=   None    Shift=    0.000
 GapD=    0.062 DampG=0.500 DampE=0.500 DampFc=0.2500 IDamp=-1.
 Damping current iteration by 2.50D-01
 RMSDP=9.30D-03 MaxDP=1.99D-01              OVMax= 2.77D-01

 Cycle   2  Pass 1  IDiag  1:
 E= -706.227970702467     Delta-E=       -0.050825995269 Rises=F Damp=T
 DIIS: error= 1.64D-02 at cycle   2 NSaved=   2.
 NSaved= 2 IEnMin= 2 EnMin= -706.227970702467     IErMin= 2 ErrMin= 1.64D-02
 ErrMax= 1.64D-02  0.00D+00 EMaxC= 1.00D-01 BMatC= 3.06D-02 BMatP= 1.99D-01
 IDIUse=3 WtCom= 8.36D-01 WtEn= 1.64D-01
 Coeff-Com: -0.169D+00 0.117D+01
 Coeff-En:   0.176D+00 0.824D+00
 Coeff:     -0.112D+00 0.111D+01
 Gap=     0.125 Goal=   None    Shift=    0.000
 RMSDP=3.15D-03 MaxDP=6.45D-02 DE=-5.08D-02 OVMax= 2.64D-01

 Cycle   3  Pass 1  IDiag  1:
 E= -706.294299774763     Delta-E=       -0.066329072296 Rises=F Damp=F
 DIIS: error= 1.92D-02 at cycle   3 NSaved=   3.
 NSaved= 3 IEnMin= 3 EnMin= -706.294299774763     IErMin= 2 ErrMin= 1.64D-02
 ErrMax= 1.92D-02  0.00D+00 EMaxC= 1.00D-01 BMatC= 6.35D-02 BMatP= 3.06D-02
 IDIUse=2 WtCom= 0.00D+00 WtEn= 1.00D+00
 EnCoef did     6 forward-backward iterations
 Coeff-En:   0.126D-01 0.129D+00 0.858D+00
 Coeff:      0.126D-01 0.129D+00 0.858D+00
 Gap=     0.158 Goal=   None    Shift=    0.000
 RMSDP=6.29D-03 MaxDP=1.72D-01 DE=-6.63D-02 OVMax= 3.34D-01

 Cycle   4  Pass 1  IDiag  1:
 E= -705.961166796869     Delta-E=        0.333132977894 Rises=F Damp=F
 DIIS: error= 4.19D-02 at cycle   4 NSaved=   4.
 NSaved= 4 IEnMin= 3 EnMin= -706.294299774763     IErMin= 2 ErrMin= 1.64D-02
 ErrMax= 4.19D-02  0.00D+00 EMaxC= 1.00D-01 BMatC= 4.53D-01 BMatP= 3.06D-02
 IDIUse=2 WtCom= 0.00D+00 WtEn= 1.00D+00
 Coeff-En:   0.000D+00 0.000D+00 0.799D+00 0.201D+00
 Coeff:      0.000D+00 0.000D+00 0.799D+00 0.201D+00
 Gap=     0.153 Goal=   None    Shift=    0.000
 RMSDP=3.60D-03 MaxDP=1.04D-01 DE= 3.33D-01 OVMax= 1.76D-01

 Cycle   5  Pass 1  IDiag  1:
 E= -706.330236794184     Delta-E=       -0.369069997315 Rises=F Damp=F
 DIIS: error= 1.04D-02 at cycle   5 NSaved=   5.
 NSaved= 5 IEnMin= 5 EnMin= -706.330236794184     IErMin= 5 ErrMin= 1.04D-02
 ErrMax= 1.04D-02  0.00D+00 EMaxC= 1.00D-01 BMatC= 2.59D-02 BMatP= 3.06D-02
 IDIUse=3 WtCom= 8.96D-01 WtEn= 1.04D-01
 Coeff-Com: -0.108D+00 0.210D+00 0.374D+00-0.241D-01 0.547D+00
 Coeff-En:   0.000D+00 0.000D+00 0.342D+00 0.000D+00 0.658D+00
 Coeff:     -0.969D-01 0.189D+00 0.371D+00-0.216D-01 0.559D+00
 Gap=     0.116 Goal=   None    Shift=    0.000
 RMSDP=1.67D-03 MaxDP=4.50D-02 DE=-3.69D-01 OVMax= 8.07D-02

 Cycle   6  Pass 1  IDiag  1:
 E= -706.356567764519     Delta-E=       -0.026330970335 Rises=F Damp=F
 DIIS: error= 1.41D-03 at cycle   6 NSaved=   6.
 NSaved= 6 IEnMin= 6 EnMin= -706.356567764519     IErMin= 6 ErrMin= 1.41D-03
 ErrMax= 1.41D-03  0.00D+00 EMaxC= 1.00D-01 BMatC= 7.35D-04 BMatP= 2.59D-02
 IDIUse=3 WtCom= 9.86D-01 WtEn= 1.41D-02
 Coeff-Com: -0.800D-01 0.120D+00 0.179D+00-0.411D-01 0.374D+00 0.448D+00
 Coeff-En:   0.000D+00 0.000D+00 0.000D+00 0.000D+00 0.000D+00 0.100D+01
 Coeff:     -0.788D-01 0.118D+00 0.177D+00-0.405D-01 0.369D+00 0.456D+00
 Gap=     0.121 Goal=   None    Shift=    0.000
 RMSDP=4.16D-04 MaxDP=1.30D-02 DE=-2.63D-02 OVMax= 2.17D-02

 Cycle   7  Pass 1  IDiag  1:
 E= -706.357393375533     Delta-E=       -0.000825611014 Rises=F Damp=F
 DIIS: error= 3.90D-04 at cycle   7 NSaved=   7.
 NSaved= 7 IEnMin= 7 EnMin= -706.357393375533     IErMin= 7 ErrMin= 3.90D-04
 ErrMax= 3.90D-04  0.00D+00 EMaxC= 1.00D-01 BMatC= 3.82D-05 BMatP= 7.35D-04
 IDIUse=3 WtCom= 9.96D-01 WtEn= 3.90D-03
 Coeff-Com: -0.204D-01 0.299D-01 0.362D-01-0.130D-01 0.845D-01 0.224D+00
 Coeff-Com:  0.659D+00
 Coeff-En:   0.000D+00 0.000D+00 0.000D+00 0.000D+00 0.000D+00 0.215D-01
 Coeff-En:   0.979D+00
 Coeff:     -0.203D-01 0.298D-01 0.361D-01-0.130D-01 0.842D-01 0.223D+00
 Coeff:      0.660D+00
 Gap=     0.120 Goal=   None    Shift=    0.000
 RMSDP=9.02D-05 MaxDP=2.66D-03 DE=-8.26D-04 OVMax= 4.30D-03

 Cycle   8  Pass 1  IDiag  1:
 E= -706.357437916518     Delta-E=       -0.000044540985 Rises=F Damp=F
 DIIS: error= 9.28D-05 at cycle   8 NSaved=   8.
 NSaved= 8 IEnMin= 8 EnMin= -706.357437916518     IErMin= 8 ErrMin= 9.28D-05
 ErrMax= 9.28D-05  0.00D+00 EMaxC= 1.00D-01 BMatC= 3.84D-06 BMatP= 3.82D-05
 IDIUse=1 WtCom= 1.00D+00 WtEn= 0.00D+00
 Coeff-Com: -0.285D-03-0.115D-02 0.405D-03-0.923D-03 0.285D-02 0.823D-01
 Coeff-Com:  0.344D+00 0.573D+00
 Coeff:     -0.285D-03-0.115D-02 0.405D-03-0.923D-03 0.285D-02 0.823D-01
 Coeff:      0.344D+00 0.573D+00
 Gap=     0.120 Goal=   None    Shift=    0.000
 RMSDP=1.80D-05 MaxDP=5.07D-04 DE=-4.45D-05 OVMax= 9.00D-04

 Cycle   9  Pass 1  IDiag  1:
 E= -706.357441628336     Delta-E=       -0.000003711818 Rises=F Damp=F
 DIIS: error= 2.59D-05 at cycle   9 NSaved=   9.
 NSaved= 9 IEnMin= 9 EnMin= -706.357441628336     IErMin= 9 ErrMin= 2.59D-05
 ErrMax= 2.59D-05  0.00D+00 EMaxC= 1.00D-01 BMatC= 1.65D-07 BMatP= 3.84D-06
 IDIUse=1 WtCom= 1.00D+00 WtEn= 0.00D+00
 Coeff-Com:  0.112D-03-0.191D-03-0.216D-02-0.159D-03-0.367D-02 0.219D-01
 Coeff-Com:  0.898D-01 0.218D+00 0.676D+00
 Coeff:      0.112D-03-0.191D-03-0.216D-02-0.159D-03-0.367D-02 0.219D-01
 Coeff:      0.898D-01 0.218D+00 0.676D+00
 Gap=     0.120 Goal=   None    Shift=    0.000
 RMSDP=8.89D-06 MaxDP=3.19D-04 DE=-3.71D-06 OVMax= 3.25D-04

 Cycle  10  Pass 1  IDiag  1:
 E= -706.357441820068     Delta-E=       -0.000000191732 Rises=F Damp=F
 DIIS: error= 1.25D-05 at cycle  10 NSaved=  10.
 NSaved=10 IEnMin=10 EnMin= -706.357441820068     IErMin=10 ErrMin= 1.25D-05
 ErrMax= 1.25D-05  0.00D+00 EMaxC= 1.00D-01 BMatC= 2.90D-08 BMatP= 1.65D-07
 IDIUse=1 WtCom= 1.00D+00 WtEn= 0.00D+00
 Coeff-Com:  0.206D-03-0.330D-03-0.944D-03 0.122D-03-0.173D-02 0.277D-02
 Coeff-Com:  0.212D-02 0.364D-01 0.342D+00 0.619D+00
 Coeff:      0.206D-03-0.330D-03-0.944D-03 0.122D-03-0.173D-02 0.277D-02
 Coeff:      0.212D-02 0.364D-01 0.342D+00 0.619D+00
 Gap=     0.120 Goal=   None    Shift=    0.000
 RMSDP=2.32D-06 MaxDP=5.48D-05 DE=-1.92D-07 OVMax= 1.21D-04

 Cycle  11  Pass 1  IDiag  1:
 E= -706.357441850878     Delta-E=       -0.000000030809 Rises=F Damp=F
 DIIS: error= 2.54D-06 at cycle  11 NSaved=  11.
 NSaved=11 IEnMin=11 EnMin= -706.357441850878     IErMin=11 ErrMin= 2.54D-06
 ErrMax= 2.54D-06  0.00D+00 EMaxC= 1.00D-01 BMatC= 2.35D-09 BMatP= 2.90D-08
 IDIUse=1 WtCom= 1.00D+00 WtEn= 0.00D+00
 Coeff-Com:  0.229D-04-0.333D-04-0.137D-03 0.401D-04-0.193D-03-0.848D-03
 Coeff-Com: -0.935D-02-0.809D-02 0.888D-01 0.314D+00 0.616D+00
 Coeff:      0.229D-04-0.333D-04-0.137D-03 0.401D-04-0.193D-03-0.848D-03
 Coeff:     -0.935D-02-0.809D-02 0.888D-01 0.314D+00 0.616D+00
 Gap=     0.120 Goal=   None    Shift=    0.000
 RMSDP=6.89D-07 MaxDP=1.76D-05 DE=-3.08D-08 OVMax= 1.86D-05

 Cycle  12  Pass 1  IDiag  1:
 E= -706.357441853893     Delta-E=       -0.000000003016 Rises=F Damp=F
 DIIS: error= 7.55D-07 at cycle  12 NSaved=  12.
 NSaved=12 IEnMin=12 EnMin= -706.357441853893     IErMin=12 ErrMin= 7.55D-07
 ErrMax= 7.55D-07  0.00D+00 EMaxC= 1.00D-01 BMatC= 1.69D-10 BMatP= 2.35D-09
 IDIUse=1 WtCom= 1.00D+00 WtEn= 0.00D+00
 Coeff-Com: -0.165D-04 0.339D-04 0.156D-04-0.712D-06 0.643D-04-0.976D-03
 Coeff-Com: -0.489D-02-0.877D-02-0.694D-02 0.692D-01 0.230D+00 0.723D+00
 Coeff:     -0.165D-04 0.339D-04 0.156D-04-0.712D-06 0.643D-04-0.976D-03
 Coeff:     -0.489D-02-0.877D-02-0.694D-02 0.692D-01 0.230D+00 0.723D+00
 Gap=     0.120 Goal=   None    Shift=    0.000
 RMSDP=2.39D-07 MaxDP=4.02D-06 DE=-3.02D-09 OVMax= 8.83D-06

 Cycle  13  Pass 1  IDiag  1:
 E= -706.357441854111     Delta-E=       -0.000000000218 Rises=F Damp=F
 DIIS: error= 1.39D-07 at cycle  13 NSaved=  13.
 NSaved=13 IEnMin=13 EnMin= -706.357441854111     IErMin=13 ErrMin= 1.39D-07
 ErrMax= 1.39D-07  0.00D+00 EMaxC= 1.00D-01 BMatC= 6.13D-12 BMatP= 1.69D-10
 IDIUse=1 WtCom= 1.00D+00 WtEn= 0.00D+00
 Coeff-Com: -0.946D-06 0.155D-05 0.134D-04-0.168D-05 0.222D-04-0.102D-03
 Coeff-Com: -0.111D-03-0.804D-03-0.714D-02-0.334D-02-0.544D-02 0.139D+00
 Coeff-Com:  0.878D+00
 Coeff:     -0.946D-06 0.155D-05 0.134D-04-0.168D-05 0.222D-04-0.102D-03
 Coeff:     -0.111D-03-0.804D-03-0.714D-02-0.334D-02-0.544D-02 0.139D+00
 Coeff:      0.878D+00
 Gap=     0.120 Goal=   None    Shift=    0.000
 RMSDP=4.45D-08 MaxDP=8.33D-07 DE=-2.18D-10 OVMax= 1.38D-06

 Cycle  14  Pass 1  IDiag  1:
 E= -706.357441854117     Delta-E=       -0.000000000005 Rises=F Damp=F
 DIIS: error= 5.10D-08 at cycle  14 NSaved=  14.
 NSaved=14 IEnMin=14 EnMin= -706.357441854117     IErMin=14 ErrMin= 5.10D-08
 ErrMax= 5.10D-08  0.00D+00 EMaxC= 1.00D-01 BMatC= 4.76D-13 BMatP= 6.13D-12
 IDIUse=1 WtCom= 1.00D+00 WtEn= 0.00D+00
 Coeff-Com:  0.167D-05-0.264D-05 0.150D-05-0.137D-06-0.790D-06 0.207D-04
 Coeff-Com:  0.189D-03 0.225D-03-0.115D-02-0.260D-02-0.124D-01-0.641D-02
 Coeff-Com:  0.129D+00 0.893D+00
 Coeff:      0.167D-05-0.264D-05 0.150D-05-0.137D-06-0.790D-06 0.207D-04
 Coeff:      0.189D-03 0.225D-03-0.115D-02-0.260D-02-0.124D-01-0.641D-02
 Coeff:      0.129D+00 0.893D+00
 Gap=     0.120 Goal=   None    Shift=    0.000
 RMSDP=1.25D-08 MaxDP=3.30D-07 DE=-5.23D-12 OVMax= 4.80D-07

 Cycle  15  Pass 1  IDiag  1:
 E= -706.357441854118     Delta-E=       -0.000000000002 Rises=F Damp=F
 DIIS: error= 8.11D-09 at cycle  15 NSaved=  15.
 NSaved=15 IEnMin=15 EnMin= -706.357441854118     IErMin=15 ErrMin= 8.11D-09
 ErrMax= 8.11D-09  0.00D+00 EMaxC= 1.00D-01 BMatC= 1.95D-14 BMatP= 4.76D-13
 IDIUse=1 WtCom= 1.00D+00 WtEn= 0.00D+00
 Coeff-Com:  0.366D-06-0.552D-06 0.193D-06-0.636D-07-0.125D-06 0.872D-05
 Coeff-Com:  0.409D-04 0.611D-04 0.999D-04-0.129D-03-0.223D-02-0.631D-02
 Coeff-Com: -0.185D-01 0.164D+00 0.863D+00
 Coeff:      0.366D-06-0.552D-06 0.193D-06-0.636D-07-0.125D-06 0.872D-05
 Coeff:      0.409D-04 0.611D-04 0.999D-04-0.129D-03-0.223D-02-0.631D-02
 Coeff:     -0.185D-01 0.164D+00 0.863D+00
 Gap=     0.120 Goal=   None    Shift=    0.000
 RMSDP=2.91D-09 MaxDP=1.05D-07 DE=-1.71D-12 OVMax= 9.61D-08

 Error on total polarization charges =  0.02379
 SCF Done:  E(RB3LYP) =  -706.357441854     A.U. after   15 cycles
            NFock= 15  Conv=0.29D-08     -V/T= 2.0064
 KE= 7.018494504876D+02 PE=-2.109069871259D+03 EE= 4.848599328604D+02
 SMD-CDS (non-electrostatic) energy       (kcal/mol) =       0.43
 (included in total energy above)
 Leave Link  502 at Wed Jan  8 02:05:13 2020, MaxMem=  4294967296 cpu:             703.2 elap:              56.1
 (Enter /home/cwagen/sw/g16/g16/l601.exe)
 Copying SCF densities to generalized density rwf, IOpCl= 0 IROHF=0.

 **********************************************************************

            Population analysis using the SCF density.

 **********************************************************************

 Orbital symmetries:
       Occupied  (A) (A) (A) (A) (A) (A) (A) (A) (A) (A) (A) (A)
                 (A) (A) (A) (A) (A) (A) (A) (A) (A) (A) (A) (A)
                 (A) (A) (A)
       Virtual   (A) (A) (A) (A) (A) (A) (A) (A) (A) (A) (A) (A)
                 (A) (A) (A) (A) (A) (A) (A) (A) (A) (A) (A) (A)
                 (A) (A) (A) (A) (A) (A) (A) (A) (A) (A) (A) (A)
                 (A) (A) (A) (A) (A) (A) (A) (A) (A) (A) (A) (A)
                 (A) (A) (A) (A) (A) (A) (A) (A) (A) (A) (A) (A)
                 (A) (A) (A) (A) (A) (A) (A) (A) (A) (A) (A) (A)
                 (A) (A) (A) (A) (A) (A) (A) (A) (A) (A) (A) (A)
                 (A) (A) (A) (A) (A) (A) (A) (A) (A) (A) (A) (A)
                 (A)
 The electronic state is 1-A.
 Alpha  occ. eigenvalues -- -101.45166 -19.19551 -14.31492 -10.35931 -10.20788
 Alpha  occ. eigenvalues --  -10.20164  -9.36405  -7.12427  -7.12071  -7.12069
 Alpha  occ. eigenvalues --   -1.03580  -0.87335  -0.74107  -0.69666  -0.55527
 Alpha  occ. eigenvalues --   -0.46421  -0.43914  -0.43581  -0.39507  -0.36329
 Alpha  occ. eigenvalues --   -0.35830  -0.31541  -0.31434  -0.28024  -0.24343
 Alpha  occ. eigenvalues --   -0.23731  -0.23716
 Alpha virt. eigenvalues --   -0.11706  -0.02018   0.03089   0.04335   0.04553
 Alpha virt. eigenvalues --    0.05577   0.06362   0.07445   0.08615   0.09351
 Alpha virt. eigenvalues --    0.09923   0.10034   0.10951   0.11849   0.13169
 Alpha virt. eigenvalues --    0.14016   0.14892   0.16359   0.16590   0.19997
 Alpha virt. eigenvalues --    0.22254   0.23434   0.24251   0.24955   0.25452
 Alpha virt. eigenvalues --    0.26449   0.27875   0.28406   0.31040   0.32627
 Alpha virt. eigenvalues --    0.34527   0.36404   0.39984   0.59244   0.62721
 Alpha virt. eigenvalues --    0.64915   0.66311   0.66966   0.68287   0.70035
 Alpha virt. eigenvalues --    0.71846   0.74157   0.75666   0.78674   0.79223
 Alpha virt. eigenvalues --    0.84690   0.86544   0.93960   0.96171   0.96746
 Alpha virt. eigenvalues --    0.97054   0.97611   0.97986   0.99930   1.01359
 Alpha virt. eigenvalues --    1.02620   1.08575   1.13055   1.15147   1.19639
 Alpha virt. eigenvalues --    1.26225   1.28953   1.30369   1.33380   1.45631
 Alpha virt. eigenvalues --    1.46473   1.49853   1.55293   1.56228   1.56834
 Alpha virt. eigenvalues --    1.60481   1.65689   1.75185   1.80151   1.87134
 Alpha virt. eigenvalues --    1.88796   1.95915   1.99000   1.99844   2.11193
 Alpha virt. eigenvalues --    2.18424   2.23240   2.27631   2.47853   2.48817
 Alpha virt. eigenvalues --    2.57145   2.62829   2.65343   2.70544   2.93896
 Alpha virt. eigenvalues --    3.06543   4.02050   4.13533   4.23948   4.27505
 Alpha virt. eigenvalues --    4.36871   4.43937
          Condensed to atoms (all electrons):
               1          2          3          4          5          6
     1  C    5.109305   0.532830   0.101264  -0.058944  -0.055999   0.006857
     2  O    0.532830   7.987978  -0.130402   0.007698  -0.000624  -0.012252
     3  C    0.101264  -0.130402   5.719284   0.374996   0.373426   0.363724
     4  H   -0.058944   0.007698   0.374996   0.450382  -0.020958  -0.026255
     5  H   -0.055999  -0.000624   0.373426  -0.020958   0.447367  -0.022649
     6  H    0.006857  -0.012252   0.363724  -0.026255  -0.022649   0.434951
     7  Cl   0.143537  -0.025377  -0.057884   0.002219  -0.001382   0.000686
     8  C   -0.156701  -0.097628  -0.063865   0.012816   0.018355  -0.023573
     9  N   -0.015469  -0.002338  -0.002040  -0.000734  -0.000069   0.000252
               7          8          9
     1  C    0.143537  -0.156701  -0.015469
     2  O   -0.025377  -0.097628  -0.002338
     3  C   -0.057884  -0.063865  -0.002040
     4  H    0.002219   0.012816  -0.000734
     5  H   -0.001382   0.018355  -0.000069
     6  H    0.000686  -0.023573   0.000252
     7  Cl  17.699087  -0.047387  -0.002468
     8  C   -0.047387   5.682736   0.637814
     9  N   -0.002468   0.637814   6.965962
 Mulliken charges:
               1
     1  C    0.393319
     2  O   -0.259885
     3  C   -0.678502
     4  H    0.258781
     5  H    0.262534
     6  H    0.278260
     7  Cl  -0.711031
     8  C    0.037433
     9  N   -0.580909
 Sum of Mulliken charges =  -1.00000
 Mulliken charges with hydrogens summed into heavy atoms:
               1
     1  C    0.393319
     2  O   -0.259885
     3  C    0.121072
     7  Cl  -0.711031
     8  C    0.037433
     9  N   -0.580909
 Electronic spatial extent (au):  <R**2>=           1056.3711
 Charge=             -1.0000 electrons
 Dipole moment (field-independent basis, Debye):
    X=              2.6230    Y=              7.0412    Z=             -2.6704  Tot=              7.9743
 Quadrupole moment (field-independent basis, Debye-Ang):
   XX=            -79.8238   YY=            -52.7719   ZZ=            -47.9816
   XY=              6.5110   XZ=             -1.6837   YZ=             -5.1339
 Traceless Quadrupole moment (field-independent basis, Debye-Ang):
   XX=            -19.6313   YY=              7.4205   ZZ=             12.2108
   XY=              6.5110   XZ=             -1.6837   YZ=             -5.1339
 Octapole moment (field-independent basis, Debye-Ang**2):
  XXX=              2.6648  YYY=             33.3783  ZZZ=             -4.3249  XYY=            -14.1470
  XXY=             46.8903  XXZ=              2.3387  XZZ=              0.7624  YZZ=              2.9891
  YYZ=             -4.8957  XYZ=             -3.4762
 Hexadecapole moment (field-independent basis, Debye-Ang**3):
 XXXX=          -1163.5336 YYYY=           -427.1866 ZZZZ=           -181.3087 XXXY=             76.5578
 XXXZ=              2.7410 YYYX=             47.2634 YYYZ=            -11.0526 ZZZX=             -1.8938
 ZZZY=             -5.7431 XXYY=           -283.4382 XXZZ=           -191.3549 YYZZ=           -101.2601
 XXYZ=             -5.5531 YYXZ=             -0.8746 ZZXY=              3.1664
 N-N= 2.160030460565D+02 E-N=-2.109069871132D+03  KE= 7.018494504876D+02
 No NMR shielding tensors so no spin-rotation constants.
 Leave Link  601 at Wed Jan  8 02:05:15 2020, MaxMem=  4294967296 cpu:              19.5 elap:               1.9
 (Enter /home/cwagen/sw/g16/g16/l701.exe)
 ... and contract with generalized density number  0.
 Compute integral first derivatives.
 D1PCM: PCM CHGder 1st derivatives, ID1Alg=3 FixD1E=F DoIter=F DoCFld=F I1PDM=0.
 GePol: Maximum number of non-zero 1st derivatives   =     409
 Leave Link  701 at Wed Jan  8 02:05:21 2020, MaxMem=  4294967296 cpu:              66.3 elap:               6.1
 (Enter /home/cwagen/sw/g16/g16/l702.exe)
 L702 exits ... SP integral derivatives will be done elsewhere.
 Leave Link  702 at Wed Jan  8 02:05:22 2020, MaxMem=  4294967296 cpu:               1.2 elap:               0.2
 (Enter /home/cwagen/sw/g16/g16/l703.exe)
 Integral derivatives from FoFJK, PRISM(SPDF).
 Compute integral first derivatives, UseDBF=F ICtDFT=           0.
 Calling FoFJK, ICntrl=      2127 FMM=F ISym2X=0 I1Cent= 0 IOpClX= 0 NMat=1 NMatS=1 NMatT=0.
 FoFJK:  IHMeth= 1 ICntrl=    2127 DoSepK=F KAlg= 0 I1Cent=           0 FoldK=F
 IRaf=         0 NMat=       1 IRICut=       1 DoRegI=T DoRafI=F ISym2E= 0 IDoP0=0 IntGTp=1.
 FoFCou: FMM=F IPFlag=           0 FMFlag=      100000 FMFlg1=         800
         NFxFlg=           0 DoJE=F BraDBF=F KetDBF=F FulRan=T
         wScrn=  0.000000 ICntrl=      2127 IOpCl=  0 I1Cent=           0 NGrid=           0
         NMat0=    1 NMatS0=      1 NMatT0=    0 NMatD0=    1 NMtDS0=    0 NMtDT0=    0
 Symmetry not used in FoFCou.
 Leave Link  703 at Wed Jan  8 02:05:25 2020, MaxMem=  4294967296 cpu:              39.3 elap:               3.5
 (Enter /home/cwagen/sw/g16/g16/l716.exe)
 Dipole        = 1.03195468D+00 2.77021143D+00-1.05062788D+00
 ***** Axes restored to original set *****
 -------------------------------------------------------------------
 Center     Atomic                   Forces (Hartrees/Bohr)
 Number     Number              X              Y              Z
 -------------------------------------------------------------------
      1        6           0.044953426   -0.089062951   -0.115920558
      2        8          -0.004447086    0.068492543    0.121816826
      3        6          -0.016957294    0.025479680    0.013854036
      4        1          -0.000524787    0.001947423   -0.004407285
      5        1           0.000980864    0.001848929   -0.000336254
      6        1           0.002757697    0.006041912   -0.005282291
      7       17           0.010683869   -0.013237535   -0.003511316
      8        6          -0.039323681   -0.001094466   -0.007401055
      9        7           0.001876991   -0.000415536    0.001187895
 -------------------------------------------------------------------
 Cartesian Forces:  Max     0.121816826 RMS     0.041311273
 Leave Link  716 at Wed Jan  8 02:05:25 2020, MaxMem=  4294967296 cpu:               1.2 elap:               0.1
 (Enter /home/cwagen/sw/g16/g16/l103.exe)

 GradGradGradGradGradGradGradGradGradGradGradGradGradGradGradGradGradGrad
 Berny optimization.
 FormGI is forming the generalized inverse of G from B-inverse, IUseBI=4.
 Internal  Forces:  Max     0.136019442 RMS     0.028787364
 Search for a local minimum.
 Step number   1 out of a maximum of   41
 All quantities printed in internal units (Hartrees-Bohrs-Radians)
 RMS Force = .28809D-01 SwitMx=.10000D-02 MixMth= 1
 Mixed Optimization -- RFO/linear search
 Second derivative matrix not updated -- first step.
 ITU=  0
     Eigenvalues ---    0.00230   0.04746   0.04746   0.05330   0.05908
     Eigenvalues ---    0.07453   0.10176   0.16000   0.16000   0.16000
     Eigenvalues ---    0.25000   0.25000   0.25000   0.26946   0.33918
     Eigenvalues ---    0.33999   0.34275   0.67840   1.220341000.00000
     Eigenvalues --- 1000.000001000.000001000.000001000.000001000.00000
     Eigenvalues --- 1000.000001000.000001000.000001000.000001000.00000
     Eigenvalues --- 1000.00000
 RFO step:  Lambda=-4.78883508D-02 EMin= 2.30000000D-03
 Linear search not attempted -- first point.
 Maximum step size (   0.300) exceeded in Quadratic search.
    -- Step size scaled by   0.916
 Iteration  1 RMS(Cart)=  0.06995043 RMS(Int)=  0.00747610
 Iteration  2 RMS(Cart)=  0.00781292 RMS(Int)=  0.00352736
 Iteration  3 RMS(Cart)=  0.00006455 RMS(Int)=  0.00352695
 Iteration  4 RMS(Cart)=  0.00000125 RMS(Int)=  0.00352695
 Iteration  5 RMS(Cart)=  0.00000001 RMS(Int)=  0.00352695
 Iteration  1 RMS(Cart)=  0.00000000 RMS(Int)=  0.00000000
 ITry= 1 IFail=0 DXMaxC= 1.80D-01 DCOld= 1.00D+10 DXMaxT= 3.00D-01 DXLimC= 3.00D+00 Rises=F
 Variable       Old X    -DE/DX   Delta X   Delta X   Delta X     New X
                                 (Linear)    (Quad)   (Total)
    R1        2.45227  -0.13602   0.00000  -0.17152  -0.17152   2.28075
    R2        2.94503  -0.02257   0.00000  -0.06515  -0.06515   2.87988
    R3        5.48021  -0.01734   0.00000   0.00000   0.00000   5.48021
    R4        3.96842  -0.03633   0.00000   0.00000   0.00000   3.96842
    R5        2.07331  -0.00367   0.00000  -0.00866  -0.00866   2.06465
    R6        2.07468  -0.00158   0.00000  -0.00373  -0.00373   2.07096
    R7        2.06868  -0.00140   0.00000  -0.00327  -0.00327   2.06541
    R8        2.20923   0.00175   0.00000   0.00127   0.00127   2.21050
    A1        1.99667   0.05243   0.00000   0.17070   0.16602   2.16269
    A2        2.01908  -0.02258   0.00000  -0.08224  -0.07828   1.94080
    A3        1.89239  -0.01125   0.00000   0.01174  -0.00151   1.89088
    A4        1.92419  -0.02227   0.00000  -0.08731  -0.08415   1.84004
    A5        1.77194   0.01467   0.00000   0.05534   0.04648   1.81842
    A6        1.83479  -0.01136   0.00000  -0.06704  -0.06619   1.76860
    A7        1.97398  -0.00240   0.00000  -0.01133  -0.01163   1.96235
    A8        1.87942   0.00078   0.00000   0.00626   0.00627   1.88569
    A9        1.90140  -0.01120   0.00000  -0.05148  -0.05183   1.84957
   A10        1.90356   0.00183   0.00000   0.01187   0.01190   1.91546
   A11        1.90837   0.00607   0.00000   0.02166   0.02100   1.92937
   A12        1.89554   0.00517   0.00000   0.02438   0.02437   1.91992
   A13        3.09611  -0.00233   0.00000  -0.02242  -0.02242   3.07369
   A14        2.89707   0.00162   0.00000   0.01554   0.01554   2.91261
    D1        3.04510   0.00753   0.00000   0.05222   0.05638   3.10148
    D2       -1.13357   0.00886   0.00000   0.06431   0.06828  -1.06529
    D3        0.91915   0.00938   0.00000   0.06895   0.07275   0.99190
    D4       -0.92685   0.00201   0.00000   0.00769   0.00726  -0.91959
    D5        1.17766   0.00333   0.00000   0.01978   0.01915   1.19682
    D6       -3.05280   0.00386   0.00000   0.02442   0.02363  -3.02917
    D7        1.01121  -0.01186   0.00000  -0.07300  -0.07617   0.93504
    D8        3.11572  -0.01053   0.00000  -0.06090  -0.06427   3.05145
    D9       -1.11475  -0.01000   0.00000  -0.05626  -0.05980  -1.17454
         Item               Value     Threshold  Converged?
 Maximum Force            0.136019     0.000450     NO 
 RMS     Force            0.028809     0.000300     NO 
 Maximum Displacement     0.180445     0.001800     NO 
 RMS     Displacement     0.069125     0.001200     NO 
 Predicted change in Energy=-2.681225D-02
 Lowest energy point so far.  Saving SCF results.
 GradGradGradGradGradGradGradGradGradGradGradGradGradGradGradGradGradGrad

 Leave Link  103 at Wed Jan  8 02:05:33 2020, MaxMem=  4294967296 cpu:              92.5 elap:               8.0
 (Enter /home/cwagen/sw/g16/g16/l202.exe)
                          Input orientation:                          
 ---------------------------------------------------------------------
 Center     Atomic      Atomic             Coordinates (Angstroms)
 Number     Number       Type             X           Y           Z
 ---------------------------------------------------------------------
      1          6           0       -0.158613   -0.387486   -0.248685
      2          8           0       -0.242216   -0.596201   -1.434480
      3          6           0       -0.353066   -1.457598    0.818802
      4          1           0       -0.195905   -1.072227    1.828997
      5          1           0       -1.372755   -1.848267    0.725993
      6          1           0        0.370839   -2.244263    0.591437
      7         17           0       -1.863280    1.818226    0.550652
      8          6           0        1.747424    0.398081    0.151199
      9          7           0        2.872401    0.711406    0.218701
 ---------------------------------------------------------------------
                    Distance matrix (angstroms):
                    1          2          3          4          5
     1  C    0.000000
     2  O    1.206922   0.000000
     3  C    1.523968   2.414865   0.000000
     4  H    2.187927   3.298337   1.092568   0.000000
     5  H    2.134952   2.741063   1.095903   1.789926   0.000000
     6  H    2.105646   2.682589   1.092966   1.796225   1.793053
     7  Cl   2.900000   3.521088   3.617136   3.573378   3.703314
     8  C    2.100000   2.731601   2.881197   2.958605   3.887414
     9  N    3.257769   3.760809   3.932981   3.897294   4.983034
                    6          7          8          9
     6  H    0.000000
     7  Cl   4.636461   0.000000
     8  C    3.011773   3.900456   0.000000
     9  N    3.890080   4.874620   1.169745   0.000000
 Stoichiometry    C3H3ClNO(1-)
 Framework group  C1[X(C3H3ClNO)]
 Deg. of freedom    21
 Full point group                 C1      NOp   1
 RotChk:  IX=0 Diff= 6.15D-02
 Largest Abelian subgroup         C1      NOp   1
 Largest concise Abelian subgroup C1      NOp   1
                         Standard orientation:                         
 ---------------------------------------------------------------------
 Center     Atomic      Atomic             Coordinates (Angstroms)
 Number     Number       Type             X           Y           Z
 ---------------------------------------------------------------------
      1          6           0        0.313337    0.706843    0.234482
      2          8           0        0.459344    1.117157    1.360087
      3          6           0        0.446060    1.575069   -1.010928
      4          1           0        0.315679    1.003961   -1.933175
      5          1           0       -0.310199    2.366259   -0.955291
      6          1           0        1.447310    2.011242   -0.968178
      7         17           0       -2.217904   -0.678066   -0.056803
      8          6           0        1.678347   -0.857553   -0.080814
      9          7           0        2.564337   -1.619680   -0.130691
 ---------------------------------------------------------------------
 Rotational constants (GHZ):           2.8687339           1.4237519           1.1609907
 Leave Link  202 at Wed Jan  8 02:05:34 2020, MaxMem=  4294967296 cpu:               2.4 elap:               0.3
 (Enter /home/cwagen/sw/g16/g16/l301.exe)
 Standard basis: 6-31+G(d) (6D, 7F)
 Ernie: Thresh=  0.10000D-02 Tol=  0.10000D-05 Strict=F.
 There are   124 symmetry adapted cartesian basis functions of A   symmetry.
 There are   124 symmetry adapted basis functions of A   symmetry.
   124 basis functions,   228 primitive gaussians,   124 cartesian basis functions
    27 alpha electrons       27 beta electrons
       nuclear repulsion energy       220.0539610333 Hartrees.
 IExCor=  402 DFT=T Ex+Corr=B3LYP ExCW=0 ScaHFX=  0.200000
 ScaDFX=  0.800000  0.720000  1.000000  0.810000 ScalE2=  1.000000  1.000000
 IRadAn=      5 IRanWt=     -1 IRanGd=            0 ICorTp=0 IEmpDi=  4
 NAtoms=    9 NActive=    9 NUniq=    9 SFac= 1.00D+00 NAtFMM=   60 NAOKFM=F Big=F
 Integral buffers will be    131072 words long.
 Raffenetti 2 integral format.
 Two-electron integral symmetry is turned on.
 ------------------------------------------------------------------------------
 Polarizable Continuum Model (PCM)
 =================================
 Model                : PCM.
 Atomic radii         : SMD-Coulomb.
 Polarization charges : Total charges.
 Charge compensation  : None.
 Solution method      : On-the-fly selection.
 Cavity type          : VdW (van der Waals Surface) (Alpha=1.000).
 Cavity algorithm     : GePol (No added spheres)
                        Default sphere list used, NSphG=    9.
                        Lebedev-Laikov grids with approx.  5.0 points / Ang**2.
                        Smoothing algorithm: York/Karplus (Gamma=1.0000).
                        Polarization charges: spherical gaussians, with
                                              point-specific exponents (IZeta= 3).
                        Self-potential: point-specific (ISelfS= 7).
                        Self-field    : sphere-specific E.n sum rule (ISelfD= 2).
 1st derivatives      : Analytical E(r).r(x)/FMM algorithm (CHGder, D1EAlg=3).
                        Cavity 1st derivative terms included.
 Solvent              : TetraHydroFuran, Eps=   7.425700 Eps(inf)=   1.974025
 ------------------------------------------------------------------------------
 Spheres list:
 ISph  on   Nord     Re0    Alpha      Xe            Ye            Ze
    1   C      1    1.8500  1.000      0.313337      0.706843      0.234482
    2   O      2    2.2940  1.000      0.459344      1.117157      1.360087
    3   C      3    1.8500  1.000      0.446060      1.575069     -1.010928
    4   H      4    1.2000  1.000      0.315679      1.003961     -1.933175
    5   H      5    1.2000  1.000     -0.310199      2.366259     -0.955291
    6   H      6    1.2000  1.000      1.447310      2.011242     -0.968178
    7  Cl      7    2.3800  1.000     -2.217904     -0.678066     -0.056803
    8   C      8    1.8500  1.000      1.678347     -0.857553     -0.080814
    9   N      9    1.8900  1.000      2.564337     -1.619680     -0.130691
 ------------------------------------------------------------------------------
 GePol: Number of generator spheres                  =       9
 GePol: Total number of spheres                      =       9
 GePol: Number of exposed spheres                    =       9 (100.00%)
 GePol: Number of points                             =    1287
 GePol: Average weight of points                     =       0.14
 GePol: Minimum weight of points                     =   0.59D-08
 GePol: Maximum weight of points                     =    0.18138
 GePol: Number of points with low weight             =      41
 GePol: Fraction of low-weight points (<1% of avg)   =       3.19%
 GePol: Cavity surface area                          =    176.253 Ang**2
 GePol: Cavity volume                                =    157.083 Ang**3
 ------------------------------------------------------------------------------
 Atomic radii for non-electrostatic terms: SMD-CDS.
 ------------------------------------------------------------------------------
 PCM non-electrostatic energy =         0.0004860443 Hartrees.
 Nuclear repulsion after PCM non-electrostatic terms =      220.0544470776 Hartrees.
 Leave Link  301 at Wed Jan  8 02:05:34 2020, MaxMem=  4294967296 cpu:               2.4 elap:               0.2
 (Enter /home/cwagen/sw/g16/g16/l302.exe)
 NPDir=0 NMtPBC=     1 NCelOv=     1 NCel=       1 NClECP=     1 NCelD=      1
         NCelK=      1 NCelE2=     1 NClLst=     1 CellRange=     0.0.
 One-electron integrals computed using PRISM.
 One-electron integral symmetry used in STVInt
 NBasis=   124 RedAO= T EigKep=  1.44D-04  NBF=   124
 NBsUse=   124 1.00D-06 EigRej= -1.00D+00 NBFU=   124
 Precomputing XC quadrature grid using
 IXCGrd= 4 IRadAn=           5 IRanWt=          -1 IRanGd=           0 AccXCQ= 0.00D+00.
 Generated NRdTot=       0 NPtTot=           0 NUsed=           0 NTot=          32
 NSgBfM=   124   124   124   124   124 MxSgAt=     9 MxSgA2=     9.
 Leave Link  302 at Wed Jan  8 02:05:37 2020, MaxMem=  4294967296 cpu:              37.0 elap:               3.4
 (Enter /home/cwagen/sw/g16/g16/l303.exe)
 DipDrv:  MaxL=1.
 Leave Link  303 at Wed Jan  8 02:05:38 2020, MaxMem=  4294967296 cpu:               3.8 elap:               0.4
 (Enter /home/cwagen/sw/g16/g16/l401.exe)
 Initial guess from the checkpoint file:  "/scratch/users/cwagen/cwagen_scan_290_210/Gau-28927.chk"
 B after Tr=     0.000000    0.000000    0.000000
         Rot=    0.999821   -0.009592   -0.002800   -0.016071 Ang=  -2.17 deg.
 Guess basis will be translated and rotated to current coordinates.
 JPrj=2 DoOrth=T DoCkMO=T.
 Generating alternative initial guess.
 ExpMin= 4.38D-02 ExpMax= 2.52D+04 ExpMxC= 3.78D+03 IAcc=2 IRadAn=         4 AccDes= 0.00D+00
 Harris functional with IExCor=  402 and IRadAn=       4 diagonalized for initial guess.
 HarFok:  IExCor=  402 AccDes= 0.00D+00 IRadAn=         4 IDoV= 1 UseB2=F ITyADJ=14
 ICtDFT=  3500011 ScaDFX=  1.000000  1.000000  1.000000  1.000000
 FoFCou: FMM=F IPFlag=           0 FMFlag=      100000 FMFlg1=           0
         NFxFlg=           0 DoJE=T BraDBF=F KetDBF=T FulRan=T
         wScrn=  0.000000 ICntrl=       500 IOpCl=  0 I1Cent=   200000004 NGrid=           0
         NMat0=    1 NMatS0=      1 NMatT0=    0 NMatD0=    1 NMtDS0=    0 NMtDT0=    0
 Petite list used in FoFCou.
 Harris En= -706.369595963067    
 Leave Link  401 at Wed Jan  8 02:05:42 2020, MaxMem=  4294967296 cpu:              57.1 elap:               4.6
 (Enter /home/cwagen/sw/g16/g16/l502.exe)
 Keep R1 ints in memory in canonical form, NReq=45236517.
 FoFCou: FMM=F IPFlag=           0 FMFlag=           0 FMFlg1=           0
         NFxFlg=           0 DoJE=F BraDBF=F KetDBF=F FulRan=T
         wScrn=  0.000000 ICntrl=       600 IOpCl=  0 I1Cent=           0 NGrid=           0
         NMat0=    1 NMatS0=   7750 NMatT0=    0 NMatD0=    1 NMtDS0=    0 NMtDT0=    0
 Symmetry not used in FoFCou.
 Two-electron integral symmetry not used.
 Closed shell SCF:
 Using DIIS extrapolation, IDIIS=  1040.
 NGot=  4294967296 LenX=  4264898079 LenY=  4264882262
 Requested convergence on RMS density matrix=1.00D-08 within 128 cycles.
 Requested convergence on MAX density matrix=1.00D-06.
 Requested convergence on             energy=1.00D-06.
 No special actions if energy rises.

 Cycle   1  Pass 1  IDiag  1:
 Inv3:  Mode=1 IEnd=     4969107.
 Iteration    1 A*A^-1 deviation from unit magnitude is 5.44D-15 for   1269.
 Iteration    1 A*A^-1 deviation from orthogonality  is 2.55D-15 for   1287    256.
 Iteration    1 A^-1*A deviation from unit magnitude is 5.88D-15 for   1269.
 Iteration    1 A^-1*A deviation from orthogonality  is 2.64D-15 for   1275   1274.
 E= -706.374571844766    
 DIIS: error= 6.26D-03 at cycle   1 NSaved=   1.
 NSaved= 1 IEnMin= 1 EnMin= -706.374571844766     IErMin= 1 ErrMin= 6.26D-03
 ErrMax= 6.26D-03  0.00D+00 EMaxC= 1.00D-01 BMatC= 1.02D-02 BMatP= 1.02D-02
 IDIUse=3 WtCom= 9.37D-01 WtEn= 6.26D-02
 Coeff-Com:  0.100D+01
 Coeff-En:   0.100D+01
 Coeff:      0.100D+01
 Gap=     0.568 Goal=   None    Shift=    0.000
 GapD=    0.568 DampG=2.000 DampE=1.000 DampFc=2.0000 IDamp=-1.
 RMSDP=1.89D-03 MaxDP=3.36D-02              OVMax= 4.20D-02

 Cycle   2  Pass 1  IDiag  1:
 E= -706.390790231862     Delta-E=       -0.016218387096 Rises=F Damp=F
 DIIS: error= 1.92D-03 at cycle   2 NSaved=   2.
 NSaved= 2 IEnMin= 2 EnMin= -706.390790231862     IErMin= 2 ErrMin= 1.92D-03
 ErrMax= 1.92D-03  0.00D+00 EMaxC= 1.00D-01 BMatC= 8.29D-04 BMatP= 1.02D-02
 IDIUse=3 WtCom= 9.81D-01 WtEn= 1.92D-02
 Coeff-Com:  0.941D-01 0.906D+00
 Coeff-En:   0.000D+00 0.100D+01
 Coeff:      0.923D-01 0.908D+00
 Gap=     0.146 Goal=   None    Shift=    0.000
 RMSDP=5.69D-04 MaxDP=1.56D-02 DE=-1.62D-02 OVMax= 2.56D-02

 Cycle   3  Pass 1  IDiag  1:
 E= -706.389949271175     Delta-E=        0.000840960686 Rises=F Damp=F
 DIIS: error= 2.73D-03 at cycle   3 NSaved=   3.
 NSaved= 3 IEnMin= 2 EnMin= -706.390790231862     IErMin= 2 ErrMin= 1.92D-03
 ErrMax= 2.73D-03  0.00D+00 EMaxC= 1.00D-01 BMatC= 1.88D-03 BMatP= 8.29D-04
 IDIUse=3 WtCom= 1.61D-01 WtEn= 8.39D-01
 Coeff-Com: -0.173D-01 0.615D+00 0.402D+00
 Coeff-En:   0.000D+00 0.660D+00 0.340D+00
 Coeff:     -0.278D-02 0.653D+00 0.350D+00
 Gap=     0.140 Goal=   None    Shift=    0.000
 RMSDP=3.68D-04 MaxDP=1.05D-02 DE= 8.41D-04 OVMax= 1.54D-02

 Cycle   4  Pass 1  IDiag  1:
 E= -706.391501007258     Delta-E=       -0.001551736083 Rises=F Damp=F
 DIIS: error= 6.97D-04 at cycle   4 NSaved=   4.
 NSaved= 4 IEnMin= 4 EnMin= -706.391501007258     IErMin= 4 ErrMin= 6.97D-04
 ErrMax= 6.97D-04  0.00D+00 EMaxC= 1.00D-01 BMatC= 8.19D-05 BMatP= 8.29D-04
 IDIUse=3 WtCom= 9.93D-01 WtEn= 6.97D-03
 Coeff-Com: -0.234D-01 0.265D+00 0.212D+00 0.546D+00
 Coeff-En:   0.000D+00 0.000D+00 0.000D+00 0.100D+01
 Coeff:     -0.232D-01 0.263D+00 0.210D+00 0.549D+00
 Gap=     0.138 Goal=   None    Shift=    0.000
 RMSDP=1.34D-04 MaxDP=4.34D-03 DE=-1.55D-03 OVMax= 2.87D-03

 Cycle   5  Pass 1  IDiag  1:
 E= -706.391563016330     Delta-E=       -0.000062009072 Rises=F Damp=F
 DIIS: error= 2.28D-04 at cycle   5 NSaved=   5.
 NSaved= 5 IEnMin= 5 EnMin= -706.391563016330     IErMin= 5 ErrMin= 2.28D-04
 ErrMax= 2.28D-04  0.00D+00 EMaxC= 1.00D-01 BMatC= 1.26D-05 BMatP= 8.19D-05
 IDIUse=3 WtCom= 9.98D-01 WtEn= 2.28D-03
 Coeff-Com: -0.795D-02 0.830D-01 0.851D-01 0.313D+00 0.526D+00
 Coeff-En:   0.000D+00 0.000D+00 0.000D+00 0.123D+00 0.877D+00
 Coeff:     -0.793D-02 0.828D-01 0.849D-01 0.313D+00 0.527D+00
 Gap=     0.140 Goal=   None    Shift=    0.000
 RMSDP=7.38D-05 MaxDP=3.09D-03 DE=-6.20D-05 OVMax= 2.17D-03

 Cycle   6  Pass 1  IDiag  1:
 E= -706.391577331855     Delta-E=       -0.000014315525 Rises=F Damp=F
 DIIS: error= 7.88D-05 at cycle   6 NSaved=   6.
 NSaved= 6 IEnMin= 6 EnMin= -706.391577331855     IErMin= 6 ErrMin= 7.88D-05
 ErrMax= 7.88D-05  0.00D+00 EMaxC= 1.00D-01 BMatC= 1.51D-06 BMatP= 1.26D-05
 IDIUse=1 WtCom= 1.00D+00 WtEn= 0.00D+00
 Coeff-Com: -0.224D-02 0.157D-01 0.240D-01 0.118D+00 0.310D+00 0.535D+00
 Coeff:     -0.224D-02 0.157D-01 0.240D-01 0.118D+00 0.310D+00 0.535D+00
 Gap=     0.139 Goal=   None    Shift=    0.000
 RMSDP=1.52D-05 MaxDP=4.84D-04 DE=-1.43D-05 OVMax= 4.59D-04

 Cycle   7  Pass 1  IDiag  1:
 E= -706.391578724174     Delta-E=       -0.000001392318 Rises=F Damp=F
 DIIS: error= 4.34D-05 at cycle   7 NSaved=   7.
 NSaved= 7 IEnMin= 7 EnMin= -706.391578724174     IErMin= 7 ErrMin= 4.34D-05
 ErrMax= 4.34D-05  0.00D+00 EMaxC= 1.00D-01 BMatC= 2.34D-07 BMatP= 1.51D-06
 IDIUse=1 WtCom= 1.00D+00 WtEn= 0.00D+00
 Coeff-Com: -0.574D-03 0.771D-04 0.527D-02 0.418D-01 0.151D+00 0.337D+00
 Coeff-Com:  0.465D+00
 Coeff:     -0.574D-03 0.771D-04 0.527D-02 0.418D-01 0.151D+00 0.337D+00
 Coeff:      0.465D+00
 Gap=     0.139 Goal=   None    Shift=    0.000
 RMSDP=4.74D-06 MaxDP=1.11D-04 DE=-1.39D-06 OVMax= 2.03D-04

 Cycle   8  Pass 1  IDiag  1:
 E= -706.391578917350     Delta-E=       -0.000000193176 Rises=F Damp=F
 DIIS: error= 1.89D-05 at cycle   8 NSaved=   8.
 NSaved= 8 IEnMin= 8 EnMin= -706.391578917350     IErMin= 8 ErrMin= 1.89D-05
 ErrMax= 1.89D-05  0.00D+00 EMaxC= 1.00D-01 BMatC= 3.56D-08 BMatP= 2.34D-07
 IDIUse=1 WtCom= 1.00D+00 WtEn= 0.00D+00
 Coeff-Com:  0.166D-03-0.355D-02-0.244D-02-0.241D-04 0.330D-01 0.858D-01
 Coeff-Com:  0.299D+00 0.588D+00
 Coeff:      0.166D-03-0.355D-02-0.244D-02-0.241D-04 0.330D-01 0.858D-01
 Coeff:      0.299D+00 0.588D+00
 Gap=     0.139 Goal=   None    Shift=    0.000
 RMSDP=2.09D-06 MaxDP=5.38D-05 DE=-1.93D-07 OVMax= 6.51D-05

 Cycle   9  Pass 1  IDiag  1:
 E= -706.391578948391     Delta-E=       -0.000000031042 Rises=F Damp=F
 DIIS: error= 3.51D-06 at cycle   9 NSaved=   9.
 NSaved= 9 IEnMin= 9 EnMin= -706.391578948391     IErMin= 9 ErrMin= 3.51D-06
 ErrMax= 3.51D-06  0.00D+00 EMaxC= 1.00D-01 BMatC= 2.55D-09 BMatP= 3.56D-08
 IDIUse=1 WtCom= 1.00D+00 WtEn= 0.00D+00
 Coeff-Com:  0.117D-03-0.180D-02-0.188D-02-0.319D-02 0.702D-02 0.145D-01
 Coeff-Com:  0.118D+00 0.299D+00 0.568D+00
 Coeff:      0.117D-03-0.180D-02-0.188D-02-0.319D-02 0.702D-02 0.145D-01
 Coeff:      0.118D+00 0.299D+00 0.568D+00
 Gap=     0.139 Goal=   None    Shift=    0.000
 RMSDP=9.01D-07 MaxDP=3.44D-05 DE=-3.10D-08 OVMax= 3.65D-05

 Cycle  10  Pass 1  IDiag  1:
 E= -706.391578951651     Delta-E=       -0.000000003260 Rises=F Damp=F
 DIIS: error= 7.47D-07 at cycle  10 NSaved=  10.
 NSaved=10 IEnMin=10 EnMin= -706.391578951651     IErMin=10 ErrMin= 7.47D-07
 ErrMax= 7.47D-07  0.00D+00 EMaxC= 1.00D-01 BMatC= 1.72D-10 BMatP= 2.55D-09
 IDIUse=1 WtCom= 1.00D+00 WtEn= 0.00D+00
 Coeff-Com:  0.291D-04-0.232D-03-0.520D-03-0.121D-02-0.854D-03-0.651D-02
 Coeff-Com:  0.563D-02 0.418D-01 0.224D+00 0.738D+00
 Coeff:      0.291D-04-0.232D-03-0.520D-03-0.121D-02-0.854D-03-0.651D-02
 Coeff:      0.563D-02 0.418D-01 0.224D+00 0.738D+00
 Gap=     0.139 Goal=   None    Shift=    0.000
 RMSDP=2.07D-07 MaxDP=6.84D-06 DE=-3.26D-09 OVMax= 6.72D-06

 Cycle  11  Pass 1  IDiag  1:
 E= -706.391578951866     Delta-E=       -0.000000000215 Rises=F Damp=F
 DIIS: error= 1.55D-07 at cycle  11 NSaved=  11.
 NSaved=11 IEnMin=11 EnMin= -706.391578951866     IErMin=11 ErrMin= 1.55D-07
 ErrMax= 1.55D-07  0.00D+00 EMaxC= 1.00D-01 BMatC= 2.83D-12 BMatP= 1.72D-10
 IDIUse=1 WtCom= 1.00D+00 WtEn= 0.00D+00
 Coeff-Com:  0.316D-05 0.113D-04-0.575D-04-0.222D-03-0.527D-03-0.230D-02
 Coeff-Com: -0.374D-02-0.317D-03 0.339D-01 0.193D+00 0.780D+00
 Coeff:      0.316D-05 0.113D-04-0.575D-04-0.222D-03-0.527D-03-0.230D-02
 Coeff:     -0.374D-02-0.317D-03 0.339D-01 0.193D+00 0.780D+00
 Gap=     0.139 Goal=   None    Shift=    0.000
 RMSDP=7.64D-08 MaxDP=3.62D-06 DE=-2.15D-10 OVMax= 8.66D-07

 Cycle  12  Pass 1  IDiag  1:
 E= -706.391578951865     Delta-E=        0.000000000002 Rises=F Damp=F
 DIIS: error= 2.94D-08 at cycle  12 NSaved=  12.
 NSaved=12 IEnMin=11 EnMin= -706.391578951866     IErMin=12 ErrMin= 2.94D-08
 ErrMax= 2.94D-08  0.00D+00 EMaxC= 1.00D-01 BMatC= 3.21D-13 BMatP= 2.83D-12
 IDIUse=1 WtCom= 1.00D+00 WtEn= 0.00D+00
 Coeff-Com:  0.619D-07 0.120D-04 0.522D-05-0.288D-04-0.131D-03-0.421D-03
 Coeff-Com: -0.152D-02-0.150D-02 0.185D-02 0.334D-01 0.278D+00 0.691D+00
 Coeff:      0.619D-07 0.120D-04 0.522D-05-0.288D-04-0.131D-03-0.421D-03
 Coeff:     -0.152D-02-0.150D-02 0.185D-02 0.334D-01 0.278D+00 0.691D+00
 Gap=     0.139 Goal=   None    Shift=    0.000
 RMSDP=1.11D-08 MaxDP=4.62D-07 DE= 1.59D-12 OVMax= 2.40D-07

 Cycle  13  Pass 1  IDiag  1:
 E= -706.391578951866     Delta-E=       -0.000000000001 Rises=F Damp=F
 DIIS: error= 1.12D-08 at cycle  13 NSaved=  13.
 NSaved=13 IEnMin=11 EnMin= -706.391578951866     IErMin=13 ErrMin= 1.12D-08
 ErrMax= 1.12D-08  0.00D+00 EMaxC= 1.00D-01 BMatC= 3.59D-14 BMatP= 3.21D-13
 IDIUse=1 WtCom= 1.00D+00 WtEn= 0.00D+00
 Coeff-Com: -0.316D-06 0.414D-05 0.809D-05 0.654D-05-0.946D-05 0.332D-04
 Coeff-Com: -0.313D-03-0.557D-03-0.249D-02-0.441D-02 0.456D-01 0.310D+00
 Coeff-Com:  0.652D+00
 Coeff:     -0.316D-06 0.414D-05 0.809D-05 0.654D-05-0.946D-05 0.332D-04
 Coeff:     -0.313D-03-0.557D-03-0.249D-02-0.441D-02 0.456D-01 0.310D+00
 Coeff:      0.652D+00
 Gap=     0.139 Goal=   None    Shift=    0.000
 RMSDP=2.99D-09 MaxDP=1.04D-07 DE=-6.82D-13 OVMax= 9.45D-08

 Error on total polarization charges =  0.02468
 SCF Done:  E(RB3LYP) =  -706.391578952     A.U. after   13 cycles
            NFock= 13  Conv=0.30D-08     -V/T= 2.0060
 KE= 7.021496952993D+02 PE=-2.117412867146D+03 EE= 4.888171458177D+02
 SMD-CDS (non-electrostatic) energy       (kcal/mol) =       0.30
 (included in total energy above)
 Leave Link  502 at Wed Jan  8 02:06:35 2020, MaxMem=  4294967296 cpu:             647.1 elap:              52.4
 (Enter /home/cwagen/sw/g16/g16/l701.exe)
 ... and contract with generalized density number  0.
 Compute integral first derivatives.
 D1PCM: PCM CHGder 1st derivatives, ID1Alg=3 FixD1E=F DoIter=F DoCFld=F I1PDM=0.
 GePol: Maximum number of non-zero 1st derivatives   =     406
 Leave Link  701 at Wed Jan  8 02:06:41 2020, MaxMem=  4294967296 cpu:              75.4 elap:               6.1
 (Enter /home/cwagen/sw/g16/g16/l702.exe)
 L702 exits ... SP integral derivatives will be done elsewhere.
 Leave Link  702 at Wed Jan  8 02:06:41 2020, MaxMem=  4294967296 cpu:               1.2 elap:               0.1
 (Enter /home/cwagen/sw/g16/g16/l703.exe)
 Integral derivatives from FoFJK, PRISM(SPDF).
 Compute integral first derivatives, UseDBF=F ICtDFT=           0.
 Calling FoFJK, ICntrl=      2127 FMM=F ISym2X=0 I1Cent= 0 IOpClX= 0 NMat=1 NMatS=1 NMatT=0.
 FoFJK:  IHMeth= 1 ICntrl=    2127 DoSepK=F KAlg= 0 I1Cent=           0 FoldK=F
 IRaf=         0 NMat=       1 IRICut=       1 DoRegI=T DoRafI=F ISym2E= 0 IDoP0=0 IntGTp=1.
 FoFCou: FMM=F IPFlag=           0 FMFlag=      100000 FMFlg1=         800
         NFxFlg=           0 DoJE=F BraDBF=F KetDBF=F FulRan=T
         wScrn=  0.000000 ICntrl=      2127 IOpCl=  0 I1Cent=           0 NGrid=           0
         NMat0=    1 NMatS0=      1 NMatT0=    0 NMatD0=    1 NMtDS0=    0 NMtDT0=    0
 Symmetry not used in FoFCou.
 Leave Link  703 at Wed Jan  8 02:06:44 2020, MaxMem=  4294967296 cpu:              39.0 elap:               3.5
 (Enter /home/cwagen/sw/g16/g16/l716.exe)
 Dipole        = 1.15166690D+00 3.24151395D+00-8.77669707D-01
 ***** Axes restored to original set *****
 -------------------------------------------------------------------
 Center     Atomic                   Forces (Hartrees/Bohr)
 Number     Number              X              Y              Z
 -------------------------------------------------------------------
      1        6           0.040707372   -0.041150950   -0.049361713
      2        8          -0.008414384    0.031479954    0.049144960
      3        6          -0.011351985    0.023089717    0.009175396
      4        1           0.000303515    0.000054776   -0.002017955
      5        1           0.000609153    0.000346512   -0.000628150
      6        1           0.002334257    0.001242142   -0.001818224
      7       17           0.007139720   -0.009935069   -0.002406871
      8        6          -0.032495984   -0.005421017   -0.002400514
      9        7           0.001168336    0.000293935    0.000313070
 -------------------------------------------------------------------
 Cartesian Forces:  Max     0.049361713 RMS     0.020433986
 Leave Link  716 at Wed Jan  8 02:06:45 2020, MaxMem=  4294967296 cpu:               1.0 elap:               0.1
 (Enter /home/cwagen/sw/g16/g16/l103.exe)

 GradGradGradGradGradGradGradGradGradGradGradGradGradGradGradGradGradGrad
 Berny optimization.
 Using GEDIIS/GDIIS optimizer.
 FormGI is forming the generalized inverse of G from B-inverse, IUseBI=4.
 Internal  Forces:  Max     0.053150406 RMS     0.014295653
 Search for a local minimum.
 Step number   2 out of a maximum of   41
 All quantities printed in internal units (Hartrees-Bohrs-Radians)
 RMS Force = .13437D-01 SwitMx=.10000D-02 MixMth= 1
 Mixed Optimization -- RFO/linear search
 Update second derivatives using D2CorX and points    1    2
 DE= -3.41D-02 DEPred=-2.68D-02 R= 1.27D+00
 TightC=F SS=  1.41D+00  RLast= 3.37D-01 DXNew= 5.0454D-01 1.0106D+00
 Trust test= 1.27D+00 RLast= 3.37D-01 DXMaxT set to 5.05D-01
 ITU=  1  0
 Use linear search instead of GDIIS.
     Eigenvalues ---    0.00230   0.04746   0.04759   0.05435   0.05535
     Eigenvalues ---    0.06128   0.09020   0.15992   0.16000   0.16080
     Eigenvalues ---    0.20068   0.25000   0.25714   0.26819   0.33918
     Eigenvalues ---    0.33993   0.34293   0.62019   1.220301000.00000
     Eigenvalues --- 1000.000001000.000001000.000001000.000001000.00000
     Eigenvalues --- 1000.000001000.000001000.000001000.000001000.00000
     Eigenvalues --- 1000.00000
 RFO step:  Lambda=-3.22154286D-03 EMin= 2.30058610D-03
 Quartic linear search produced a step of  0.69364.
 Iteration  1 RMS(Cart)=  0.08355798 RMS(Int)=  0.01116734
 Iteration  2 RMS(Cart)=  0.00942307 RMS(Int)=  0.00647205
 Iteration  3 RMS(Cart)=  0.00011663 RMS(Int)=  0.00647134
 Iteration  4 RMS(Cart)=  0.00000269 RMS(Int)=  0.00647134
 Iteration  5 RMS(Cart)=  0.00000003 RMS(Int)=  0.00647134
 Iteration  1 RMS(Cart)=  0.00000000 RMS(Int)=  0.00000000
 ITry= 1 IFail=0 DXMaxC= 2.29D-01 DCOld= 1.00D+10 DXMaxT= 5.05D-01 DXLimC= 3.00D+00 Rises=F
 Variable       Old X    -DE/DX   Delta X   Delta X   Delta X     New X
                                 (Linear)    (Quad)   (Total)
    R1        2.28075  -0.05315  -0.11897   0.00866  -0.11032   2.17044
    R2        2.87988  -0.01305  -0.04519  -0.01277  -0.05796   2.82192
    R3        5.48021  -0.01241   0.00000   0.00000   0.00000   5.48021
    R4        3.96842  -0.03074   0.00000   0.00000   0.00000   3.96842
    R5        2.06465  -0.00181  -0.00601  -0.00051  -0.00652   2.05814
    R6        2.07096  -0.00062  -0.00259   0.00054  -0.00205   2.06891
    R7        2.06541   0.00100  -0.00227   0.00810   0.00583   2.07124
    R8        2.21050   0.00123   0.00088   0.00075   0.00163   2.21213
    A1        2.16269   0.03421   0.11516   0.06599   0.17143   2.33413
    A2        1.94080  -0.01285  -0.05430  -0.03298  -0.07656   1.86425
    A3        1.89088  -0.00512  -0.00105   0.04505   0.02179   1.91267
    A4        1.84004  -0.01707  -0.05837  -0.05981  -0.11024   1.72980
    A5        1.81842  -0.00017   0.03224  -0.02262  -0.00940   1.80902
    A6        1.76860  -0.00520  -0.04591  -0.00737  -0.05488   1.71372
    A7        1.96235  -0.00053  -0.00806   0.01064   0.00237   1.96472
    A8        1.88569   0.00007   0.00435  -0.00658  -0.00224   1.88345
    A9        1.84957  -0.00413  -0.03595   0.02392  -0.01230   1.83727
   A10        1.91546   0.00098   0.00825  -0.00263   0.00565   1.92111
   A11        1.92937   0.00161   0.01457  -0.01123   0.00286   1.93223
   A12        1.91992   0.00190   0.01691  -0.01385   0.00301   1.92293
   A13        3.07369  -0.00032  -0.01555   0.05055   0.03500   3.10869
   A14        2.91261   0.00032   0.01078  -0.03174  -0.02096   2.89164
    D1        3.10148   0.00807   0.03911   0.01668   0.06202  -3.11968
    D2       -1.06529   0.00900   0.04736   0.01563   0.06907  -0.99623
    D3        0.99190   0.00910   0.05046   0.00870   0.06514   1.05704
    D4       -0.91959   0.00112   0.00504  -0.03871  -0.03626  -0.95585
    D5        1.19682   0.00205   0.01329  -0.03977  -0.02921   1.16760
    D6       -3.02917   0.00215   0.01639  -0.04670  -0.03314  -3.06231
    D7        0.93504  -0.01049  -0.05283  -0.07551  -0.13159   0.80345
    D8        3.05145  -0.00956  -0.04458  -0.07656  -0.12454   2.92691
    D9       -1.17454  -0.00947  -0.04148  -0.08349  -0.12847  -1.30301
         Item               Value     Threshold  Converged?
 Maximum Force            0.053150     0.000450     NO 
 RMS     Force            0.013437     0.000300     NO 
 Maximum Displacement     0.229402     0.001800     NO 
 RMS     Displacement     0.085390     0.001200     NO 
 Predicted change in Energy=-1.472425D-02
 Lowest energy point so far.  Saving SCF results.
 GradGradGradGradGradGradGradGradGradGradGradGradGradGradGradGradGradGrad

 Leave Link  103 at Wed Jan  8 02:06:52 2020, MaxMem=  4294967296 cpu:              88.0 elap:               7.2
 (Enter /home/cwagen/sw/g16/g16/l202.exe)
                          Input orientation:                          
 ---------------------------------------------------------------------
 Center     Atomic      Atomic             Coordinates (Angstroms)
 Number     Number       Type             X           Y           Z
 ---------------------------------------------------------------------
      1          6           0       -0.120879   -0.479398   -0.309191
      2          8           0       -0.238543   -0.545146   -1.449801
      3          6           0       -0.357911   -1.439027    0.810121
      4          1           0       -0.149768   -1.002618    1.786034
      5          1           0       -1.401929   -1.764683    0.759099
      6          1           0        0.311720   -2.283956    0.612592
      7         17           0       -1.816326    1.696832    0.584946
      8          6           0        1.738120    0.378127    0.158539
      9          7           0        2.840345    0.761541    0.250278
 ---------------------------------------------------------------------
                    Distance matrix (angstroms):
                    1          2          3          4          5
     1  C    0.000000
     2  O    1.148545   0.000000
     3  C    1.493296   2.433212   0.000000
     4  H    2.159760   3.269218   1.089120   0.000000
     5  H    2.105776   2.778484   1.094819   1.789762   0.000000
     6  H    2.072017   2.753128   1.096052   1.797712   1.796581
     7  Cl   2.900000   3.414097   3.465731   3.392205   3.490579
     8  C    2.100000   2.710422   2.849554   2.849442   3.848665
     9  N    3.259108   3.751966   3.922343   3.796259   4.963628
                    6          7          8          9
     6  H    0.000000
     7  Cl   4.513981   0.000000
     8  C    3.054090   3.815088   0.000000
     9  N    3.974956   4.761445   1.170608   0.000000
 Stoichiometry    C3H3ClNO(1-)
 Framework group  C1[X(C3H3ClNO)]
 Deg. of freedom    21
 Full point group                 C1      NOp   1
 RotChk:  IX=0 Diff= 8.78D-02
 Largest Abelian subgroup         C1      NOp   1
 Largest concise Abelian subgroup C1      NOp   1
                         Standard orientation:                         
 ---------------------------------------------------------------------
 Center     Atomic      Atomic             Coordinates (Angstroms)
 Number     Number       Type             X           Y           Z
 ---------------------------------------------------------------------
      1          6           0        0.332420    0.786190    0.257091
      2          8           0        0.387384    1.113458    1.356650
      3          6           0        0.315692    1.525234   -1.040394
      4          1           0        0.233194    0.860417   -1.899111
      5          1           0       -0.529714    2.220605   -1.020982
      6          1           0        1.260696    2.079748   -1.068906
      7         17           0       -2.121948   -0.728557   -0.045595
      8          6           0        1.692661   -0.777633   -0.080852
      9          7           0        2.566463   -1.555102   -0.129166
 ---------------------------------------------------------------------
 Rotational constants (GHZ):           2.9064875           1.4881048           1.2149347
 Leave Link  202 at Wed Jan  8 02:06:52 2020, MaxMem=  4294967296 cpu:               2.4 elap:               0.3
 (Enter /home/cwagen/sw/g16/g16/l301.exe)
 Standard basis: 6-31+G(d) (6D, 7F)
 Ernie: Thresh=  0.10000D-02 Tol=  0.10000D-05 Strict=F.
 There are   124 symmetry adapted cartesian basis functions of A   symmetry.
 There are   124 symmetry adapted basis functions of A   symmetry.
   124 basis functions,   228 primitive gaussians,   124 cartesian basis functions
    27 alpha electrons       27 beta electrons
       nuclear repulsion energy       223.7684436863 Hartrees.
 IExCor=  402 DFT=T Ex+Corr=B3LYP ExCW=0 ScaHFX=  0.200000
 ScaDFX=  0.800000  0.720000  1.000000  0.810000 ScalE2=  1.000000  1.000000
 IRadAn=      5 IRanWt=     -1 IRanGd=            0 ICorTp=0 IEmpDi=  4
 NAtoms=    9 NActive=    9 NUniq=    9 SFac= 1.00D+00 NAtFMM=   60 NAOKFM=F Big=F
 Integral buffers will be    131072 words long.
 Raffenetti 2 integral format.
 Two-electron integral symmetry is turned on.
 ------------------------------------------------------------------------------
 Polarizable Continuum Model (PCM)
 =================================
 Model                : PCM.
 Atomic radii         : SMD-Coulomb.
 Polarization charges : Total charges.
 Charge compensation  : None.
 Solution method      : On-the-fly selection.
 Cavity type          : VdW (van der Waals Surface) (Alpha=1.000).
 Cavity algorithm     : GePol (No added spheres)
                        Default sphere list used, NSphG=    9.
                        Lebedev-Laikov grids with approx.  5.0 points / Ang**2.
                        Smoothing algorithm: York/Karplus (Gamma=1.0000).
                        Polarization charges: spherical gaussians, with
                                              point-specific exponents (IZeta= 3).
                        Self-potential: point-specific (ISelfS= 7).
                        Self-field    : sphere-specific E.n sum rule (ISelfD= 2).
 1st derivatives      : Analytical E(r).r(x)/FMM algorithm (CHGder, D1EAlg=3).
                        Cavity 1st derivative terms included.
 Solvent              : TetraHydroFuran, Eps=   7.425700 Eps(inf)=   1.974025
 ------------------------------------------------------------------------------
 Spheres list:
 ISph  on   Nord     Re0    Alpha      Xe            Ye            Ze
    1   C      1    1.8500  1.000      0.332420      0.786190      0.257091
    2   O      2    2.2940  1.000      0.387384      1.113458      1.356650
    3   C      3    1.8500  1.000      0.315692      1.525234     -1.040394
    4   H      4    1.2000  1.000      0.233194      0.860417     -1.899111
    5   H      5    1.2000  1.000     -0.529714      2.220605     -1.020982
    6   H      6    1.2000  1.000      1.260696      2.079748     -1.068906
    7  Cl      7    2.3800  1.000     -2.121948     -0.728557     -0.045595
    8   C      8    1.8500  1.000      1.692661     -0.777633     -0.080852
    9   N      9    1.8900  1.000      2.566463     -1.555102     -0.129166
 ------------------------------------------------------------------------------
 GePol: Number of generator spheres                  =       9
 GePol: Total number of spheres                      =       9
[...]
 -------------------------------------------------------------------
 Cartesian Forces:  Max     0.026927615 RMS     0.008397378
 Leave Link  716 at Wed Jan  8 02:15:20 2020, MaxMem=  4294967296 cpu:               1.1 elap:               0.1
 (Enter /home/cwagen/sw/g16/g16/l103.exe)

 GradGradGradGradGradGradGradGradGradGradGradGradGradGradGradGradGradGrad
 Berny optimization.
 Using GEDIIS/GDIIS optimizer.
 FormGI is forming the generalized inverse of G from B-inverse, IUseBI=4.
 Internal  Forces:  Max     0.030841884 RMS     0.005539417
 Search for a local minimum.
 Step number  10 out of a maximum of   41
 All quantities printed in internal units (Hartrees-Bohrs-Radians)
 RMS Force = .14413D-04 SwitMx=.10000D-02 MixMth= 2
 Mixed Optimization -- En-DIIS/RFO-DIIS
 Swapping is turned off.
 Update second derivatives using D2CorX and points    4    5    6    7    8
                                                      9   10
 DE= -4.93D-07 DEPred=-1.48D-07 R= 3.34D+00
 Trust test= 3.34D+00 RLast= 5.44D-03 DXMaxT set to 1.18D+00
 ITU=  0  1  1  1  1  1  1  1  1  0
     Eigenvalues ---    0.00278   0.01284   0.03098   0.04090   0.05048
     Eigenvalues ---    0.05904   0.08136   0.16091   0.16216   0.16595
     Eigenvalues ---    0.19249   0.22009   0.25871   0.29089   0.33962
     Eigenvalues ---    0.34100   0.34519   1.05536   1.220871000.00000
     Eigenvalues --- 1000.000001000.000001000.000001000.000001000.00000
     Eigenvalues --- 1000.000001000.000001000.000001000.000001000.00000
     Eigenvalues --- 1000.00000
 En-DIIS/RFO-DIIS/Sim-DIIS IScMMF=       -3 using points:    10    9    8    7    6    5
 RFO step:  Lambda=-1.02709055D-06.
 NNeg= 0 NGDIIS= 6 SimSw=  2.50D-01 Rises=F DC= -4.93D-07 SmlDif=  1.00D-05
 NRisDI= 0 DoIntr=F SqrtH=F CThrHd= 10.0 CDAdj=  3.0
 RMS Error=  0.2083270733D-03 NUsed= 6 OKEnD=F EnDIS=F
 InvSVX:  RCond= 1.55D-08 Info=           0 Equed=N FErr=  9.63D-13 BErr=  7.77D-17
 DIIS inversion failure, remove point   6.
 InvSVX:  RCond= 7.73D-08 Info=           0 Equed=N FErr=  1.48D-13 BErr=  1.13D-16
 DIIS inversion failure, remove point   5.
 InvSVX:  RCond= 1.02D-07 Info=           0 Equed=N FErr=  9.71D-14 BErr=  4.92D-17
 RFO-DIIS uses    4 points instead of    6
 DidBck=F Rises=F RFO-DIIS coefs:    1.60727   -0.80913    0.25327   -0.05141    0.00000
                  RFO-DIIS coefs:    0.00000
 Iteration  1 RMS(Cart)=  0.00059050 RMS(Int)=  0.00000015
 Iteration  2 RMS(Cart)=  0.00000015 RMS(Int)=  0.00000007
 Iteration  1 RMS(Cart)=  0.00000000 RMS(Int)=  0.00000000
 ITry= 1 IFail=0 DXMaxC= 1.71D-03 DCOld= 1.00D+10 DXMaxT= 1.18D+00 DXLimC= 3.00D+00 Rises=F
 Variable       Old X    -DE/DX   Delta X   Delta X   Delta X     New X
                                 (Linear)    (Quad)   (Total)
    R1        2.19856   0.00001   0.00001   0.00000   0.00001   2.19857
    R2        2.78643  -0.00001   0.00016  -0.00028  -0.00013   2.78631
    R3        5.48021   0.00011   0.00000   0.00000   0.00000   5.48021
    R4        3.96842  -0.03084   0.00000   0.00000   0.00000   3.96842
    R5        2.05530   0.00001  -0.00004   0.00004   0.00000   2.05531
    R6        2.06798  -0.00001   0.00003  -0.00004  -0.00001   2.06797
    R7        2.07701   0.00000   0.00006  -0.00001   0.00005   2.07706
    R8        2.21138   0.00000   0.00000   0.00000   0.00000   2.21138
    A1        2.45033   0.00001   0.00006   0.00003   0.00009   2.45043
    A2        1.75459  -0.00004  -0.00032  -0.00027  -0.00059   1.75400
    A3        1.97197   0.00000   0.00006   0.00001   0.00007   1.97204
    A4        1.58046   0.00003   0.00005   0.00017   0.00023   1.58068
    A5        1.81198  -0.00001  -0.00007  -0.00009  -0.00016   1.81182
    A6        1.64484   0.00002   0.00020   0.00034   0.00055   1.64538
    A7        1.93360  -0.00001   0.00019  -0.00015   0.00003   1.93363
    A8        1.89589   0.00000   0.00012  -0.00005   0.00006   1.89595
    A9        1.85603   0.00001   0.00004  -0.00008  -0.00004   1.85599
   A10        1.93877   0.00001   0.00012   0.00004   0.00016   1.93893
   A11        1.91325   0.00000  -0.00015   0.00011  -0.00005   1.91320
   A12        1.92455   0.00000  -0.00031   0.00014  -0.00017   1.92437
   A13        3.14681  -0.00001  -0.00005  -0.00024  -0.00029   3.14652
   A14        3.04963  -0.00002  -0.00030  -0.00018  -0.00048   3.04916
    D1       -2.70132   0.00001   0.00032   0.00008   0.00040  -2.70092
    D2       -0.56722   0.00001   0.00067  -0.00001   0.00066  -0.56655
    D3        1.50400   0.00001   0.00038   0.00009   0.00047   1.50447
    D4       -0.82755  -0.00002  -0.00011  -0.00011  -0.00023  -0.82778
    D5        1.30656  -0.00002   0.00024  -0.00021   0.00003   1.30659
    D6       -2.90541  -0.00002  -0.00005  -0.00011  -0.00017  -2.90557
    D7        0.82189   0.00001   0.00011   0.00028   0.00039   0.82227
    D8        2.95599   0.00001   0.00046   0.00019   0.00064   2.95664
    D9       -1.25597   0.00001   0.00017   0.00028   0.00045  -1.25552
         Item               Value     Threshold  Converged?
 Maximum Force            0.000043     0.000450     YES
 RMS     Force            0.000014     0.000300     YES
 Maximum Displacement     0.001713     0.001800     YES
 RMS     Displacement     0.000590     0.001200     YES
 Predicted change in Energy=-3.314391D-08
 Optimization completed.
    -- Stationary point found.
                           ----------------------------
                           !   Optimized Parameters   !
                           ! (Angstroms and Degrees)  !
 --------------------------                            --------------------------
 ! Name  Definition              Value          Derivative Info.                !
 --------------------------------------------------------------------------------
 ! R1    R(1,2)                  1.1634         -DE/DX =    0.0                 !
 ! R2    R(1,3)                  1.4745         -DE/DX =    0.0                 !
 ! R3    R(1,7)                  2.9            -DE/DX =    0.0001              !
 ! R4    R(1,8)                  2.1            -DE/DX =   -0.0308              !
 ! R5    R(3,4)                  1.0876         -DE/DX =    0.0                 !
 ! R6    R(3,5)                  1.0943         -DE/DX =    0.0                 !
 ! R7    R(3,6)                  1.0991         -DE/DX =    0.0                 !
 ! R8    R(8,9)                  1.1702         -DE/DX =    0.0                 !
 ! A1    A(2,1,3)              140.3938         -DE/DX =    0.0                 !
 ! A2    A(2,1,7)              100.5305         -DE/DX =    0.0                 !
 ! A3    A(2,1,8)              112.9857         -DE/DX =    0.0                 !
 ! A4    A(3,1,7)               90.5535         -DE/DX =    0.0                 !
 ! A5    A(3,1,8)              103.8187         -DE/DX =    0.0                 !
 ! A6    A(7,1,8)               94.2422         -DE/DX =    0.0                 !
 ! A7    A(1,3,4)              110.7869         -DE/DX =    0.0                 !
 ! A8    A(1,3,5)              108.6266         -DE/DX =    0.0                 !
 ! A9    A(1,3,6)              106.3428         -DE/DX =    0.0                 !
 ! A10   A(4,3,5)              111.0835         -DE/DX =    0.0                 !
 ! A11   A(4,3,6)              109.6211         -DE/DX =    0.0                 !
 ! A12   A(5,3,6)              110.2685         -DE/DX =    0.0                 !
 ! A13   L(1,8,9,6,-1)         180.299          -DE/DX =    0.0                 !
 ! A14   L(1,8,9,6,-2)         174.7311         -DE/DX =    0.0                 !
 ! D1    D(2,1,3,4)           -154.7744         -DE/DX =    0.0                 !
 ! D2    D(2,1,3,5)            -32.4991         -DE/DX =    0.0                 !
 ! D3    D(2,1,3,6)             86.1729         -DE/DX =    0.0                 !
 ! D4    D(7,1,3,4)            -47.415          -DE/DX =    0.0                 !
 ! D5    D(7,1,3,5)             74.8603         -DE/DX =    0.0                 !
 ! D6    D(7,1,3,6)           -166.4677         -DE/DX =    0.0                 !
 ! D7    D(8,1,3,4)             47.0907         -DE/DX =    0.0                 !
 ! D8    D(8,1,3,5)            169.366          -DE/DX =    0.0                 !
 ! D9    D(8,1,3,6)            -71.962          -DE/DX =    0.0                 !
 --------------------------------------------------------------------------------
 Lowest energy point so far.  Saving SCF results.
 Largest change from initial coordinates is atom    6       0.182 Angstoms.
 GradGradGradGradGradGradGradGradGradGradGradGradGradGradGradGradGradGrad

 Leave Link  103 at Wed Jan  8 02:15:24 2020, MaxMem=  4294967296 cpu:              48.1 elap:               4.1
 (Enter /home/cwagen/sw/g16/g16/l202.exe)
                          Input orientation:                          
 ---------------------------------------------------------------------
 Center     Atomic      Atomic             Coordinates (Angstroms)
 Number     Number       Type             X           Y           Z
 ---------------------------------------------------------------------
      1          6           0       -0.070070   -0.579714   -0.383259
      2          8           0       -0.332091   -0.491109   -1.513329
      3          6           0       -0.373191   -1.418691    0.790809
      4          1           0       -0.233513   -0.858047    1.712267
      5          1           0       -1.401335   -1.783253    0.703823
      6          1           0        0.333075   -2.260285    0.760171
      7         17           0       -1.679882    1.573283    0.704450
      8          6           0        1.757946    0.329456    0.108437
      9          7           0        2.803891    0.810032    0.319247
 ---------------------------------------------------------------------
                    Distance matrix (angstroms):
                    1          2          3          4          5
     1  C    0.000000
     2  O    1.163428   0.000000
     3  C    1.474517   2.484180   0.000000
     4  H    2.120239   3.247897   1.087620   0.000000
     5  H    2.098218   2.780051   1.094326   1.799103   0.000000
     6  H    2.072264   2.956558   1.099105   1.787115   1.799698
     7  Cl   2.900000   3.316142   3.266008   3.003172   3.368074
     8  C    2.100000   2.769786   2.839612   2.819281   3.846957
     9  N    3.268725   3.858198   3.909403   3.734811   4.955497
                    6          7          8          9
     6  H    0.000000
     7  Cl   4.330283   0.000000
     8  C    3.026842   3.704187   0.000000
     9  N    3.965626   4.564554   1.170211   0.000000
 Stoichiometry    C3H3ClNO(1-)
 Framework group  C1[X(C3H3ClNO)]
 Deg. of freedom    21
 Full point group                 C1      NOp   1
 RotChk:  IX=2 Diff= 2.34D-15
 Largest Abelian subgroup         C1      NOp   1
 Largest concise Abelian subgroup C1      NOp   1
                         Standard orientation:                         
 ---------------------------------------------------------------------
 Center     Atomic      Atomic             Coordinates (Angstroms)
 Number     Number       Type             X           Y           Z
 ---------------------------------------------------------------------
      1          6           0        0.351605    0.902741    0.231439
      2          8           0        0.245826    1.249001    1.337097
      3          6           0        0.140787    1.401113   -1.140196
      4          1           0       -0.030809    0.576550   -1.828360
      5          1           0       -0.707738    2.092142   -1.134443
      6          1           0        1.061595    1.931165   -1.421600
      7         17           0       -1.968017   -0.821174   -0.008295
      8          6           0        1.732694   -0.660733   -0.009698
      9          7           0        2.545159   -1.498661   -0.094375
 ---------------------------------------------------------------------
 Rotational constants (GHZ):           2.8349463           1.5921411           1.2834190
 Leave Link  202 at Wed Jan  8 02:15:24 2020, MaxMem=  4294967296 cpu:               2.2 elap:               0.2
 (Enter /home/cwagen/sw/g16/g16/l601.exe)
 Copying SCF densities to generalized density rwf, IOpCl= 0 IROHF=0.

 **********************************************************************

            Population analysis using the SCF density.

 **********************************************************************

 Orbital symmetries:
       Occupied  (A) (A) (A) (A) (A) (A) (A) (A) (A) (A) (A) (A)
                 (A) (A) (A) (A) (A) (A) (A) (A) (A) (A) (A) (A)
                 (A) (A) (A)
       Virtual   (A) (A) (A) (A) (A) (A) (A) (A) (A) (A) (A) (A)
                 (A) (A) (A) (A) (A) (A) (A) (A) (A) (A) (A) (A)
                 (A) (A) (A) (A) (A) (A) (A) (A) (A) (A) (A) (A)
                 (A) (A) (A) (A) (A) (A) (A) (A) (A) (A) (A) (A)
                 (A) (A) (A) (A) (A) (A) (A) (A) (A) (A) (A) (A)
                 (A) (A) (A) (A) (A) (A) (A) (A) (A) (A) (A) (A)
                 (A) (A) (A) (A) (A) (A) (A) (A) (A) (A) (A) (A)
                 (A) (A) (A) (A) (A) (A) (A) (A) (A) (A) (A) (A)
                 (A)
 The electronic state is 1-A.
 Alpha  occ. eigenvalues -- -101.41909 -19.21893 -14.30805 -10.35889 -10.20982
 Alpha  occ. eigenvalues --  -10.19025  -9.33258  -7.09093  -7.09011  -7.09005
 Alpha  occ. eigenvalues --   -1.12526  -0.86637  -0.77477  -0.67214  -0.55776
 Alpha  occ. eigenvalues --   -0.49604  -0.47998  -0.47039  -0.40510  -0.39904
 Alpha  occ. eigenvalues --   -0.37633  -0.31014  -0.30935  -0.28786  -0.21896
 Alpha  occ. eigenvalues --   -0.21619  -0.21590
 Alpha virt. eigenvalues --   -0.04417  -0.01825   0.02478   0.04569   0.04859
 Alpha virt. eigenvalues --    0.05785   0.06655   0.07469   0.08841   0.09892
 Alpha virt. eigenvalues --    0.10001   0.10260   0.10768   0.12700   0.13443
 Alpha virt. eigenvalues --    0.13914   0.14077   0.16681   0.16987   0.20487
 Alpha virt. eigenvalues --    0.21969   0.23465   0.24701   0.24890   0.25596
 Alpha virt. eigenvalues --    0.26562   0.28752   0.29510   0.31533   0.34536
 Alpha virt. eigenvalues --    0.36464   0.40724   0.48716   0.60352   0.61048
 Alpha virt. eigenvalues --    0.65045   0.66484   0.67095   0.68998   0.72657
 Alpha virt. eigenvalues --    0.74536   0.75683   0.79219   0.80560   0.82390
 Alpha virt. eigenvalues --    0.85274   0.87277   0.93998   0.97552   0.98820
 Alpha virt. eigenvalues --    0.99329   0.99667   1.00756   1.01109   1.02495
 Alpha virt. eigenvalues --    1.03509   1.09604   1.14736   1.16688   1.22794
 Alpha virt. eigenvalues --    1.25559   1.27698   1.29630   1.37418   1.41998
 Alpha virt. eigenvalues --    1.50455   1.52362   1.56567   1.57100   1.58198
 Alpha virt. eigenvalues --    1.61329   1.62928   1.79951   1.81975   1.84212
 Alpha virt. eigenvalues --    1.88579   1.99302   2.00008   2.03180   2.11954
 Alpha virt. eigenvalues --    2.22361   2.26886   2.38746   2.57658   2.58355
 Alpha virt. eigenvalues --    2.62934   2.65375   2.69246   2.92090   3.08522
 Alpha virt. eigenvalues --    3.17470   4.06279   4.19763   4.23754   4.35988
 Alpha virt. eigenvalues --    4.42509   4.47826
          Condensed to atoms (all electrons):
               1          2          3          4          5          6
     1  C    5.380808   0.542130  -0.107740  -0.075640  -0.095236   0.019613
     2  O    0.542130   7.837495  -0.047732   0.006188   0.002878  -0.005280
     3  C   -0.107740  -0.047732   5.855931   0.402331   0.395241   0.328969
     4  H   -0.075640   0.006188   0.402331   0.405282  -0.017469  -0.021595
     5  H   -0.095236   0.002878   0.395241  -0.017469   0.435408  -0.021185
     6  H    0.019613  -0.005280   0.328969  -0.021595  -0.021185   0.435590
     7  Cl   0.224729  -0.053067  -0.107187  -0.004789  -0.004045   0.003873
     8  C   -0.426564  -0.067997  -0.026068   0.007261   0.027306  -0.024489
     9  N   -0.010715   0.000393  -0.006203  -0.000113  -0.000146  -0.000395
               7          8          9
     1  C    0.224729  -0.426564  -0.010715
     2  O   -0.053067  -0.067997   0.000393
     3  C   -0.107187  -0.026068  -0.006203
     4  H   -0.004789   0.007261  -0.000113
     5  H   -0.004045   0.027306  -0.000146
     6  H    0.003873  -0.024489  -0.000395
     7  Cl  17.900592  -0.078394  -0.006689
     8  C   -0.078394   5.975720   0.634596
     9  N   -0.006689   0.634596   6.999635
 Mulliken charges:
               1
     1  C    0.548616
     2  O   -0.215008
     3  C   -0.687543
     4  H    0.298544
     5  H    0.277248
     6  H    0.284900
     7  Cl  -0.875024
     8  C   -0.021370
     9  N   -0.610363
 Sum of Mulliken charges =  -1.00000
 Mulliken charges with hydrogens summed into heavy atoms:
               1
     1  C    0.548616
     2  O   -0.215008
     3  C    0.173150
     7  Cl  -0.875024
     8  C   -0.021370
     9  N   -0.610363
 Electronic spatial extent (au):  <R**2>=            949.2788
 Charge=             -1.0000 electrons
 Dipole moment (field-independent basis, Debye):
    X=              2.8149    Y=              9.3275    Z=             -2.6812  Tot=             10.1052
 Quadrupole moment (field-independent basis, Debye-Ang):
   XX=            -79.6862   YY=            -52.5251   ZZ=            -46.0846
   XY=              3.3016   XZ=              0.1044   YZ=             -4.6680
 Traceless Quadrupole moment (field-independent basis, Debye-Ang):
   XX=            -20.2542   YY=              6.9069   ZZ=             13.3473
   XY=              3.3016   XZ=              0.1044   YZ=             -4.6680
 Octapole moment (field-independent basis, Debye-Ang**2):
  XXX=             -4.6923  YYY=             37.3937  ZZZ=             -3.5678  XYY=             -8.3745
  XXY=             49.9687  XXZ=              2.4346  XZZ=              1.6293  YZZ=              6.2061
  YYZ=             -4.8194  XYZ=             -2.0783
 Hexadecapole moment (field-independent basis, Debye-Ang**3):
 XXXX=          -1021.6137 YYYY=           -411.7270 ZZZZ=           -184.2407 XXXY=             51.6012
 XXXZ=              5.9201 YYYX=             26.0898 YYYZ=             -9.6261 ZZZX=              0.2885
 ZZZY=             -3.9268 XXYY=           -256.7434 XXZZ=           -169.2893 YYZZ=            -97.5574
 XXYZ=             -4.8449 YYXZ=              0.9779 ZZXY=              1.3894
 N-N= 2.261081220153D+02 E-N=-2.129799456979D+03  KE= 7.023739625315D+02
 No NMR shielding tensors so no spin-rotation constants.
 Leave Link  601 at Wed Jan  8 02:15:26 2020, MaxMem=  4294967296 cpu:              17.9 elap:               1.7
 (Enter /home/cwagen/sw/g16/g16/l9999.exe)
 1\1\GINC-NODE067\FOpt\RB3LYP\6-31+G(d)\C3H3Cl1N1O1(1-)\CWAGEN\08-Jan-2
 020\0\\#p opt=modredundant b3lyp/6-31+g(d) scrf=(smd, solvent=tetrahyd
 rofuran)\\title\\-1,1\C,-0.0700703539,-0.5797139656,-0.3832589305\O,-0
 .3320914203,-0.4911093257,-1.5133294968\C,-0.3731913446,-1.4186914298,
 0.790808751\H,-0.2335131253,-0.8580468314,1.7122673671\H,-1.4013346711
 ,-1.7832527625,0.7038231607\H,0.3330753463,-2.2602850198,0.7601712484\
 Cl,-1.679881547,1.5732833553,0.7044498768\C,1.7579463375,0.3294557674,
 0.1084374997\N,2.8038908784,0.8100318622,0.3192467137\\Version=AS64L-G
 16RevA.03\State=1-A\HF=-706.4105461\RMSD=5.899e-09\RMSF=8.397e-03\Dipo
 le=-0.1177808,-3.9646092,-0.2722176\Quadrupole=-14.4523049,7.2339522,7
 .2183527,4.0275918,1.2573539,-4.4071725\PG=C01 [X(C3H3Cl1N1O1)]\\@


 THERE IS NO SUBJECT, HOWEVER COMPLEX,
 WHICH, IF STUDIED WITH PATIENCE AND INTELLIGIENCE
 WILL NOT BECOME
 MORE COMPLEX
                        QUOTED BY D. GORDON ROHMAN
 Job cpu time:       0 days  2 hours 14 minutes  4.0 seconds.
 Elapsed time:       0 days  0 hours 11 minutes 14.6 seconds.
 File lengths (MBytes):  RWF=     40 Int=      0 D2E=      0 Chk=      3 Scr=      1
 Normal termination of Gaussian 16 at Wed Jan  8 02:15:26 2020.
