 Entering Gaussian System, Link 0=g16
 Input=scan_210_250.gjf
 Output=scan_210_250.out
 Initial command:
 /home/cwagen/sw/g16/g16/l1.exe "/scratch/users/cwagen/cwagen_scan_210_250/Gau-51697.inp" -scrdir="/scratch/users/cwagen/cwagen_scan_210_250/"
 Entering Link 1 = /home/cwagen/sw/g16/g16/l1.exe PID=     51698.
  
 Copyright (c) 1988,1990,1992,1993,1995,1998,2003,2009,2016,
            Gaussian, Inc.  All Rights Reserved.
  
 This is part of the Gaussian(R) 16 program.  It is based on
 the Gaussian(R) 09 system (copyright 2009, Gaussian, Inc.),
 the Gaussian(R) 03 system (copyright 2003, Gaussian, Inc.),
 the Gaussian(R) 98 system (copyright 1998, Gaussian, Inc.),
 the Gaussian(R) 94 system (copyright 1995, Gaussian, Inc.),
 the Gaussian 92(TM) system (copyright 1992, Gaussian, Inc.),
 the Gaussian 90(TM) system (copyright 1990, Gaussian, Inc.),
 the Gaussian 88(TM) system (copyright 1988, Gaussian, Inc.),
 the Gaussian 86(TM) system (copyright 1986, Carnegie Mellon
 University), and the Gaussian 82(TM) system (copyright 1983,
 Carnegie Mellon University). Gaussian is a federally registered
 trademark of Gaussian, Inc.
  
 This software contains proprietary and confidential information,
 including trade secrets, belonging to Gaussian, Inc.
  
 This software is provided under written license and may be
 used, copied, transmitted, or stored only in accord with that
 written license.
  
 The following legend is applicable only to US Government
 contracts under FAR:
  
                    RESTRICTED RIGHTS LEGEND
  
 Use, reproduction and disclosure by the US Government is
 subject to restrictions as set forth in subparagraphs (a)
 and (c) of the Commercial Computer Software - Restricted
 Rights clause in FAR 52.227-19.
  
 Gaussian, Inc.
 340 Quinnipiac St., Bldg. 40, Wallingford CT 06492
  
  
 ---------------------------------------------------------------
 Warning -- This program may not be used in any manner that
 competes with the business of Gaussian, Inc. or will provide
 assistance to any competitor of Gaussian, Inc.  The licensee
 of this program is prohibited from giving any competitor of
 Gaussian, Inc. access to this program.  By using this program,
 the user acknowledges that Gaussian, Inc. is engaged in the
 business of creating and licensing software in the field of
 computational chemistry and represents and warrants to the
 licensee that it is not a competitor of Gaussian, Inc. and that
 it will not use this program in any manner prohibited above.
 ---------------------------------------------------------------
  

 Cite this work as:
 Gaussian 16, Revision A.03,
 M. J. Frisch, G. W. Trucks, H. B. Schlegel, G. E. Scuseria, 
 M. A. Robb, J. R. Cheeseman, G. Scalmani, V. Barone, 
 G. A. Petersson, H. Nakatsuji, X. Li, M. Caricato, A. V. Marenich, 
 J. Bloino, B. G. Janesko, R. Gomperts, B. Mennucci, H. P. Hratchian, 
 J. V. Ortiz, A. F. Izmaylov, J. L. Sonnenberg, D. Williams-Young, 
 F. Ding, F. Lipparini, F. Egidi, J. Goings, B. Peng, A. Petrone, 
 T. Henderson, D. Ranasinghe, V. G. Zakrzewski, J. Gao, N. Rega, 
 G. Zheng, W. Liang, M. Hada, M. Ehara, K. Toyota, R. Fukuda, 
 J. Hasegawa, M. Ishida, T. Nakajima, Y. Honda, O. Kitao, H. Nakai, 
 T. Vreven, K. Throssell, J. A. Montgomery, Jr., J. E. Peralta, 
 F. Ogliaro, M. J. Bearpark, J. J. Heyd, E. N. Brothers, K. N. Kudin, 
 V. N. Staroverov, T. A. Keith, R. Kobayashi, J. Normand, 
 K. Raghavachari, A. P. Rendell, J. C. Burant, S. S. Iyengar, 
 J. Tomasi, M. Cossi, J. M. Millam, M. Klene, C. Adamo, R. Cammi, 
 J. W. Ochterski, R. L. Martin, K. Morokuma, O. Farkas, 
 J. B. Foresman, and D. J. Fox, Gaussian, Inc., Wallingford CT, 2016.
 
 ******************************************
 Gaussian 16:  AS64L-G16RevA.03 25-Dec-2016
                 8-Jan-2020 
 ******************************************
 %nprocshared=16
 Will use up to   16 processors via shared memory.
 %mem=32GB
 ----------------------------------------------------------------------
 #p opt=modredundant b3lyp/6-31+g(d) scrf=(smd, solvent=tetrahydrofuran
 )
 ----------------------------------------------------------------------
 1/18=120,19=15,26=3,38=1/1,3;
 2/9=110,12=2,17=6,18=5,40=1/2;
 3/5=1,6=6,7=11,11=2,25=1,30=1,70=32201,71=1,72=20,74=-5/1,2,3;
 4//1;
 5/5=2,38=5,53=20/2;
 6/7=2,8=2,9=2,10=2,28=1/1;
 7//1,2,3,16;
 1/18=20,19=15,26=3/3(2);
 2/9=110/2;
 99//99;
 2/9=110/2;
 3/5=1,6=6,7=11,11=2,25=1,30=1,70=32205,71=1,72=20,74=-5/1,2,3;
 4/5=5,16=3,69=1/1;
 5/5=2,38=5,53=20/2;
 7//1,2,3,16;
 1/18=20,19=15,26=3/3(-5);
 2/9=110/2;
 6/7=2,8=2,9=2,10=2,19=2,28=1/1;
 99/9=1/99;
 Leave Link    1 at Wed Jan  8 00:31:44 2020, MaxMem=  4294967296 cpu:               2.1 elap:               0.2
 (Enter /home/cwagen/sw/g16/g16/l101.exe)
 -----
 title
 -----
 Symbolic Z-matrix:
 Charge = -1 Multiplicity = 1
 6                    -0.19426  -0.292    -0.21291 
 8                    -0.25532  -0.66526  -1.45426 
 6                    -0.33095  -1.45422   0.81632 
 1                    -0.18039  -1.13044   1.85373 
 1                    -1.34067  -1.87301   0.71427 
 1                     0.39707  -2.23395   0.57058 
 17                   -1.45162   1.30306   0.32081 
 6                     2.12354   0.51963   0.2551 
 7                     3.25811   0.79993   0.28541 
 
 Add virtual bond connecting atoms C8         and C1         Dist= 4.72D+00.
 The following ModRedundant input section has been read:
 B       1       7 F                                                           
 B       1       8 F                                                           
 
 ITRead=  0  0  0  0  0  0  0  0  0
 MicOpt= -1 -1 -1 -1 -1 -1 -1 -1 -1
 NAtoms=      9 NQM=        9 NQMF=       0 NMMI=      0 NMMIF=      0
                NMic=       0 NMicF=      0.
                    Isotopes and Nuclear Properties:
 (Nuclear quadrupole moments (NQMom) in fm**2, nuclear magnetic moments (NMagM)
  in nuclear magnetons)

  Atom         1           2           3           4           5           6           7           8           9
 IAtWgt=          12          16          12           1           1           1          35          12          14
 AtmWgt=  12.0000000  15.9949146  12.0000000   1.0078250   1.0078250   1.0078250  34.9688527  12.0000000  14.0030740
 NucSpn=           0           0           0           1           1           1           3           0           2
 AtZEff=   0.0000000   0.0000000   0.0000000   0.0000000   0.0000000   0.0000000   0.0000000   0.0000000   0.0000000
 NQMom=    0.0000000   0.0000000   0.0000000   0.0000000   0.0000000   0.0000000  -8.1650000   0.0000000   2.0440000
 NMagM=    0.0000000   0.0000000   0.0000000   2.7928460   2.7928460   2.7928460   0.8218740   0.0000000   0.4037610
 AtZNuc=   6.0000000   8.0000000   6.0000000   1.0000000   1.0000000   1.0000000  17.0000000   6.0000000   7.0000000
 Leave Link  101 at Wed Jan  8 00:31:44 2020, MaxMem=  4294967296 cpu:               7.3 elap:               0.6
 (Enter /home/cwagen/sw/g16/g16/l103.exe)

 GradGradGradGradGradGradGradGradGradGradGradGradGradGradGradGradGradGrad
 Berny optimization.
 Initialization pass.
                           ----------------------------
                           !    Initial Parameters    !
                           ! (Angstroms and Degrees)  !
 --------------------------                            --------------------------
 ! Name  Definition              Value          Derivative Info.                !
 --------------------------------------------------------------------------------
 ! R1    R(1,2)                  1.2977         estimate D2E/DX2                !
 ! R2    R(1,3)                  1.5584         estimate D2E/DX2                !
 ! R3    R(1,7)                  2.1            Frozen                          !
 ! R4    R(1,8)                  2.5            Frozen                          !
 ! R5    R(3,4)                  1.0971         estimate D2E/DX2                !
 ! R6    R(3,5)                  1.0979         estimate D2E/DX2                !
 ! R7    R(3,6)                  1.0947         estimate D2E/DX2                !
 ! R8    R(8,9)                  1.1691         estimate D2E/DX2                !
 ! A1    A(2,1,3)              114.4006         estimate D2E/DX2                !
 ! A2    A(2,1,7)              115.6846         estimate D2E/DX2                !
 ! A3    A(2,1,8)              108.426          estimate D2E/DX2                !
 ! A4    A(3,1,7)              110.248          estimate D2E/DX2                !
 ! A5    A(3,1,8)              101.5248         estimate D2E/DX2                !
 ! A6    A(7,1,8)              105.1256         estimate D2E/DX2                !
 ! A7    A(1,3,4)              113.1005         estimate D2E/DX2                !
 ! A8    A(1,3,5)              107.683          estimate D2E/DX2                !
 ! A9    A(1,3,6)              108.9421         estimate D2E/DX2                !
 ! A10   A(4,3,5)              109.0662         estimate D2E/DX2                !
 ! A11   A(4,3,6)              109.3417         estimate D2E/DX2                !
 ! A12   A(5,3,6)              108.6067         estimate D2E/DX2                !
 ! A13   L(1,8,9,6,-1)         177.2286         estimate D2E/DX2                !
 ! A14   L(1,8,9,6,-2)         164.7826         estimate D2E/DX2                !
 ! D1    D(2,1,3,4)            174.4714         estimate D2E/DX2                !
 ! D2    D(2,1,3,5)            -64.9488         estimate D2E/DX2                !
 ! D3    D(2,1,3,6)             52.6633         estimate D2E/DX2                !
 ! D4    D(7,1,3,4)            -53.1046         estimate D2E/DX2                !
 ! D5    D(7,1,3,5)             67.4752         estimate D2E/DX2                !
 ! D6    D(7,1,3,6)           -174.9127         estimate D2E/DX2                !
 ! D7    D(8,1,3,4)             57.938          estimate D2E/DX2                !
 ! D8    D(8,1,3,5)            178.5177         estimate D2E/DX2                !
 ! D9    D(8,1,3,6)            -63.8702         estimate D2E/DX2                !
 --------------------------------------------------------------------------------
 Trust Radius=3.00D-01 FncErr=1.00D-07 GrdErr=1.00D-06 EigMax=2.50D+02 EigMin=1.00D-04
 Number of steps in this run=     41 maximum allowed number of steps=    100.
 GradGradGradGradGradGradGradGradGradGradGradGradGradGradGradGradGradGrad

 Leave Link  103 at Wed Jan  8 00:31:44 2020, MaxMem=  4294967296 cpu:               0.6 elap:               0.1
 (Enter /home/cwagen/sw/g16/g16/l202.exe)
                          Input orientation:                          
 ---------------------------------------------------------------------
 Center     Atomic      Atomic             Coordinates (Angstroms)
 Number     Number       Type             X           Y           Z
 ---------------------------------------------------------------------
      1          6           0       -0.194263   -0.291999   -0.212908
      2          8           0       -0.255321   -0.665256   -1.454255
      3          6           0       -0.330945   -1.454221    0.816316
      4          1           0       -0.180394   -1.130438    1.853734
      5          1           0       -1.340665   -1.873010    0.714272
      6          1           0        0.397068   -2.233949    0.570583
      7         17           0       -1.451615    1.303059    0.320809
      8          6           0        2.123542    0.519634    0.255102
      9          7           0        3.258113    0.799932    0.285405
 ---------------------------------------------------------------------
                    Distance matrix (angstroms):
                    1          2          3          4          5
     1  C    0.000000
     2  O    1.297687   0.000000
     3  C    1.558443   2.404928   0.000000
     4  H    2.230287   3.341377   1.097150   0.000000
     5  H    2.161827   2.709087   1.097876   1.787740   0.000000
     6  H    2.175937   2.643176   1.094698   1.788205   1.780629
     7  Cl   2.100000   2.907961   3.017287   3.144483   3.202271
     8  C    2.500000   3.159882   3.199308   3.253687   4.235128
     9  N    3.655069   4.185380   4.271347   4.243738   5.336413
                    6          7          8          9
     6  H    0.000000
     7  Cl   3.998805   0.000000
     8  C    3.265342   3.660576   0.000000
     9  N    4.179873   4.736658   1.169075   0.000000
 Stoichiometry    C3H3ClNO(1-)
 Framework group  C1[X(C3H3ClNO)]
 Deg. of freedom    21
 Full point group                 C1      NOp   1
 Largest Abelian subgroup         C1      NOp   1
 Largest concise Abelian subgroup C1      NOp   1
                         Standard orientation:                         
 ---------------------------------------------------------------------
 Center     Atomic      Atomic             Coordinates (Angstroms)
 Number     Number       Type             X           Y           Z
 ---------------------------------------------------------------------
      1          6           0       -0.275338    0.521233    0.208218
      2          8           0       -0.350002    1.081550    1.376320
      3          6           0       -0.370818    1.513971   -0.989320
      4          1           0       -0.209172    1.032266   -1.961724
      5          1           0       -1.373430    1.960992   -0.972791
      6          1           0        0.368560    2.309363   -0.851352
      7         17           0       -1.555491   -1.114671   -0.100043
      8          6           0        2.033179   -0.392872   -0.083606
      9          7           0        3.162182   -0.694231   -0.047961
 ---------------------------------------------------------------------
 Rotational constants (GHZ):           3.1617806           1.5371478           1.2862451
 Leave Link  202 at Wed Jan  8 00:31:45 2020, MaxMem=  4294967296 cpu:               1.3 elap:               0.1
 (Enter /home/cwagen/sw/g16/g16/l301.exe)
 Standard basis: 6-31+G(d) (6D, 7F)
 Ernie: Thresh=  0.10000D-02 Tol=  0.10000D-05 Strict=F.
 There are   124 symmetry adapted cartesian basis functions of A   symmetry.
 There are   124 symmetry adapted basis functions of A   symmetry.
   124 basis functions,   228 primitive gaussians,   124 cartesian basis functions
    27 alpha electrons       27 beta electrons
       nuclear repulsion energy       229.1576919080 Hartrees.
 IExCor=  402 DFT=T Ex+Corr=B3LYP ExCW=0 ScaHFX=  0.200000
 ScaDFX=  0.800000  0.720000  1.000000  0.810000 ScalE2=  1.000000  1.000000
 IRadAn=      5 IRanWt=     -1 IRanGd=            0 ICorTp=0 IEmpDi=  4
 NAtoms=    9 NActive=    9 NUniq=    9 SFac= 1.00D+00 NAtFMM=   60 NAOKFM=F Big=F
 Integral buffers will be    131072 words long.
 Raffenetti 2 integral format.
 Two-electron integral symmetry is turned on.
 ------------------------------------------------------------------------------
 Polarizable Continuum Model (PCM)
 =================================
 Model                : PCM.
 Atomic radii         : SMD-Coulomb.
 Polarization charges : Total charges.
 Charge compensation  : None.
 Solution method      : On-the-fly selection.
 Cavity type          : VdW (van der Waals Surface) (Alpha=1.000).
 Cavity algorithm     : GePol (No added spheres)
                        Default sphere list used, NSphG=    9.
                        Lebedev-Laikov grids with approx.  5.0 points / Ang**2.
                        Smoothing algorithm: York/Karplus (Gamma=1.0000).
                        Polarization charges: spherical gaussians, with
                                              point-specific exponents (IZeta= 3).
                        Self-potential: point-specific (ISelfS= 7).
                        Self-field    : sphere-specific E.n sum rule (ISelfD= 2).
 1st derivatives      : Analytical E(r).r(x)/FMM algorithm (CHGder, D1EAlg=3).
                        Cavity 1st derivative terms included.
 Solvent              : TetraHydroFuran, Eps=   7.425700 Eps(inf)=   1.974025
 ------------------------------------------------------------------------------
 Spheres list:
 ISph  on   Nord     Re0    Alpha      Xe            Ye            Ze
    1   C      1    1.8500  1.000     -0.275338      0.521233      0.208218
    2   O      2    2.2940  1.000     -0.350002      1.081550      1.376320
    3   C      3    1.8500  1.000     -0.370818      1.513971     -0.989320
    4   H      4    1.2000  1.000     -0.209172      1.032266     -1.961724
    5   H      5    1.2000  1.000     -1.373430      1.960992     -0.972791
    6   H      6    1.2000  1.000      0.368560      2.309363     -0.851352
    7  Cl      7    2.3800  1.000     -1.555491     -1.114671     -0.100043
    8   C      8    1.8500  1.000      2.033179     -0.392872     -0.083606
    9   N      9    1.8900  1.000      3.162182     -0.694231     -0.047961
 ------------------------------------------------------------------------------
 GePol: Number of generator spheres                  =       9
 GePol: Total number of spheres                      =       9
 GePol: Number of exposed spheres                    =       9 (100.00%)
 GePol: Number of points                             =    1240
 GePol: Average weight of points                     =       0.14
 GePol: Minimum weight of points                     =   0.25D-08
 GePol: Maximum weight of points                     =    0.18138
 GePol: Number of points with low weight             =      22
 GePol: Fraction of low-weight points (<1% of avg)   =       1.77%
 GePol: Cavity surface area                          =    169.192 Ang**2
 GePol: Cavity volume                                =    152.386 Ang**3
 ------------------------------------------------------------------------------
 Atomic radii for non-electrostatic terms: SMD-CDS.
 ------------------------------------------------------------------------------
 PCM non-electrostatic energy =         0.0008807704 Hartrees.
 Nuclear repulsion after PCM non-electrostatic terms =      229.1585726783 Hartrees.
 Leave Link  301 at Wed Jan  8 00:31:45 2020, MaxMem=  4294967296 cpu:               2.2 elap:               0.2
 (Enter /home/cwagen/sw/g16/g16/l302.exe)
 NPDir=0 NMtPBC=     1 NCelOv=     1 NCel=       1 NClECP=     1 NCelD=      1
         NCelK=      1 NCelE2=     1 NClLst=     1 CellRange=     0.0.
 One-electron integrals computed using PRISM.
 One-electron integral symmetry used in STVInt
 NBasis=   124 RedAO= T EigKep=  1.28D-04  NBF=   124
 NBsUse=   124 1.00D-06 EigRej= -1.00D+00 NBFU=   124
 Precomputing XC quadrature grid using
 IXCGrd= 4 IRadAn=           5 IRanWt=          -1 IRanGd=           0 AccXCQ= 0.00D+00.
 Generated NRdTot=       0 NPtTot=           0 NUsed=           0 NTot=          32
 NSgBfM=   124   124   124   124   124 MxSgAt=     9 MxSgA2=     9.
 Leave Link  302 at Wed Jan  8 00:31:46 2020, MaxMem=  4294967296 cpu:              22.2 elap:               1.6
 (Enter /home/cwagen/sw/g16/g16/l303.exe)
 DipDrv:  MaxL=1.
 Leave Link  303 at Wed Jan  8 00:31:47 2020, MaxMem=  4294967296 cpu:               2.4 elap:               0.2
 (Enter /home/cwagen/sw/g16/g16/l401.exe)
 ExpMin= 4.38D-02 ExpMax= 2.52D+04 ExpMxC= 3.78D+03 IAcc=3 IRadAn=         5 AccDes= 0.00D+00
 Harris functional with IExCor=  402 and IRadAn=       5 diagonalized for initial guess.
 HarFok:  IExCor=  402 AccDes= 0.00D+00 IRadAn=         5 IDoV= 1 UseB2=F ITyADJ=14
 ICtDFT=  3500011 ScaDFX=  1.000000  1.000000  1.000000  1.000000
 FoFCou: FMM=F IPFlag=           0 FMFlag=      100000 FMFlg1=           0
         NFxFlg=           0 DoJE=T BraDBF=F KetDBF=T FulRan=T
         wScrn=  0.000000 ICntrl=       500 IOpCl=  0 I1Cent=   200000004 NGrid=           0
         NMat0=    1 NMatS0=      1 NMatT0=    0 NMatD0=    1 NMtDS0=    0 NMtDT0=    0
 Petite list used in FoFCou.
 Harris En= -706.383164158546    
 JPrj=0 DoOrth=F DoCkMO=F.
 Leave Link  401 at Wed Jan  8 00:31:48 2020, MaxMem=  4294967296 cpu:              23.3 elap:               1.6
 (Enter /home/cwagen/sw/g16/g16/l502.exe)
 Keep R1 ints in memory in canonical form, NReq=45236517.
 FoFCou: FMM=F IPFlag=           0 FMFlag=           0 FMFlg1=           0
         NFxFlg=           0 DoJE=F BraDBF=F KetDBF=F FulRan=T
         wScrn=  0.000000 ICntrl=       600 IOpCl=  0 I1Cent=           0 NGrid=           0
         NMat0=    1 NMatS0=   7750 NMatT0=    0 NMatD0=    1 NMtDS0=    0 NMtDT0=    0
 Symmetry not used in FoFCou.
 Two-electron integral symmetry not used.
 Closed shell SCF:
 Using DIIS extrapolation, IDIIS=  1040.
 NGot=  4294967296 LenX=  4264898079 LenY=  4264882262
 Requested convergence on RMS density matrix=1.00D-08 within 128 cycles.
 Requested convergence on MAX density matrix=1.00D-06.
 Requested convergence on             energy=1.00D-06.
 No special actions if energy rises.

 Cycle   1  Pass 1  IDiag  1:
 Inv3:  Mode=1 IEnd=     4612800.
 Iteration    1 A*A^-1 deviation from unit magnitude is 3.77D-15 for   1234.
 Iteration    1 A*A^-1 deviation from orthogonality  is 1.56D-15 for    383     86.
 Iteration    1 A^-1*A deviation from unit magnitude is 3.77D-15 for   1234.
 Iteration    1 A^-1*A deviation from orthogonality  is 9.99D-16 for   1232   1231.
 E= -706.160744422266    
 DIIS: error= 2.73D-02 at cycle   1 NSaved=   1.
 NSaved= 1 IEnMin= 1 EnMin= -706.160744422266     IErMin= 1 ErrMin= 2.73D-02
 ErrMax= 2.73D-02  0.00D+00 EMaxC= 1.00D-01 BMatC= 2.29D-01 BMatP= 2.29D-01
 IDIUse=3 WtCom= 7.27D-01 WtEn= 2.73D-01
 Coeff-Com:  0.100D+01
 Coeff-En:   0.100D+01
 Coeff:      0.100D+01
 Gap=     0.240 Goal=   None    Shift=    0.000
 GapD=    0.240 DampG=1.000 DampE=0.500 DampFc=0.5000 IDamp=-1.
 Damping current iteration by 5.00D-01
 RMSDP=1.31D-02 MaxDP=3.32D-01              OVMax= 5.37D-01

 Cycle   2  Pass 1  IDiag  1:
 E= -706.056113839405     Delta-E=        0.104630582861 Rises=F Damp=T
 DIIS: error= 2.47D-02 at cycle   2 NSaved=   2.
 NSaved= 2 IEnMin= 1 EnMin= -706.160744422266     IErMin= 2 ErrMin= 2.47D-02
 ErrMax= 2.47D-02  0.00D+00 EMaxC= 1.00D-01 BMatC= 1.56D-01 BMatP= 2.29D-01
 IDIUse=3 WtCom= 7.53D-01 WtEn= 2.47D-01
 Coeff-Com:  0.441D+00 0.559D+00
 Coeff-En:   0.626D+00 0.374D+00
 Coeff:      0.487D+00 0.513D+00
 Gap=     0.096 Goal=   None    Shift=    0.000
 RMSDP=4.94D-03 MaxDP=1.02D-01 DE= 1.05D-01 OVMax= 2.83D-01

 Cycle   3  Pass 1  IDiag  1:
 E= -706.305672741592     Delta-E=       -0.249558902188 Rises=F Damp=F
 DIIS: error= 1.49D-02 at cycle   3 NSaved=   3.
 NSaved= 3 IEnMin= 3 EnMin= -706.305672741592     IErMin= 3 ErrMin= 1.49D-02
 ErrMax= 1.49D-02  0.00D+00 EMaxC= 1.00D-01 BMatC= 7.00D-02 BMatP= 1.56D-01
 IDIUse=3 WtCom= 8.51D-01 WtEn= 1.49D-01
 EnCoef did     1 forward-backward iterations
 Coeff-Com:  0.214D+00 0.369D+00 0.417D+00
 Coeff-En:   0.794D-01 0.131D-01 0.908D+00
 Coeff:      0.194D+00 0.316D+00 0.490D+00
 Gap=     0.186 Goal=   None    Shift=    0.000
 RMSDP=3.53D-03 MaxDP=1.15D-01 DE=-2.50D-01 OVMax= 1.41D-01

 Cycle   4  Pass 1  IDiag  1:
 E= -706.368978596201     Delta-E=       -0.063305854609 Rises=F Damp=F
 DIIS: error= 4.91D-03 at cycle   4 NSaved=   4.
 NSaved= 4 IEnMin= 4 EnMin= -706.368978596201     IErMin= 4 ErrMin= 4.91D-03
 ErrMax= 4.91D-03  0.00D+00 EMaxC= 1.00D-01 BMatC= 8.47D-03 BMatP= 7.00D-02
 IDIUse=3 WtCom= 9.51D-01 WtEn= 4.91D-02
 Coeff-Com:  0.484D-01 0.696D-01 0.265D+00 0.617D+00
 Coeff-En:   0.000D+00 0.000D+00 0.920D-01 0.908D+00
 Coeff:      0.460D-01 0.662D-01 0.256D+00 0.631D+00
 Gap=     0.186 Goal=   None    Shift=    0.000
 RMSDP=8.93D-04 MaxDP=2.14D-02 DE=-6.33D-02 OVMax= 4.13D-02

 Cycle   5  Pass 1  IDiag  1:
 E= -706.375208740858     Delta-E=       -0.006230144657 Rises=F Damp=F
 DIIS: error= 3.05D-03 at cycle   5 NSaved=   5.
 NSaved= 5 IEnMin= 5 EnMin= -706.375208740858     IErMin= 5 ErrMin= 3.05D-03
 ErrMax= 3.05D-03  0.00D+00 EMaxC= 1.00D-01 BMatC= 1.37D-03 BMatP= 8.47D-03
 IDIUse=3 WtCom= 9.70D-01 WtEn= 3.05D-02
 Coeff-Com:  0.708D-02 0.503D-02 0.119D+00 0.413D+00 0.456D+00
 Coeff-En:   0.000D+00 0.000D+00 0.000D+00 0.115D+00 0.885D+00
 Coeff:      0.687D-02 0.488D-02 0.115D+00 0.404D+00 0.469D+00
 Gap=     0.173 Goal=   None    Shift=    0.000
 RMSDP=4.35D-04 MaxDP=1.28D-02 DE=-6.23D-03 OVMax= 1.17D-02

 Cycle   6  Pass 1  IDiag  1:
 E= -706.376292249986     Delta-E=       -0.001083509128 Rises=F Damp=F
 DIIS: error= 1.10D-03 at cycle   6 NSaved=   6.
 NSaved= 6 IEnMin= 6 EnMin= -706.376292249986     IErMin= 6 ErrMin= 1.10D-03
 ErrMax= 1.10D-03  0.00D+00 EMaxC= 1.00D-01 BMatC= 1.81D-04 BMatP= 1.37D-03
 IDIUse=3 WtCom= 9.89D-01 WtEn= 1.10D-02
 Coeff-Com:  0.748D-03-0.308D-02 0.468D-01 0.175D+00 0.307D+00 0.473D+00
 Coeff-En:   0.000D+00 0.000D+00 0.000D+00 0.000D+00 0.127D+00 0.873D+00
 Coeff:      0.740D-03-0.305D-02 0.463D-01 0.173D+00 0.305D+00 0.477D+00
 Gap=     0.175 Goal=   None    Shift=    0.000
 RMSDP=1.27D-04 MaxDP=3.05D-03 DE=-1.08D-03 OVMax= 4.05D-03

 Cycle   7  Pass 1  IDiag  1:
 E= -706.376458621340     Delta-E=       -0.000166371354 Rises=F Damp=F
 DIIS: error= 1.81D-04 at cycle   7 NSaved=   7.
 NSaved= 7 IEnMin= 7 EnMin= -706.376458621340     IErMin= 7 ErrMin= 1.81D-04
 ErrMax= 1.81D-04  0.00D+00 EMaxC= 1.00D-01 BMatC= 8.21D-06 BMatP= 1.81D-04
 IDIUse=3 WtCom= 9.98D-01 WtEn= 1.81D-03
 Coeff-Com:  0.437D-03-0.272D-02 0.105D-01 0.341D-01 0.973D-01 0.224D+00
 Coeff-Com:  0.637D+00
 Coeff-En:   0.000D+00 0.000D+00 0.000D+00 0.000D+00 0.000D+00 0.000D+00
 Coeff-En:   0.100D+01
 Coeff:      0.436D-03-0.271D-02 0.105D-01 0.340D-01 0.971D-01 0.223D+00
 Coeff:      0.637D+00
 Gap=     0.174 Goal=   None    Shift=    0.000
 RMSDP=3.99D-05 MaxDP=5.40D-04 DE=-1.66D-04 OVMax= 1.45D-03

 Cycle   8  Pass 1  IDiag  1:
 E= -706.376466107558     Delta-E=       -0.000007486218 Rises=F Damp=F
 DIIS: error= 5.59D-05 at cycle   8 NSaved=   8.
 NSaved= 8 IEnMin= 8 EnMin= -706.376466107558     IErMin= 8 ErrMin= 5.59D-05
 ErrMax= 5.59D-05  0.00D+00 EMaxC= 1.00D-01 BMatC= 1.14D-06 BMatP= 8.21D-06
 IDIUse=1 WtCom= 1.00D+00 WtEn= 0.00D+00
 Coeff-Com:  0.298D-03-0.153D-02 0.305D-02 0.696D-02 0.342D-01 0.932D-01
 Coeff-Com:  0.361D+00 0.502D+00
 Coeff:      0.298D-03-0.153D-02 0.305D-02 0.696D-02 0.342D-01 0.932D-01
 Coeff:      0.361D+00 0.502D+00
 Gap=     0.174 Goal=   None    Shift=    0.000
 RMSDP=1.22D-05 MaxDP=4.32D-04 DE=-7.49D-06 OVMax= 3.61D-04

 Cycle   9  Pass 1  IDiag  1:
 E= -706.376467270533     Delta-E=       -0.000001162974 Rises=F Damp=F
 DIIS: error= 1.87D-05 at cycle   9 NSaved=   9.
 NSaved= 9 IEnMin= 9 EnMin= -706.376467270533     IErMin= 9 ErrMin= 1.87D-05
 ErrMax= 1.87D-05  0.00D+00 EMaxC= 1.00D-01 BMatC= 8.98D-08 BMatP= 1.14D-06
 IDIUse=1 WtCom= 1.00D+00 WtEn= 0.00D+00
 Coeff-Com:  0.161D-03-0.352D-03-0.118D-03-0.234D-02 0.523D-03 0.714D-02
 Coeff-Com:  0.482D-01 0.215D+00 0.732D+00
 Coeff:      0.161D-03-0.352D-03-0.118D-03-0.234D-02 0.523D-03 0.714D-02
 Coeff:      0.482D-01 0.215D+00 0.732D+00
 Gap=     0.174 Goal=   None    Shift=    0.000
 RMSDP=3.55D-06 MaxDP=1.14D-04 DE=-1.16D-06 OVMax= 1.87D-04

 Cycle  10  Pass 1  IDiag  1:
 E= -706.376467370976     Delta-E=       -0.000000100444 Rises=F Damp=F
 DIIS: error= 3.39D-06 at cycle  10 NSaved=  10.
 NSaved=10 IEnMin=10 EnMin= -706.376467370976     IErMin=10 ErrMin= 3.39D-06
 ErrMax= 3.39D-06  0.00D+00 EMaxC= 1.00D-01 BMatC= 4.83D-09 BMatP= 8.98D-08
 IDIUse=1 WtCom= 1.00D+00 WtEn= 0.00D+00
 Coeff-Com:  0.621D-04-0.105D-03-0.140D-03-0.117D-02-0.119D-02-0.963D-03
 Coeff-Com:  0.990D-03 0.707D-01 0.350D+00 0.582D+00
 Coeff:      0.621D-04-0.105D-03-0.140D-03-0.117D-02-0.119D-02-0.963D-03
 Coeff:      0.990D-03 0.707D-01 0.350D+00 0.582D+00
 Gap=     0.174 Goal=   None    Shift=    0.000
 RMSDP=1.24D-06 MaxDP=3.95D-05 DE=-1.00D-07 OVMax= 2.40D-05

 Cycle  11  Pass 1  IDiag  1:
 E= -706.376467376400     Delta-E=       -0.000000005423 Rises=F Damp=F
 DIIS: error= 9.09D-07 at cycle  11 NSaved=  11.
 NSaved=11 IEnMin=11 EnMin= -706.376467376400     IErMin=11 ErrMin= 9.09D-07
 ErrMax= 9.09D-07  0.00D+00 EMaxC= 1.00D-01 BMatC= 2.04D-10 BMatP= 4.83D-09
 IDIUse=1 WtCom= 1.00D+00 WtEn= 0.00D+00
 Coeff-Com:  0.281D-05 0.855D-05-0.457D-04-0.193D-03-0.659D-03-0.149D-02
 Coeff-Com: -0.683D-02-0.253D-02 0.459D-01 0.190D+00 0.776D+00
 Coeff:      0.281D-05 0.855D-05-0.457D-04-0.193D-03-0.659D-03-0.149D-02
 Coeff:     -0.683D-02-0.253D-02 0.459D-01 0.190D+00 0.776D+00
 Gap=     0.174 Goal=   None    Shift=    0.000
 RMSDP=2.37D-07 MaxDP=3.56D-06 DE=-5.42D-09 OVMax= 1.05D-05

 Cycle  12  Pass 1  IDiag  1:
 E= -706.376467376670     Delta-E=       -0.000000000270 Rises=F Damp=F
 DIIS: error= 1.85D-07 at cycle  12 NSaved=  12.
 NSaved=12 IEnMin=12 EnMin= -706.376467376670     IErMin=12 ErrMin= 1.85D-07
 ErrMax= 1.85D-07  0.00D+00 EMaxC= 1.00D-01 BMatC= 8.58D-12 BMatP= 2.04D-10
 IDIUse=1 WtCom= 1.00D+00 WtEn= 0.00D+00
 Coeff-Com: -0.318D-05 0.763D-05-0.411D-05 0.178D-05-0.927D-04-0.242D-03
 Coeff-Com: -0.149D-02-0.346D-02-0.348D-02 0.874D-02 0.179D+00 0.821D+00
 Coeff:     -0.318D-05 0.763D-05-0.411D-05 0.178D-05-0.927D-04-0.242D-03
 Coeff:     -0.149D-02-0.346D-02-0.348D-02 0.874D-02 0.179D+00 0.821D+00
 Gap=     0.174 Goal=   None    Shift=    0.000
 RMSDP=5.81D-08 MaxDP=1.48D-06 DE=-2.70D-10 OVMax= 1.60D-06

 Cycle  13  Pass 1  IDiag  1:
 E= -706.376467376682     Delta-E=       -0.000000000012 Rises=F Damp=F
 DIIS: error= 3.89D-08 at cycle  13 NSaved=  13.
 NSaved=13 IEnMin=13 EnMin= -706.376467376682     IErMin=13 ErrMin= 3.89D-08
 ErrMax= 3.89D-08  0.00D+00 EMaxC= 1.00D-01 BMatC= 4.07D-13 BMatP= 8.58D-12
 IDIUse=1 WtCom= 1.00D+00 WtEn= 0.00D+00
 Coeff-Com: -0.101D-05 0.115D-05 0.743D-06 0.513D-05 0.171D-04 0.501D-04
 Coeff-Com:  0.152D-03-0.245D-03-0.323D-02-0.119D-01-0.144D-01 0.138D+00
 Coeff-Com:  0.892D+00
 Coeff:     -0.101D-05 0.115D-05 0.743D-06 0.513D-05 0.171D-04 0.501D-04
 Coeff:      0.152D-03-0.245D-03-0.323D-02-0.119D-01-0.144D-01 0.138D+00
 Coeff:      0.892D+00
 Gap=     0.174 Goal=   None    Shift=    0.000
 RMSDP=1.83D-08 MaxDP=5.04D-07 DE=-1.18D-11 OVMax= 4.25D-07

 Cycle  14  Pass 1  IDiag  1:
 E= -706.376467376683     Delta-E=       -0.000000000001 Rises=F Damp=F
 DIIS: error= 5.91D-09 at cycle  14 NSaved=  14.
 NSaved=14 IEnMin=14 EnMin= -706.376467376683     IErMin=14 ErrMin= 5.91D-09
 ErrMax= 5.91D-09  0.00D+00 EMaxC= 1.00D-01 BMatC= 1.18D-14 BMatP= 4.07D-13
 IDIUse=1 WtCom= 1.00D+00 WtEn= 0.00D+00
 Coeff-Com: -0.850D-07-0.140D-07 0.282D-06 0.954D-06 0.631D-05 0.187D-04
 Coeff-Com:  0.752D-04 0.817D-04-0.561D-03-0.301D-02-0.941D-02-0.352D-02
 Coeff-Com:  0.178D+00 0.839D+00
 Coeff:     -0.850D-07-0.140D-07 0.282D-06 0.954D-06 0.631D-05 0.187D-04
 Coeff:      0.752D-04 0.817D-04-0.561D-03-0.301D-02-0.941D-02-0.352D-02
 Coeff:      0.178D+00 0.839D+00
 Gap=     0.174 Goal=   None    Shift=    0.000
 RMSDP=2.71D-09 MaxDP=6.72D-08 DE=-1.36D-12 OVMax= 6.29D-08

 Error on total polarization charges =  0.02382
 SCF Done:  E(RB3LYP) =  -706.376467377     A.U. after   14 cycles
            NFock= 14  Conv=0.27D-08     -V/T= 2.0062
 KE= 7.020454950161D+02 PE=-2.135617779441D+03 EE= 4.980372443701D+02
 SMD-CDS (non-electrostatic) energy       (kcal/mol) =       0.55
 (included in total energy above)
 Leave Link  502 at Wed Jan  8 00:32:20 2020, MaxMem=  4294967296 cpu:             449.5 elap:              31.5
 (Enter /home/cwagen/sw/g16/g16/l601.exe)
 Copying SCF densities to generalized density rwf, IOpCl= 0 IROHF=0.

 **********************************************************************

            Population analysis using the SCF density.

 **********************************************************************

 Orbital symmetries:
       Occupied  (A) (A) (A) (A) (A) (A) (A) (A) (A) (A) (A) (A)
                 (A) (A) (A) (A) (A) (A) (A) (A) (A) (A) (A) (A)
                 (A) (A) (A)
       Virtual   (A) (A) (A) (A) (A) (A) (A) (A) (A) (A) (A) (A)
                 (A) (A) (A) (A) (A) (A) (A) (A) (A) (A) (A) (A)
                 (A) (A) (A) (A) (A) (A) (A) (A) (A) (A) (A) (A)
                 (A) (A) (A) (A) (A) (A) (A) (A) (A) (A) (A) (A)
                 (A) (A) (A) (A) (A) (A) (A) (A) (A) (A) (A) (A)
                 (A) (A) (A) (A) (A) (A) (A) (A) (A) (A) (A) (A)
                 (A) (A) (A) (A) (A) (A) (A) (A) (A) (A) (A) (A)
                 (A) (A) (A) (A) (A) (A) (A) (A) (A) (A) (A) (A)
                 (A)
 The electronic state is 1-A.
 Alpha  occ. eigenvalues -- -101.50792 -19.16477 -14.27909 -10.34388 -10.19639
 Alpha  occ. eigenvalues --  -10.15286  -9.42204  -7.18475  -7.17725  -7.17692
 Alpha  occ. eigenvalues --   -1.01331  -0.83996  -0.77352  -0.72290  -0.53654
 Alpha  occ. eigenvalues --   -0.43707  -0.43307  -0.42224  -0.37320  -0.36915
 Alpha  occ. eigenvalues --   -0.34376  -0.28884  -0.28578  -0.28405  -0.28114
 Alpha  occ. eigenvalues --   -0.26710  -0.25098
 Alpha virt. eigenvalues --   -0.07681  -0.00488   0.03253   0.04847   0.05359
 Alpha virt. eigenvalues --    0.05830   0.07582   0.08367   0.08851   0.09617
 Alpha virt. eigenvalues --    0.10404   0.10813   0.11140   0.12362   0.13354
 Alpha virt. eigenvalues --    0.14174   0.15256   0.16274   0.17703   0.21114
 Alpha virt. eigenvalues --    0.22787   0.23755   0.24517   0.25479   0.26152
 Alpha virt. eigenvalues --    0.26486   0.28278   0.28456   0.31371   0.33511
 Alpha virt. eigenvalues --    0.34664   0.38377   0.41833   0.56781   0.59160
 Alpha virt. eigenvalues --    0.62784   0.65505   0.66228   0.67979   0.69510
 Alpha virt. eigenvalues --    0.71154   0.72872   0.75965   0.78692   0.80440
 Alpha virt. eigenvalues --    0.84266   0.85791   0.91487   0.92502   0.93199
 Alpha virt. eigenvalues --    0.96163   0.99008   1.00181   1.01078   1.03614
 Alpha virt. eigenvalues --    1.05077   1.07759   1.15203   1.20269   1.21022
 Alpha virt. eigenvalues --    1.29145   1.30727   1.34064   1.36598   1.48085
 Alpha virt. eigenvalues --    1.51114   1.58759   1.59255   1.59577   1.61091
 Alpha virt. eigenvalues --    1.62488   1.73097   1.76191   1.78262   1.83940
 Alpha virt. eigenvalues --    1.90092   1.97556   2.02186   2.02398   2.12682
 Alpha virt. eigenvalues --    2.20314   2.24804   2.28420   2.48884   2.49885
 Alpha virt. eigenvalues --    2.54131   2.65934   2.66171   2.72492   2.96712
 Alpha virt. eigenvalues --    3.10246   4.01296   4.16975   4.25250   4.30110
 Alpha virt. eigenvalues --    4.35378   4.45385
          Condensed to atoms (all electrons):
               1          2          3          4          5          6
     1  C    5.344462   0.490716  -0.042125  -0.057292  -0.005376  -0.056177
     2  O    0.490716   8.090074  -0.118097   0.008171  -0.009405  -0.003708
     3  C   -0.042125  -0.118097   5.837887   0.374960   0.351302   0.393807
     4  H   -0.057292   0.008171   0.374960   0.465352  -0.026265  -0.023653
     5  H   -0.005376  -0.009405   0.351302  -0.026265   0.456045  -0.023380
     6  H   -0.056177  -0.003708   0.393807  -0.023653  -0.023380   0.450401
     7  Cl  -0.111620  -0.067311   0.034710   0.007993  -0.008476   0.006087
     8  C    0.247327  -0.075085  -0.223325   0.002449   0.005883  -0.004166
     9  N   -0.011073  -0.000082   0.001998  -0.000259  -0.000033  -0.000032
               7          8          9
     1  C   -0.111620   0.247327  -0.011073
     2  O   -0.067311  -0.075085  -0.000082
     3  C    0.034710  -0.223325   0.001998
     4  H    0.007993   0.002449  -0.000259
     5  H   -0.008476   0.005883  -0.000033
     6  H    0.006087  -0.004166  -0.000032
     7  Cl  17.448501  -0.043687  -0.003607
     8  C   -0.043687   5.594520   0.641412
     9  N   -0.003607   0.641412   7.007597
 Mulliken charges:
               1
     1  C    0.201158
     2  O   -0.315273
     3  C   -0.611116
     4  H    0.248543
     5  H    0.259705
     6  H    0.260822
     7  Cl  -0.262590
     8  C   -0.145328
     9  N   -0.635921
 Sum of Mulliken charges =  -1.00000
 Mulliken charges with hydrogens summed into heavy atoms:
               1
     1  C    0.201158
     2  O   -0.315273
     3  C    0.157955
     7  Cl  -0.262590
     8  C   -0.145328
     9  N   -0.635921
 Electronic spatial extent (au):  <R**2>=            945.1097
 Charge=             -1.0000 electrons
 Dipole moment (field-independent basis, Debye):
    X=             -7.4244    Y=              4.4927    Z=             -2.8798  Tot=              9.1433
 Quadrupole moment (field-independent basis, Debye-Ang):
   XX=            -80.6474   YY=            -48.0437   ZZ=            -48.8319
   XY=              3.9410   XZ=              1.7449   YZ=             -4.7316
 Traceless Quadrupole moment (field-independent basis, Debye-Ang):
   XX=            -21.4731   YY=             11.1307   ZZ=             10.3425
   XY=              3.9410   XZ=              1.7449   YZ=             -4.7316
 Octapole moment (field-independent basis, Debye-Ang**2):
  XXX=           -119.3262  YYY=             13.7734  ZZZ=             -5.0973  XYY=            -10.9073
  XXY=             29.7791  XXZ=              2.1269  XZZ=             -5.7796  YZZ=             -0.1089
  YYZ=             -4.8828  XYZ=              1.2453
 Hexadecapole moment (field-independent basis, Debye-Ang**3):
 XXXX=          -1207.5993 YYYY=           -340.4462 ZZZZ=           -184.5260 XXXY=             81.7172
 XXXZ=              7.3013 YYYX=             15.7098 YYYZ=             -6.6837 ZZZX=              3.1984
 ZZZY=             -5.2501 XXYY=           -214.7297 XXZZ=           -175.4873 YYZZ=            -91.8135
 XXYZ=             -1.8035 YYXZ=              2.9716 ZZXY=              4.1239
 N-N= 2.291585726783D+02 E-N=-2.135617779628D+03  KE= 7.020454950161D+02
 No NMR shielding tensors so no spin-rotation constants.
 Leave Link  601 at Wed Jan  8 00:32:21 2020, MaxMem=  4294967296 cpu:              13.1 elap:               1.1
 (Enter /home/cwagen/sw/g16/g16/l701.exe)
 ... and contract with generalized density number  0.
 Compute integral first derivatives.
 D1PCM: PCM CHGder 1st derivatives, ID1Alg=3 FixD1E=F DoIter=F DoCFld=F I1PDM=0.
 GePol: Maximum number of non-zero 1st derivatives   =     362
 Leave Link  701 at Wed Jan  8 00:32:25 2020, MaxMem=  4294967296 cpu:              55.4 elap:               4.0
 (Enter /home/cwagen/sw/g16/g16/l702.exe)
 L702 exits ... SP integral derivatives will be done elsewhere.
 Leave Link  702 at Wed Jan  8 00:32:25 2020, MaxMem=  4294967296 cpu:               0.9 elap:               0.1
 (Enter /home/cwagen/sw/g16/g16/l703.exe)
 Integral derivatives from FoFJK, PRISM(SPDF).
 Compute integral first derivatives, UseDBF=F ICtDFT=           0.
 Calling FoFJK, ICntrl=      2127 FMM=F ISym2X=0 I1Cent= 0 IOpClX= 0 NMat=1 NMatS=1 NMatT=0.
 FoFJK:  IHMeth= 1 ICntrl=    2127 DoSepK=F KAlg= 0 I1Cent=           0 FoldK=F
 IRaf=         0 NMat=       1 IRICut=       1 DoRegI=T DoRafI=F ISym2E= 0 IDoP0=0 IntGTp=1.
 FoFCou: FMM=F IPFlag=           0 FMFlag=      100000 FMFlg1=         800
         NFxFlg=           0 DoJE=F BraDBF=F KetDBF=F FulRan=T
         wScrn=  0.000000 ICntrl=      2127 IOpCl=  0 I1Cent=           0 NGrid=           0
         NMat0=    1 NMatS0=      1 NMatT0=    0 NMatD0=    1 NMtDS0=    0 NMtDT0=    0
 Symmetry not used in FoFCou.
 Leave Link  703 at Wed Jan  8 00:32:27 2020, MaxMem=  4294967296 cpu:              32.1 elap:               2.4
 (Enter /home/cwagen/sw/g16/g16/l716.exe)
 Dipole        =-2.92098786D+00 1.76757930D+00-1.13299723D+00
 ***** Axes restored to original set *****
 -------------------------------------------------------------------
 Center     Atomic                   Forces (Hartrees/Bohr)
 Number     Number              X              Y              Z
 -------------------------------------------------------------------
      1        6          -0.034462603   -0.071450346   -0.108111304
      2        8           0.014734411    0.059046699    0.113750128
      3        6           0.009794613    0.023314903    0.008907474
      4        1          -0.000130003    0.000830114   -0.003601760
      5        1           0.000628281    0.004457968   -0.002380391
      6        1           0.000935360    0.003599280   -0.002297629
      7       17           0.021652611   -0.016612138   -0.005584893
      8        6          -0.028462714   -0.006993966   -0.001238321
      9        7           0.015310045    0.003807484    0.000556695
 -------------------------------------------------------------------
 Cartesian Forces:  Max     0.113750128 RMS     0.037161777
 Leave Link  716 at Wed Jan  8 00:32:27 2020, MaxMem=  4294967296 cpu:               0.8 elap:               0.1
 (Enter /home/cwagen/sw/g16/g16/l103.exe)

 GradGradGradGradGradGradGradGradGradGradGradGradGradGradGradGradGradGrad
 Berny optimization.
 FormGI is forming the generalized inverse of G from B-inverse, IUseBI=4.
 Internal  Forces:  Max     0.126496760 RMS     0.025979331
 Search for a local minimum.
 Step number   1 out of a maximum of   41
 All quantities printed in internal units (Hartrees-Bohrs-Radians)
 RMS Force = .26271D-01 SwitMx=.10000D-02 MixMth= 1
 Mixed Optimization -- RFO/linear search
 Second derivative matrix not updated -- first step.
 ITU=  0
     Eigenvalues ---    0.00230   0.04746   0.04746   0.05330   0.05908
     Eigenvalues ---    0.07453   0.10176   0.16000   0.16000   0.16000
     Eigenvalues ---    0.25000   0.25000   0.25000   0.26946   0.33918
     Eigenvalues ---    0.33999   0.34275   0.67840   1.220341000.00000
     Eigenvalues --- 1000.000001000.000001000.000001000.000001000.00000
     Eigenvalues --- 1000.000001000.000001000.000001000.000001000.00000
     Eigenvalues --- 1000.00000
 RFO step:  Lambda=-3.85001834D-02 EMin= 2.30000000D-03
 Linear search not attempted -- first point.
 Iteration  1 RMS(Cart)=  0.07050183 RMS(Int)=  0.00649467
 Iteration  2 RMS(Cart)=  0.00757039 RMS(Int)=  0.00240041
 Iteration  3 RMS(Cart)=  0.00005867 RMS(Int)=  0.00239992
 Iteration  4 RMS(Cart)=  0.00000046 RMS(Int)=  0.00239992
 Iteration  1 RMS(Cart)=  0.00000000 RMS(Int)=  0.00000000
 ITry= 1 IFail=0 DXMaxC= 1.48D-01 DCOld= 1.00D+10 DXMaxT= 3.00D-01 DXLimC= 3.00D+00 Rises=F
 Variable       Old X    -DE/DX   Delta X   Delta X   Delta X     New X
                                 (Linear)    (Quad)   (Total)
    R1        2.45227  -0.12650   0.00000  -0.17645  -0.17645   2.27582
    R2        2.94503  -0.02455   0.00000  -0.07971  -0.07971   2.86532
    R3        3.96842  -0.02699   0.00000   0.00000   0.00000   3.96842
    R4        4.72432  -0.01338   0.00000   0.00000   0.00000   4.72432
    R5        2.07331  -0.00317   0.00000  -0.00838  -0.00838   2.06493
    R6        2.07468  -0.00207   0.00000  -0.00549  -0.00549   2.06919
    R7        2.06868  -0.00141   0.00000  -0.00370  -0.00370   2.06498
    R8        2.20923   0.01577   0.00000   0.01253   0.01253   2.22176
    A1        1.99667   0.04516   0.00000   0.17604   0.17116   2.16783
    A2        2.01908  -0.01677   0.00000  -0.02309  -0.03123   1.98785
    A3        1.89239  -0.01197   0.00000  -0.04909  -0.04585   1.84654
    A4        1.92419  -0.00297   0.00000  -0.00204  -0.00901   1.91518
    A5        1.77194  -0.01064   0.00000  -0.06058  -0.05915   1.71279
    A6        1.83479  -0.00728   0.00000  -0.07231  -0.07394   1.76084
    A7        1.97398  -0.00077   0.00000  -0.00422  -0.00430   1.96968
    A8        1.87942  -0.00539   0.00000  -0.02722  -0.02743   1.85199
    A9        1.90140  -0.00457   0.00000  -0.02268  -0.02286   1.87853
   A10        1.90356   0.00316   0.00000   0.01520   0.01509   1.91865
   A11        1.90837   0.00298   0.00000   0.01507   0.01500   1.92337
   A12        1.89554   0.00476   0.00000   0.02470   0.02435   1.91990
   A13        3.09322   0.00013   0.00000   0.00147   0.00147   3.09469
   A14        2.87600   0.00016   0.00000   0.00185   0.00185   2.87785
    D1        3.04510  -0.00487   0.00000  -0.04744  -0.04977   2.99533
    D2       -1.13357  -0.00508   0.00000  -0.04965  -0.05204  -1.18561
    D3        0.91915  -0.00488   0.00000  -0.04764  -0.04988   0.86927
    D4       -0.92685   0.00963   0.00000   0.07857   0.07955  -0.84730
    D5        1.17766   0.00942   0.00000   0.07637   0.07729   1.25495
    D6       -3.05280   0.00961   0.00000   0.07837   0.07944  -2.97336
    D7        1.01121  -0.00468   0.00000  -0.03221  -0.03089   0.98032
    D8        3.11572  -0.00489   0.00000  -0.03441  -0.03315   3.08257
    D9       -1.11475  -0.00469   0.00000  -0.03241  -0.03100  -1.14574
         Item               Value     Threshold  Converged?
 Maximum Force            0.126497     0.000450     NO 
 RMS     Force            0.026271     0.000300     NO 
 Maximum Displacement     0.148190     0.001800     NO 
 RMS     Displacement     0.069429     0.001200     NO 
 Predicted change in Energy=-2.150784D-02
 Lowest energy point so far.  Saving SCF results.
 GradGradGradGradGradGradGradGradGradGradGradGradGradGradGradGradGradGrad

 Leave Link  103 at Wed Jan  8 00:32:31 2020, MaxMem=  4294967296 cpu:              57.3 elap:               4.0
 (Enter /home/cwagen/sw/g16/g16/l202.exe)
                          Input orientation:                          
 ---------------------------------------------------------------------
 Center     Atomic      Atomic             Coordinates (Angstroms)
 Number     Number       Type             X           Y           Z
 ---------------------------------------------------------------------
      1          6           0       -0.236124   -0.370418   -0.253306
      2          8           0       -0.247464   -0.588030   -1.437741
      3          6           0       -0.314316   -1.446644    0.811903
      4          1           0       -0.143535   -1.059733    1.819454
      5          1           0       -1.320875   -1.871809    0.740979
      6          1           0        0.430966   -2.207875    0.568659
      7         17           0       -1.401316    1.280093    0.319529
      8          6           0        2.060781    0.471334    0.262138
      9          7           0        3.197401    0.766835    0.317443
 ---------------------------------------------------------------------
                    Distance matrix (angstroms):
                    1          2          3          4          5
     1  C    0.000000
     2  O    1.204313   0.000000
     3  C    1.516261   2.408856   0.000000
     4  H    2.186335   3.292814   1.092714   0.000000
     5  H    2.102252   2.747203   1.094969   1.791286   0.000000
     6  H    2.120586   2.666422   1.092742   1.792419   1.792089
     7  Cl   2.100000   2.812340   2.976424   3.050668   3.180971
     8  C    2.500000   3.056115   3.101930   3.102968   4.141885
     9  N    3.661720   4.096758   4.180447   4.093195   5.249443
                    6          7          8          9
     6  H    0.000000
     7  Cl   3.947815   0.000000
     8  C    3.150938   3.555771   0.000000
     9  N    4.070034   4.627271   1.175706   0.000000
 Stoichiometry    C3H3ClNO(1-)
 Framework group  C1[X(C3H3ClNO)]
 Deg. of freedom    21
 Full point group                 C1      NOp   1
 RotChk:  IX=0 Diff= 2.19D-02
 Largest Abelian subgroup         C1      NOp   1
 Largest concise Abelian subgroup C1      NOp   1
                         Standard orientation:                         
 ---------------------------------------------------------------------
 Center     Atomic      Atomic             Coordinates (Angstroms)
 Number     Number       Type             X           Y           Z
 ---------------------------------------------------------------------
      1          6           0       -0.317068    0.594019    0.240459
      2          8           0       -0.355124    0.981169    1.380212
      3          6           0       -0.336240    1.506052   -0.970688
      4          1           0       -0.148397    0.973372   -1.906097
      5          1           0       -1.332320    1.960223   -0.993322
      6          1           0        0.422664    2.277014   -0.816522
      7         17           0       -1.510885   -1.094622   -0.124635
      8          6           0        1.969211   -0.366552   -0.076139
      9          7           0        3.098381   -0.693214   -0.052678
 ---------------------------------------------------------------------
 Rotational constants (GHZ):           3.2599830           1.6036080           1.3486181
 Leave Link  202 at Wed Jan  8 00:32:32 2020, MaxMem=  4294967296 cpu:               1.8 elap:               0.2
 (Enter /home/cwagen/sw/g16/g16/l301.exe)
 Standard basis: 6-31+G(d) (6D, 7F)
 Ernie: Thresh=  0.10000D-02 Tol=  0.10000D-05 Strict=F.
 There are   124 symmetry adapted cartesian basis functions of A   symmetry.
 There are   124 symmetry adapted basis functions of A   symmetry.
   124 basis functions,   228 primitive gaussians,   124 cartesian basis functions
    27 alpha electrons       27 beta electrons
       nuclear repulsion energy       233.8577499143 Hartrees.
 IExCor=  402 DFT=T Ex+Corr=B3LYP ExCW=0 ScaHFX=  0.200000
 ScaDFX=  0.800000  0.720000  1.000000  0.810000 ScalE2=  1.000000  1.000000
 IRadAn=      5 IRanWt=     -1 IRanGd=            0 ICorTp=0 IEmpDi=  4
 NAtoms=    9 NActive=    9 NUniq=    9 SFac= 1.00D+00 NAtFMM=   60 NAOKFM=F Big=F
 Integral buffers will be    131072 words long.
 Raffenetti 2 integral format.
 Two-electron integral symmetry is turned on.
 ------------------------------------------------------------------------------
 Polarizable Continuum Model (PCM)
 =================================
 Model                : PCM.
 Atomic radii         : SMD-Coulomb.
 Polarization charges : Total charges.
 Charge compensation  : None.
 Solution method      : On-the-fly selection.
 Cavity type          : VdW (van der Waals Surface) (Alpha=1.000).
 Cavity algorithm     : GePol (No added spheres)
                        Default sphere list used, NSphG=    9.
                        Lebedev-Laikov grids with approx.  5.0 points / Ang**2.
                        Smoothing algorithm: York/Karplus (Gamma=1.0000).
                        Polarization charges: spherical gaussians, with
                                              point-specific exponents (IZeta= 3).
                        Self-potential: point-specific (ISelfS= 7).
                        Self-field    : sphere-specific E.n sum rule (ISelfD= 2).
 1st derivatives      : Analytical E(r).r(x)/FMM algorithm (CHGder, D1EAlg=3).
                        Cavity 1st derivative terms included.
 Solvent              : TetraHydroFuran, Eps=   7.425700 Eps(inf)=   1.974025
 ------------------------------------------------------------------------------
 Spheres list:
 ISph  on   Nord     Re0    Alpha      Xe            Ye            Ze
    1   C      1    1.8500  1.000     -0.317068      0.594019      0.240459
    2   O      2    2.2940  1.000     -0.355124      0.981169      1.380212
    3   C      3    1.8500  1.000     -0.336240      1.506052     -0.970688
    4   H      4    1.2000  1.000     -0.148397      0.973372     -1.906097
    5   H      5    1.2000  1.000     -1.332320      1.960223     -0.993322
    6   H      6    1.2000  1.000      0.422664      2.277014     -0.816522
    7  Cl      7    2.3800  1.000     -1.510885     -1.094622     -0.124635
    8   C      8    1.8500  1.000      1.969211     -0.366552     -0.076139
    9   N      9    1.8900  1.000      3.098381     -0.693214     -0.052678
 ------------------------------------------------------------------------------
 GePol: Number of generator spheres                  =       9
 GePol: Total number of spheres                      =       9
 GePol: Number of exposed spheres                    =       9 (100.00%)
 GePol: Number of points                             =    1230
 GePol: Average weight of points                     =       0.14
 GePol: Minimum weight of points                     =   0.13D-07
 GePol: Maximum weight of points                     =    0.18138
 GePol: Number of points with low weight             =      40
 GePol: Fraction of low-weight points (<1% of avg)   =       3.25%
 GePol: Cavity surface area                          =    166.384 Ang**2
 GePol: Cavity volume                                =    150.583 Ang**3
 ------------------------------------------------------------------------------
 Atomic radii for non-electrostatic terms: SMD-CDS.
 ------------------------------------------------------------------------------
 PCM non-electrostatic energy =         0.0007469579 Hartrees.
 Nuclear repulsion after PCM non-electrostatic terms =      233.8584968722 Hartrees.
 Leave Link  301 at Wed Jan  8 00:32:32 2020, MaxMem=  4294967296 cpu:               2.0 elap:               0.2
 (Enter /home/cwagen/sw/g16/g16/l302.exe)
 NPDir=0 NMtPBC=     1 NCelOv=     1 NCel=       1 NClECP=     1 NCelD=      1
         NCelK=      1 NCelE2=     1 NClLst=     1 CellRange=     0.0.
 One-electron integrals computed using PRISM.
 One-electron integral symmetry used in STVInt
 NBasis=   124 RedAO= T EigKep=  9.83D-05  NBF=   124
 NBsUse=   124 1.00D-06 EigRej= -1.00D+00 NBFU=   124
 Precomputing XC quadrature grid using
 IXCGrd= 4 IRadAn=           5 IRanWt=          -1 IRanGd=           0 AccXCQ= 0.00D+00.
 Generated NRdTot=       0 NPtTot=           0 NUsed=           0 NTot=          32
 NSgBfM=   124   124   124   124   124 MxSgAt=     9 MxSgA2=     9.
 Leave Link  302 at Wed Jan  8 00:32:34 2020, MaxMem=  4294967296 cpu:              23.9 elap:               1.9
 (Enter /home/cwagen/sw/g16/g16/l303.exe)
 DipDrv:  MaxL=1.
 Leave Link  303 at Wed Jan  8 00:32:34 2020, MaxMem=  4294967296 cpu:               2.7 elap:               0.3
 (Enter /home/cwagen/sw/g16/g16/l401.exe)
 Initial guess from the checkpoint file:  "/scratch/users/cwagen/cwagen_scan_210_250/Gau-51698.chk"
 B after Tr=     0.000000    0.000000    0.000000
         Rot=    0.999943   -0.010132    0.003364    0.000076 Ang=  -1.22 deg.
 Guess basis will be translated and rotated to current coordinates.
 JPrj=2 DoOrth=T DoCkMO=T.
 Generating alternative initial guess.
 ExpMin= 4.38D-02 ExpMax= 2.52D+04 ExpMxC= 3.78D+03 IAcc=2 IRadAn=         4 AccDes= 0.00D+00
 Harris functional with IExCor=  402 and IRadAn=       4 diagonalized for initial guess.
 HarFok:  IExCor=  402 AccDes= 0.00D+00 IRadAn=         4 IDoV= 1 UseB2=F ITyADJ=14
 ICtDFT=  3500011 ScaDFX=  1.000000  1.000000  1.000000  1.000000
 FoFCou: FMM=F IPFlag=           0 FMFlag=      100000 FMFlg1=           0
         NFxFlg=           0 DoJE=T BraDBF=F KetDBF=T FulRan=T
         wScrn=  0.000000 ICntrl=       500 IOpCl=  0 I1Cent=   200000004 NGrid=           0
         NMat0=    1 NMatS0=      1 NMatT0=    0 NMatD0=    1 NMtDS0=    0 NMtDT0=    0
 Petite list used in FoFCou.
 Harris En= -706.403252183598    
 Leave Link  401 at Wed Jan  8 00:32:36 2020, MaxMem=  4294967296 cpu:              34.0 elap:               2.5
 (Enter /home/cwagen/sw/g16/g16/l502.exe)
 Keep R1 ints in memory in canonical form, NReq=45236517.
 FoFCou: FMM=F IPFlag=           0 FMFlag=           0 FMFlg1=           0
         NFxFlg=           0 DoJE=F BraDBF=F KetDBF=F FulRan=T
         wScrn=  0.000000 ICntrl=       600 IOpCl=  0 I1Cent=           0 NGrid=           0
         NMat0=    1 NMatS0=   7750 NMatT0=    0 NMatD0=    1 NMtDS0=    0 NMtDT0=    0
 Symmetry not used in FoFCou.
 Two-electron integral symmetry not used.
 Closed shell SCF:
 Using DIIS extrapolation, IDIIS=  1040.
 NGot=  4294967296 LenX=  4264898079 LenY=  4264882262
 Requested convergence on RMS density matrix=1.00D-08 within 128 cycles.
 Requested convergence on MAX density matrix=1.00D-06.
 Requested convergence on             energy=1.00D-06.
 No special actions if energy rises.

 Cycle   1  Pass 1  IDiag  1:
 Inv3:  Mode=1 IEnd=     4538700.
 Iteration    1 A*A^-1 deviation from unit magnitude is 2.89D-15 for    103.
 Iteration    1 A*A^-1 deviation from orthogonality  is 2.01D-15 for    314     61.
 Iteration    1 A^-1*A deviation from unit magnitude is 2.66D-15 for    103.
 Iteration    1 A^-1*A deviation from orthogonality  is 1.95D-15 for   1222    952.
 E= -706.387554522737    
 DIIS: error= 6.24D-03 at cycle   1 NSaved=   1.
 NSaved= 1 IEnMin= 1 EnMin= -706.387554522737     IErMin= 1 ErrMin= 6.24D-03
 ErrMax= 6.24D-03  0.00D+00 EMaxC= 1.00D-01 BMatC= 1.03D-02 BMatP= 1.03D-02
 IDIUse=3 WtCom= 9.38D-01 WtEn= 6.24D-02
 Coeff-Com:  0.100D+01
 Coeff-En:   0.100D+01
 Coeff:      0.100D+01
 Gap=     0.611 Goal=   None    Shift=    0.000
 GapD=    0.611 DampG=2.000 DampE=1.000 DampFc=2.0000 IDamp=-1.
 RMSDP=3.06D-03 MaxDP=1.44D-01              OVMax= 4.15D-02

 Cycle   2  Pass 1  IDiag  1:
 E= -706.402951080263     Delta-E=       -0.015396557526 Rises=F Damp=F
 DIIS: error= 1.80D-03 at cycle   2 NSaved=   2.
 NSaved= 2 IEnMin= 2 EnMin= -706.402951080263     IErMin= 2 ErrMin= 1.80D-03
 ErrMax= 1.80D-03  0.00D+00 EMaxC= 1.00D-01 BMatC= 9.26D-04 BMatP= 1.03D-02
 IDIUse=3 WtCom= 9.82D-01 WtEn= 1.80D-02
 Coeff-Com:  0.116D+00 0.884D+00
 Coeff-En:   0.000D+00 0.100D+01
 Coeff:      0.114D+00 0.886D+00
 Gap=     0.202 Goal=   None    Shift=    0.000
 RMSDP=5.90D-04 MaxDP=1.29D-02 DE=-1.54D-02 OVMax= 2.37D-02

 Cycle   3  Pass 1  IDiag  1:
 E= -706.402323798865     Delta-E=        0.000627281397 Rises=F Damp=F
 DIIS: error= 3.27D-03 at cycle   3 NSaved=   3.
 NSaved= 3 IEnMin= 2 EnMin= -706.402951080263     IErMin= 2 ErrMin= 1.80D-03
 ErrMax= 3.27D-03  0.00D+00 EMaxC= 1.00D-01 BMatC= 1.59D-03 BMatP= 9.26D-04
 IDIUse=3 WtCom= 1.49D-01 WtEn= 8.51D-01
 Coeff-Com: -0.179D-01 0.576D+00 0.442D+00
 Coeff-En:   0.000D+00 0.614D+00 0.386D+00
 Coeff:     -0.267D-02 0.608D+00 0.395D+00
 Gap=     0.197 Goal=   None    Shift=    0.000
 RMSDP=3.92D-04 MaxDP=9.15D-03 DE= 6.27D-04 OVMax= 1.26D-02

 Cycle   4  Pass 1  IDiag  1:
 E= -706.403801446845     Delta-E=       -0.001477647980 Rises=F Damp=F
 DIIS: error= 6.16D-04 at cycle   4 NSaved=   4.
 NSaved= 4 IEnMin= 4 EnMin= -706.403801446845     IErMin= 4 ErrMin= 6.16D-04
 ErrMax= 6.16D-04  0.00D+00 EMaxC= 1.00D-01 BMatC= 9.05D-05 BMatP= 9.26D-04
 IDIUse=3 WtCom= 9.94D-01 WtEn= 6.16D-03
 Coeff-Com: -0.213D-01 0.277D+00 0.248D+00 0.497D+00
 Coeff-En:   0.000D+00 0.000D+00 0.000D+00 0.100D+01
 Coeff:     -0.212D-01 0.275D+00 0.247D+00 0.500D+00
 Gap=     0.194 Goal=   None    Shift=    0.000
 RMSDP=1.15D-04 MaxDP=2.22D-03 DE=-1.48D-03 OVMax= 3.14D-03

 Cycle   5  Pass 1  IDiag  1:
 E= -706.403864042270     Delta-E=       -0.000062595425 Rises=F Damp=F
 DIIS: error= 2.30D-04 at cycle   5 NSaved=   5.
 NSaved= 5 IEnMin= 5 EnMin= -706.403864042270     IErMin= 5 ErrMin= 2.30D-04
 ErrMax= 2.30D-04  0.00D+00 EMaxC= 1.00D-01 BMatC= 1.63D-05 BMatP= 9.05D-05
 IDIUse=3 WtCom= 9.98D-01 WtEn= 2.30D-03
 Coeff-Com: -0.790D-02 0.796D-01 0.938D-01 0.310D+00 0.524D+00
 Coeff-En:   0.000D+00 0.000D+00 0.000D+00 0.169D+00 0.831D+00
 Coeff:     -0.788D-02 0.794D-01 0.936D-01 0.310D+00 0.525D+00
 Gap=     0.195 Goal=   None    Shift=    0.000
 RMSDP=5.23D-05 MaxDP=1.26D-03 DE=-6.26D-05 OVMax= 1.08D-03

 Cycle   6  Pass 1  IDiag  1:
 E= -706.403881074709     Delta-E=       -0.000017032439 Rises=F Damp=F
 DIIS: error= 6.02D-05 at cycle   6 NSaved=   6.
 NSaved= 6 IEnMin= 6 EnMin= -706.403881074709     IErMin= 6 ErrMin= 6.02D-05
 ErrMax= 6.02D-05  0.00D+00 EMaxC= 1.00D-01 BMatC= 5.31D-07 BMatP= 1.63D-05
 IDIUse=1 WtCom= 1.00D+00 WtEn= 0.00D+00
 Coeff-Com: -0.171D-02 0.110D-01 0.201D-01 0.970D-01 0.226D+00 0.648D+00
 Coeff:     -0.171D-02 0.110D-01 0.201D-01 0.970D-01 0.226D+00 0.648D+00
 Gap=     0.195 Goal=   None    Shift=    0.000
 RMSDP=1.14D-05 MaxDP=4.38D-04 DE=-1.70D-05 OVMax= 3.14D-04

 Cycle   7  Pass 1  IDiag  1:
 E= -706.403881632807     Delta-E=       -0.000000558098 Rises=F Damp=F
 DIIS: error= 1.77D-05 at cycle   7 NSaved=   7.
 NSaved= 7 IEnMin= 7 EnMin= -706.403881632807     IErMin= 7 ErrMin= 1.77D-05
 ErrMax= 1.77D-05  0.00D+00 EMaxC= 1.00D-01 BMatC= 7.13D-08 BMatP= 5.31D-07
 IDIUse=1 WtCom= 1.00D+00 WtEn= 0.00D+00
 Coeff-Com: -0.106D-03-0.278D-02 0.195D-03 0.204D-01 0.687D-01 0.322D+00
 Coeff-Com:  0.591D+00
 Coeff:     -0.106D-03-0.278D-02 0.195D-03 0.204D-01 0.687D-01 0.322D+00
 Coeff:      0.591D+00
 Gap=     0.195 Goal=   None    Shift=    0.000
 RMSDP=5.58D-06 MaxDP=2.12D-04 DE=-5.58D-07 OVMax= 1.08D-04

 Cycle   8  Pass 1  IDiag  1:
 E= -706.403881689017     Delta-E=       -0.000000056210 Rises=F Damp=F
 DIIS: error= 1.15D-05 at cycle   8 NSaved=   8.
 NSaved= 8 IEnMin= 8 EnMin= -706.403881689017     IErMin= 8 ErrMin= 1.15D-05
 ErrMax= 1.15D-05  0.00D+00 EMaxC= 1.00D-01 BMatC= 2.43D-08 BMatP= 7.13D-08
 IDIUse=1 WtCom= 1.00D+00 WtEn= 0.00D+00
 Coeff-Com:  0.692D-04-0.266D-02-0.201D-02 0.410D-02 0.235D-01 0.150D+00
 Coeff-Com:  0.407D+00 0.420D+00
 Coeff:      0.692D-04-0.266D-02-0.201D-02 0.410D-02 0.235D-01 0.150D+00
 Coeff:      0.407D+00 0.420D+00
 Gap=     0.195 Goal=   None    Shift=    0.000
 RMSDP=1.72D-06 MaxDP=6.31D-05 DE=-5.62D-08 OVMax= 5.16D-05

 Cycle   9  Pass 1  IDiag  1:
 E= -706.403881709404     Delta-E=       -0.000000020387 Rises=F Damp=F
 DIIS: error= 2.52D-06 at cycle   9 NSaved=   9.
 NSaved= 9 IEnMin= 9 EnMin= -706.403881709404     IErMin= 9 ErrMin= 2.52D-06
 ErrMax= 2.52D-06  0.00D+00 EMaxC= 1.00D-01 BMatC= 1.64D-09 BMatP= 2.43D-08
 IDIUse=1 WtCom= 1.00D+00 WtEn= 0.00D+00
 Coeff-Com:  0.750D-04-0.115D-02-0.156D-02-0.140D-02 0.138D-02 0.271D-01
 Coeff-Com:  0.123D+00 0.220D+00 0.632D+00
 Coeff:      0.750D-04-0.115D-02-0.156D-02-0.140D-02 0.138D-02 0.271D-01
 Coeff:      0.123D+00 0.220D+00 0.632D+00
 Gap=     0.195 Goal=   None    Shift=    0.000
 RMSDP=5.52D-07 MaxDP=2.22D-05 DE=-2.04D-08 OVMax= 1.58D-05

 Cycle  10  Pass 1  IDiag  1:
 E= -706.403881711002     Delta-E=       -0.000000001598 Rises=F Damp=F
 DIIS: error= 6.36D-07 at cycle  10 NSaved=  10.
 NSaved=10 IEnMin=10 EnMin= -706.403881711002     IErMin=10 ErrMin= 6.36D-07
 ErrMax= 6.36D-07  0.00D+00 EMaxC= 1.00D-01 BMatC= 1.00D-10 BMatP= 1.64D-09
 IDIUse=1 WtCom= 1.00D+00 WtEn= 0.00D+00
 Coeff-Com:  0.241D-04-0.195D-03-0.506D-03-0.927D-03-0.177D-02-0.391D-02
 Coeff-Com:  0.681D-02 0.417D-01 0.249D+00 0.710D+00
 Coeff:      0.241D-04-0.195D-03-0.506D-03-0.927D-03-0.177D-02-0.391D-02
 Coeff:      0.681D-02 0.417D-01 0.249D+00 0.710D+00
 Gap=     0.195 Goal=   None    Shift=    0.000
 RMSDP=1.95D-07 MaxDP=8.39D-06 DE=-1.60D-09 OVMax= 3.91D-06

 Cycle  11  Pass 1  IDiag  1:
 E= -706.403881711115     Delta-E=       -0.000000000113 Rises=F Damp=F
 DIIS: error= 1.35D-07 at cycle  11 NSaved=  11.
 NSaved=11 IEnMin=11 EnMin= -706.403881711115     IErMin=11 ErrMin= 1.35D-07
 ErrMax= 1.35D-07  0.00D+00 EMaxC= 1.00D-01 BMatC= 3.20D-12 BMatP= 1.00D-10
 IDIUse=1 WtCom= 1.00D+00 WtEn= 0.00D+00
 Coeff-Com:  0.364D-05 0.974D-05-0.689D-04-0.223D-03-0.649D-03-0.278D-02
 Coeff-Com: -0.567D-02 0.224D-02 0.455D-01 0.238D+00 0.724D+00
 Coeff:      0.364D-05 0.974D-05-0.689D-04-0.223D-03-0.649D-03-0.278D-02
 Coeff:     -0.567D-02 0.224D-02 0.455D-01 0.238D+00 0.724D+00
 Gap=     0.195 Goal=   None    Shift=    0.000
 RMSDP=4.22D-08 MaxDP=1.24D-06 DE=-1.13D-10 OVMax= 1.08D-06

 Cycle  12  Pass 1  IDiag  1:
 E= -706.403881711117     Delta-E=       -0.000000000001 Rises=F Damp=F
 DIIS: error= 2.32D-08 at cycle  12 NSaved=  12.
 NSaved=12 IEnMin=12 EnMin= -706.403881711117     IErMin=12 ErrMin= 2.32D-08
 ErrMax= 2.32D-08  0.00D+00 EMaxC= 1.00D-01 BMatC= 1.59D-13 BMatP= 3.20D-12
 IDIUse=1 WtCom= 1.00D+00 WtEn= 0.00D+00
 Coeff-Com: -0.320D-06 0.915D-05 0.121D-04-0.910D-05-0.575D-04-0.286D-03
 Coeff-Com: -0.154D-02-0.553D-03-0.326D-02 0.975D-02 0.145D+00 0.850D+00
 Coeff:     -0.320D-06 0.915D-05 0.121D-04-0.910D-05-0.575D-04-0.286D-03
 Coeff:     -0.154D-02-0.553D-03-0.326D-02 0.975D-02 0.145D+00 0.850D+00
 Gap=     0.195 Goal=   None    Shift=    0.000
 RMSDP=9.56D-09 MaxDP=2.80D-07 DE=-1.36D-12 OVMax= 1.88D-07

 Error on total polarization charges =  0.02490
 SCF Done:  E(RB3LYP) =  -706.403881711     A.U. after   12 cycles
            NFock= 12  Conv=0.96D-08     -V/T= 2.0057
 KE= 7.023847816410D+02 PE=-2.145314315995D+03 EE= 5.026671557706D+02
 SMD-CDS (non-electrostatic) energy       (kcal/mol) =       0.47
 (included in total energy above)
 Leave Link  502 at Wed Jan  8 00:33:04 2020, MaxMem=  4294967296 cpu:             397.8 elap:              27.9
 (Enter /home/cwagen/sw/g16/g16/l701.exe)
 ... and contract with generalized density number  0.
 Compute integral first derivatives.
 D1PCM: PCM CHGder 1st derivatives, ID1Alg=3 FixD1E=F DoIter=F DoCFld=F I1PDM=0.
 GePol: Maximum number of non-zero 1st derivatives   =     360
 Leave Link  701 at Wed Jan  8 00:33:08 2020, MaxMem=  4294967296 cpu:              54.3 elap:               4.1
 (Enter /home/cwagen/sw/g16/g16/l702.exe)
 L702 exits ... SP integral derivatives will be done elsewhere.
 Leave Link  702 at Wed Jan  8 00:33:09 2020, MaxMem=  4294967296 cpu:               0.8 elap:               0.1
 (Enter /home/cwagen/sw/g16/g16/l703.exe)
 Integral derivatives from FoFJK, PRISM(SPDF).
 Compute integral first derivatives, UseDBF=F ICtDFT=           0.
 Calling FoFJK, ICntrl=      2127 FMM=F ISym2X=0 I1Cent= 0 IOpClX= 0 NMat=1 NMatS=1 NMatT=0.
 FoFJK:  IHMeth= 1 ICntrl=    2127 DoSepK=F KAlg= 0 I1Cent=           0 FoldK=F
 IRaf=         0 NMat=       1 IRICut=       1 DoRegI=T DoRafI=F ISym2E= 0 IDoP0=0 IntGTp=1.
 FoFCou: FMM=F IPFlag=           0 FMFlag=      100000 FMFlg1=         800
         NFxFlg=           0 DoJE=F BraDBF=F KetDBF=F FulRan=T
         wScrn=  0.000000 ICntrl=      2127 IOpCl=  0 I1Cent=           0 NGrid=           0
         NMat0=    1 NMatS0=      1 NMatT0=    0 NMatD0=    1 NMtDS0=    0 NMtDT0=    0
 Symmetry not used in FoFCou.
 Leave Link  703 at Wed Jan  8 00:33:11 2020, MaxMem=  4294967296 cpu:              33.2 elap:               2.4
 (Enter /home/cwagen/sw/g16/g16/l716.exe)
 Dipole        =-2.98660883D+00 2.16901705D+00-9.39440130D-01
 ***** Axes restored to original set *****
 -------------------------------------------------------------------
 Center     Atomic                   Forces (Hartrees/Bohr)
 Number     Number              X              Y              Z
 -------------------------------------------------------------------
      1        6          -0.021446728   -0.019259272   -0.034686257
      2        8           0.007841037    0.018092859    0.032934823
      3        6           0.007283826    0.014824913    0.005635252
      4        1          -0.000370017   -0.000091627   -0.002045759
      5        1          -0.000912738    0.000071240   -0.000060628
      6        1           0.000185006   -0.000233772   -0.000398055
      7       17           0.012859468   -0.011724051   -0.001793399
      8        6          -0.008999558   -0.002912126    0.000227306
      9        7           0.003559705    0.001231836    0.000186716
 -------------------------------------------------------------------
 Cartesian Forces:  Max     0.034686257 RMS     0.012512728
 Leave Link  716 at Wed Jan  8 00:33:11 2020, MaxMem=  4294967296 cpu:               1.0 elap:               0.1
 (Enter /home/cwagen/sw/g16/g16/l103.exe)

 GradGradGradGradGradGradGradGradGradGradGradGradGradGradGradGradGradGrad
 Berny optimization.
 Using GEDIIS/GDIIS optimizer.
 FormGI is forming the generalized inverse of G from B-inverse, IUseBI=4.
 Internal  Forces:  Max     0.035745395 RMS     0.009061370
 Search for a local minimum.
 Step number   2 out of a maximum of   41
 All quantities printed in internal units (Hartrees-Bohrs-Radians)
 RMS Force = .87735D-02 SwitMx=.10000D-02 MixMth= 1
 Mixed Optimization -- RFO/linear search
 Update second derivatives using D2CorX and points    1    2
 DE= -2.74D-02 DEPred=-2.15D-02 R= 1.27D+00
 TightC=F SS=  1.41D+00  RLast= 3.33D-01 DXNew= 5.0454D-01 9.9871D-01
 Trust test= 1.27D+00 RLast= 3.33D-01 DXMaxT set to 5.05D-01
 ITU=  1  0
 Use linear search instead of GDIIS.
     Eigenvalues ---    0.00230   0.04745   0.04747   0.05335   0.05468
     Eigenvalues ---    0.06141   0.09863   0.15992   0.16000   0.16137
     Eigenvalues ---    0.20887   0.25000   0.25457   0.26975   0.33938
     Eigenvalues ---    0.33981   0.34283   0.60844   1.219601000.00000
     Eigenvalues --- 1000.000001000.000001000.000001000.000001000.00000
     Eigenvalues --- 1000.000001000.000001000.000001000.000001000.00000
     Eigenvalues --- 1000.00000
 RFO step:  Lambda=-1.20663144D-03 EMin= 2.29988190D-03
 Quartic linear search produced a step of  0.42270.
 Iteration  1 RMS(Cart)=  0.05224854 RMS(Int)=  0.00348310
 Iteration  2 RMS(Cart)=  0.00317910 RMS(Int)=  0.00215376
 Iteration  3 RMS(Cart)=  0.00001057 RMS(Int)=  0.00215375
 Iteration  4 RMS(Cart)=  0.00000007 RMS(Int)=  0.00215375
 Iteration  1 RMS(Cart)=  0.00000000 RMS(Int)=  0.00000000
 ITry= 1 IFail=0 DXMaxC= 1.18D-01 DCOld= 1.00D+10 DXMaxT= 5.05D-01 DXLimC= 3.00D+00 Rises=F
 Variable       Old X    -DE/DX   Delta X   Delta X   Delta X     New X
                                 (Linear)    (Quad)   (Total)
    R1        2.27582  -0.03575  -0.07458   0.00759  -0.06700   2.20882
    R2        2.86532  -0.00847  -0.03369   0.00203  -0.03167   2.83365
    R3        3.96842  -0.01682   0.00000   0.00000   0.00000   3.96842
    R4        4.72432  -0.00548   0.00000   0.00000   0.00000   4.72432
    R5        2.06493  -0.00198  -0.00354  -0.00369  -0.00723   2.05770
    R6        2.06919   0.00081  -0.00232   0.00640   0.00408   2.07327
    R7        2.06498   0.00039  -0.00156   0.00363   0.00207   2.06705
    R8        2.22176   0.00376   0.00530  -0.00104   0.00425   2.22602
    A1        2.16783   0.02262   0.07235   0.04040   0.10894   2.27677
    A2        1.98785  -0.00509  -0.01320   0.01904  -0.00054   1.98731
    A3        1.84654  -0.00453  -0.01938  -0.01200  -0.02729   1.81925
    A4        1.91518  -0.00788  -0.00381  -0.02790  -0.03777   1.87741
    A5        1.71279  -0.00808  -0.02500  -0.03234  -0.05547   1.65732
    A6        1.76084  -0.00280  -0.03126  -0.00529  -0.03958   1.72126
    A7        1.96968  -0.00084  -0.00182  -0.00440  -0.00625   1.96343
    A8        1.85199  -0.00026  -0.01159   0.01687   0.00517   1.85717
    A9        1.87853  -0.00014  -0.00966   0.01613   0.00638   1.88492
   A10        1.91865   0.00034   0.00638  -0.00922  -0.00288   1.91577
   A11        1.92337   0.00058   0.00634  -0.00446   0.00186   1.92524
   A12        1.91990   0.00029   0.01029  -0.01427  -0.00415   1.91575
   A13        3.09469   0.00061   0.00062   0.01577   0.01639   3.11108
   A14        2.87785   0.00004   0.00078  -0.00160  -0.00081   2.87704
    D1        2.99533  -0.00382  -0.02104  -0.04402  -0.06699   2.92834
    D2       -1.18561  -0.00406  -0.02200  -0.04683  -0.07079  -1.25640
    D3        0.86927  -0.00393  -0.02108  -0.04679  -0.06976   0.79951
    D4       -0.84730   0.00606   0.03363   0.00440   0.03801  -0.80929
    D5        1.25495   0.00582   0.03267   0.00159   0.03421   1.28916
    D6       -2.97336   0.00596   0.03358   0.00163   0.03524  -2.93812
    D7        0.98032  -0.00219  -0.01306  -0.02132  -0.03245   0.94787
    D8        3.08257  -0.00243  -0.01401  -0.02413  -0.03625   3.04632
    D9       -1.14574  -0.00229  -0.01310  -0.02409  -0.03522  -1.18096
         Item               Value     Threshold  Converged?
 Maximum Force            0.035745     0.000450     NO 
 RMS     Force            0.008773     0.000300     NO 
 Maximum Displacement     0.117991     0.001800     NO 
 RMS     Displacement     0.053055     0.001200     NO 
 Predicted change in Energy=-5.136770D-03
 Lowest energy point so far.  Saving SCF results.
 GradGradGradGradGradGradGradGradGradGradGradGradGradGradGradGradGradGrad

 Leave Link  103 at Wed Jan  8 00:33:15 2020, MaxMem=  4294967296 cpu:              51.0 elap:               4.0
 (Enter /home/cwagen/sw/g16/g16/l202.exe)
                          Input orientation:                          
 ---------------------------------------------------------------------
 Center     Atomic      Atomic             Coordinates (Angstroms)
 Number     Number       Type             X           Y           Z
 ---------------------------------------------------------------------
      1          6           0       -0.261826   -0.410382   -0.296613
      2          8           0       -0.236577   -0.545719   -1.457336
      3          6           0       -0.301004   -1.431059    0.801199
      4          1           0       -0.105057   -0.997295    1.780551
      5          1           0       -1.307613   -1.867070    0.783203
      6          1           0        0.440247   -2.202194    0.572339
      7         17           0       -1.378869    1.249600    0.341097
      8          6           0        2.021484    0.432895    0.273805
      9          7           0        3.154735    0.744978    0.350815
 ---------------------------------------------------------------------
                    Distance matrix (angstroms):
                    1          2          3          4          5
     1  C    0.000000
     2  O    1.168859   0.000000
     3  C    1.499503   2.426718   0.000000
     4  H    2.164175   3.271869   1.088887   0.000000
     5  H    2.093230   2.813023   1.097129   1.788114   0.000000
     6  H    2.111534   2.705842   1.093837   1.791344   1.792146
     7  Cl   2.100000   2.786102   2.925649   2.956884   3.148678
     8  C    2.500000   3.008883   3.024305   2.972861   4.078261
     9  N    3.664275   4.054172   4.108542   3.963067   5.188671
                    6          7          8          9
     6  H    0.000000
     7  Cl   3.908649   0.000000
     8  C    3.087576   3.497705   0.000000
     9  N    4.012897   4.561612   1.177957   0.000000
 Stoichiometry    C3H3ClNO(1-)
 Framework group  C1[X(C3H3ClNO)]
 Deg. of freedom    21
 Full point group                 C1      NOp   1
 RotChk:  IX=0 Diff= 4.30D-02
 Largest Abelian subgroup         C1      NOp   1
 Largest concise Abelian subgroup C1      NOp   1
                         Standard orientation:                         
 ---------------------------------------------------------------------
 Center     Atomic      Atomic             Coordinates (Angstroms)
 Number     Number       Type             X           Y           Z
 ---------------------------------------------------------------------
      1          6           0       -0.341686    0.638051    0.261286
      2          8           0       -0.350784    0.972908    1.381116
      3          6           0       -0.312537    1.452467   -0.997438
      4          1           0       -0.097802    0.849932   -1.878639
      5          1           0       -1.305101    1.909911   -1.093637
      6          1           0        0.444394    2.232953   -0.877546
      7         17           0       -1.488165   -1.079275   -0.121307
      8          6           0        1.931895   -0.348403   -0.066948
      9          7           0        3.056793   -0.697296   -0.045469
 ---------------------------------------------------------------------
 Rotational constants (GHZ):           3.3111610           1.6396437           1.3898858
 Leave Link  202 at Wed Jan  8 00:33:15 2020, MaxMem=  4294967296 cpu:               1.2 elap:               0.1
 (Enter /home/cwagen/sw/g16/g16/l301.exe)
 Standard basis: 6-31+G(d) (6D, 7F)
 Ernie: Thresh=  0.10000D-02 Tol=  0.10000D-05 Strict=F.
 There are   124 symmetry adapted cartesian basis functions of A   symmetry.
 There are   124 symmetry adapted basis functions of A   symmetry.
   124 basis functions,   228 primitive gaussians,   124 cartesian basis functions
    27 alpha electrons       27 beta electrons
       nuclear repulsion energy       236.2335369501 Hartrees.
 IExCor=  402 DFT=T Ex+Corr=B3LYP ExCW=0 ScaHFX=  0.200000
 ScaDFX=  0.800000  0.720000  1.000000  0.810000 ScalE2=  1.000000  1.000000
 IRadAn=      5 IRanWt=     -1 IRanGd=            0 ICorTp=0 IEmpDi=  4
 NAtoms=    9 NActive=    9 NUniq=    9 SFac= 1.00D+00 NAtFMM=   60 NAOKFM=F Big=F
 Integral buffers will be    131072 words long.
 Raffenetti 2 integral format.
 Two-electron integral symmetry is turned on.
 ------------------------------------------------------------------------------
 Polarizable Continuum Model (PCM)
 =================================
 Model                : PCM.
 Atomic radii         : SMD-Coulomb.
 Polarization charges : Total charges.
 Charge compensation  : None.
 Solution method      : On-the-fly selection.
 Cavity type          : VdW (van der Waals Surface) (Alpha=1.000).
 Cavity algorithm     : GePol (No added spheres)
                        Default sphere list used, NSphG=    9.
                        Lebedev-Laikov grids with approx.  5.0 points / Ang**2.
                        Smoothing algorithm: York/Karplus (Gamma=1.0000).
                        Polarization charges: spherical gaussians, with
                                              point-specific exponents (IZeta= 3).
                        Self-potential: point-specific (ISelfS= 7).
                        Self-field    : sphere-specific E.n sum rule (ISelfD= 2).
 1st derivatives      : Analytical E(r).r(x)/FMM algorithm (CHGder, D1EAlg=3).
                        Cavity 1st derivative terms included.
 Solvent              : TetraHydroFuran, Eps=   7.425700 Eps(inf)=   1.974025
 ------------------------------------------------------------------------------
 Spheres list:
 ISph  on   Nord     Re0    Alpha      Xe            Ye            Ze
    1   C      1    1.8500  1.000     -0.341686      0.638051      0.261286
    2   O      2    2.2940  1.000     -0.350784      0.972908      1.381116
    3   C      3    1.8500  1.000     -0.312537      1.452467     -0.997438
    4   H      4    1.2000  1.000     -0.097802      0.849932     -1.878639
    5   H      5    1.2000  1.000     -1.305101      1.909911     -1.093637
    6   H      6    1.2000  1.000      0.444394      2.232953     -0.877546
    7  Cl      7    2.3800  1.000     -1.488165     -1.079275     -0.121307
    8   C      8    1.8500  1.000      1.931895     -0.348403     -0.066948
    9   N      9    1.8900  1.000      3.056793     -0.697296     -0.045469
 ------------------------------------------------------------------------------
 GePol: Number of generator spheres                  =       9
 GePol: Total number of spheres                      =       9
 GePol: Number of exposed spheres                    =       9 (100.00%)
 GePol: Number of points                             =    1221
 GePol: Average weight of points                     =       0.14
 GePol: Minimum weight of points                     =   0.15D-05
 GePol: Maximum weight of points                     =    0.18138
 GePol: Number of points with low weight             =      39
 GePol: Fraction of low-weight points (<1% of avg)   =       3.19%
 GePol: Cavity surface area                          =    164.915 Ang**2
 GePol: Cavity volume                                =    149.679 Ang**3
 ------------------------------------------------------------------------------
 Atomic radii for non-electrostatic terms: SMD-CDS.
 ------------------------------------------------------------------------------
 PCM non-electrostatic energy =         0.0007356857 Hartrees.
 Nuclear repulsion after PCM non-electrostatic terms =      236.2342726357 Hartrees.
 Leave Link  301 at Wed Jan  8 00:33:15 2020, MaxMem=  4294967296 cpu:               2.1 elap:               0.2
 (Enter /home/cwagen/sw/g16/g16/l302.exe)
 NPDir=0 NMtPBC=     1 NCelOv=     1 NCel=       1 NClECP=     1 NCelD=      1
         NCelK=      1 NCelE2=     1 NClLst=     1 CellRange=     0.0.
 One-electron integrals computed using PRISM.
 One-electron integral symmetry used in STVInt
 NBasis=   124 RedAO= T EigKep=  8.38D-05  NBF=   124
 NBsUse=   124 1.00D-06 EigRej= -1.00D+00 NBFU=   124
 Precomputing XC quadrature grid using
 IXCGrd= 4 IRadAn=           5 IRanWt=          -1 IRanGd=           0 AccXCQ= 0.00D+00.
 Generated NRdTot=       0 NPtTot=           0 NUsed=           0 NTot=          32
 NSgBfM=   124   124   124   124   124 MxSgAt=     9 MxSgA2=     9.
[...]
 RMS Force = .13606D-04 SwitMx=.10000D-02 MixMth= 2
 Mixed Optimization -- En-DIIS/RFO-DIIS
 Swapping is turned off.
 Update second derivatives using D2CorX and points    2    3    4    5    6
                                                      7    8    9   10   11
                                                     12   13   14   15
 DE= -6.37D-07 DEPred=-7.61D-08 R= 8.36D+00
 Trust test= 8.36D+00 RLast= 2.65D-03 DXMaxT set to 3.23D-01
 ITU=  0  1  1  1  1 -1  0  1  1  1  1  1  1  1  0
     Eigenvalues ---    0.00259   0.00357   0.01213   0.03816   0.05524
     Eigenvalues ---    0.06058   0.06163   0.15935   0.16151   0.17921
     Eigenvalues ---    0.19898   0.22170   0.25980   0.31897   0.33989
     Eigenvalues ---    0.34050   0.34922   0.96651   1.219531000.00000
     Eigenvalues --- 1000.000001000.000001000.000001000.000001000.00000
     Eigenvalues --- 1000.000001000.000001000.000001000.000001000.00000
     Eigenvalues --- 1000.00000
 En-DIIS/RFO-DIIS/Sim-DIIS IScMMF=       -3 using points:    15   14   13   12   11   10    9    8    7    6
 RFO step:  Lambda=-1.90637213D-07.
 NNeg= 0 NGDIIS=10 SimSw=  2.50D-01 Rises=F DC= -6.37D-07 SmlDif=  1.00D-05
 NRisDI= 0 DoIntr=F SqrtH=F CThrHd= 10.0 CDAdj=  3.0
 RMS Error=  0.1913884966D-03 NUsed=10 OKEnD=F EnDIS=F
 InvSVX:  RCond= 2.87D-11 Info=           0 Equed=N FErr=  5.75D-09 BErr=  6.05D-17
 DIIS inversion failure, remove point  10.
 InvSVX:  RCond= 3.37D-11 Info=           0 Equed=N FErr=  3.02D-09 BErr=  5.86D-17
 DIIS inversion failure, remove point   9.
 InvSVX:  RCond= 8.74D-11 Info=           0 Equed=N FErr=  7.35D-10 BErr=  6.77D-17
 DIIS inversion failure, remove point   8.
 InvSVX:  RCond= 4.54D-10 Info=           0 Equed=N FErr=  1.69D-10 BErr=  1.07D-16
 DIIS inversion failure, remove point   7.
 InvSVX:  RCond= 2.09D-09 Info=           0 Equed=N FErr=  2.28D-11 BErr=  5.89D-17
 DIIS inversion failure, remove point   6.
 InvSVX:  RCond= 2.56D-09 Info=           0 Equed=N FErr=  1.91D-11 BErr=  1.13D-16
 DIIS inversion failure, remove point   5.
 InvSVX:  RCond= 6.25D-08 Info=           0 Equed=N FErr=  4.74D-14 BErr=  3.03D-17
 DIIS inversion failure, remove point   4.
 InvSVX:  RCond= 1.65D-07 Info=           0 Equed=N FErr=  1.57D-14 BErr=  6.71D-17
 RFO-DIIS uses    3 points instead of   10
 DidBck=F Rises=F RFO-DIIS coefs:    1.67498   -0.84913    0.17415    0.00000    0.00000
                  RFO-DIIS coefs:    0.00000    0.00000    0.00000    0.00000    0.00000
 Iteration  1 RMS(Cart)=  0.00031616 RMS(Int)=  0.00000009
 Iteration  2 RMS(Cart)=  0.00000009 RMS(Int)=  0.00000001
 Iteration  1 RMS(Cart)=  0.00000000 RMS(Int)=  0.00000000
 ITry= 1 IFail=0 DXMaxC= 9.24D-04 DCOld= 1.00D+10 DXMaxT= 3.23D-01 DXLimC= 3.00D+00 Rises=F
 Variable       Old X    -DE/DX   Delta X   Delta X   Delta X     New X
                                 (Linear)    (Quad)   (Total)
    R1        2.22279   0.00000   0.00001   0.00000   0.00001   2.22279
    R2        2.81732  -0.00002   0.00003  -0.00005  -0.00001   2.81730
    R3        3.96842  -0.01199   0.00000   0.00000   0.00000   3.96842
    R4        4.72432   0.00221   0.00000   0.00000   0.00000   4.72432
    R5        2.05436   0.00000   0.00000   0.00000  -0.00001   2.05436
    R6        2.07575   0.00000   0.00001   0.00000   0.00001   2.07576
    R7        2.06747  -0.00001   0.00000   0.00000  -0.00001   2.06746
    R8        2.22723   0.00000   0.00000   0.00000   0.00000   2.22723
    A1        2.33226  -0.00001  -0.00008  -0.00001  -0.00009   2.33216
    A2        1.99872  -0.00001   0.00002  -0.00006  -0.00005   1.99868
    A3        1.79778   0.00003   0.00038   0.00005   0.00043   1.79820
    A4        1.86466   0.00002   0.00002   0.00005   0.00007   1.86473
    A5        1.61457  -0.00002  -0.00014   0.00000  -0.00013   1.61443
    A6        1.67110  -0.00001  -0.00022   0.00000  -0.00022   1.67088
    A7        1.94808   0.00002   0.00002   0.00009   0.00010   1.94818
    A8        1.86614  -0.00004  -0.00004  -0.00014  -0.00018   1.86596
    A9        1.88837   0.00000   0.00001   0.00000   0.00001   1.88838
   A10        1.91389   0.00001   0.00001   0.00009   0.00009   1.91398
   A11        1.93194  -0.00001   0.00001  -0.00006  -0.00005   1.93189
   A12        1.91402   0.00001   0.00000   0.00002   0.00002   1.91404
   A13        3.20314  -0.00001  -0.00075   0.00006  -0.00069   3.20245
   A14        2.97949   0.00000   0.00013   0.00001   0.00014   2.97963
    D1        2.83263   0.00000   0.00029   0.00002   0.00031   2.83294
    D2       -1.35756   0.00001   0.00029   0.00009   0.00037  -1.35719
    D3        0.70284   0.00000   0.00027   0.00004   0.00030   0.70314
    D4       -0.78793   0.00000   0.00019  -0.00005   0.00014  -0.78780
    D5        1.30506   0.00001   0.00018   0.00002   0.00020   1.30526
    D6       -2.91773   0.00000   0.00016  -0.00003   0.00013  -2.91760
    D7        0.90111  -0.00001  -0.00008  -0.00005  -0.00013   0.90099
    D8        2.99411  -0.00001  -0.00008   0.00002  -0.00006   2.99404
    D9       -1.22868  -0.00001  -0.00010  -0.00003  -0.00013  -1.22881
         Item               Value     Threshold  Converged?
 Maximum Force            0.000040     0.000450     YES
 RMS     Force            0.000014     0.000300     YES
 Maximum Displacement     0.000924     0.001800     YES
 RMS     Displacement     0.000316     0.001200     YES
 Predicted change in Energy=-2.076293D-08
 Optimization completed.
    -- Stationary point found.
                           ----------------------------
                           !   Optimized Parameters   !
                           ! (Angstroms and Degrees)  !
 --------------------------                            --------------------------
 ! Name  Definition              Value          Derivative Info.                !
 --------------------------------------------------------------------------------
 ! R1    R(1,2)                  1.1762         -DE/DX =    0.0                 !
 ! R2    R(1,3)                  1.4909         -DE/DX =    0.0                 !
 ! R3    R(1,7)                  2.1            -DE/DX =   -0.012               !
 ! R4    R(1,8)                  2.5            -DE/DX =    0.0022              !
 ! R5    R(3,4)                  1.0871         -DE/DX =    0.0                 !
 ! R6    R(3,5)                  1.0984         -DE/DX =    0.0                 !
 ! R7    R(3,6)                  1.0941         -DE/DX =    0.0                 !
 ! R8    R(8,9)                  1.1786         -DE/DX =    0.0                 !
 ! A1    A(2,1,3)              133.6284         -DE/DX =    0.0                 !
 ! A2    A(2,1,7)              114.5184         -DE/DX =    0.0                 !
 ! A3    A(2,1,8)              103.0052         -DE/DX =    0.0                 !
 ! A4    A(3,1,7)              106.8371         -DE/DX =    0.0                 !
 ! A5    A(3,1,8)               92.5079         -DE/DX =    0.0                 !
 ! A6    A(7,1,8)               95.747          -DE/DX =    0.0                 !
 ! A7    A(1,3,4)              111.6167         -DE/DX =    0.0                 !
 ! A8    A(1,3,5)              106.9221         -DE/DX =    0.0                 !
 ! A9    A(1,3,6)              108.1959         -DE/DX =    0.0                 !
 ! A10   A(4,3,5)              109.6576         -DE/DX =    0.0                 !
 ! A11   A(4,3,6)              110.692          -DE/DX =    0.0                 !
 ! A12   A(5,3,6)              109.6651         -DE/DX =    0.0                 !
 ! A13   L(1,8,9,6,-1)         183.5266         -DE/DX =    0.0                 !
 ! A14   L(1,8,9,6,-2)         170.7122         -DE/DX =    0.0                 !
 ! D1    D(2,1,3,4)            162.2978         -DE/DX =    0.0                 !
 ! D2    D(2,1,3,5)            -77.7825         -DE/DX =    0.0                 !
 ! D3    D(2,1,3,6)             40.2697         -DE/DX =    0.0                 !
 ! D4    D(7,1,3,4)            -45.1453         -DE/DX =    0.0                 !
 ! D5    D(7,1,3,5)             74.7745         -DE/DX =    0.0                 !
 ! D6    D(7,1,3,6)           -167.1734         -DE/DX =    0.0                 !
 ! D7    D(8,1,3,4)             51.63           -DE/DX =    0.0                 !
 ! D8    D(8,1,3,5)            171.5497         -DE/DX =    0.0                 !
 ! D9    D(8,1,3,6)            -70.3981         -DE/DX =    0.0                 !
 --------------------------------------------------------------------------------
 Lowest energy point so far.  Saving SCF results.
 Largest change from initial coordinates is atom    4       0.165 Angstoms.
 GradGradGradGradGradGradGradGradGradGradGradGradGradGradGradGradGradGrad

 Leave Link  103 at Wed Jan  8 00:42:21 2020, MaxMem=  4294967296 cpu:              38.3 elap:               2.8
 (Enter /home/cwagen/sw/g16/g16/l202.exe)
                          Input orientation:                          
 ---------------------------------------------------------------------
 Center     Atomic      Atomic             Coordinates (Angstroms)
 Number     Number       Type             X           Y           Z
 ---------------------------------------------------------------------
      1          6           0       -0.286974   -0.445083   -0.325374
      2          8           0       -0.234611   -0.545817   -1.496130
      3          6           0       -0.294787   -1.431333    0.792622
      4          1           0       -0.044473   -0.963255    1.741348
      5          1           0       -1.309321   -1.849358    0.843123
      6          1           0        0.418970   -2.225102    0.552958
      7         17           0       -1.309422    1.257154    0.357991
      8          6           0        1.996888    0.378402    0.271155
      9          7           0        3.089249    0.798146    0.411366
 ---------------------------------------------------------------------
                    Distance matrix (angstroms):
                    1          2          3          4          5
     1  C    0.000000
     2  O    1.176247   0.000000
     3  C    1.490860   2.454820   0.000000
     4  H    2.144447   3.269812   1.087123   0.000000
     5  H    2.093458   2.885538   1.098442   1.786568   0.000000
     6  H    2.106725   2.728722   1.094056   1.794243   1.792308
     7  Cl   2.100000   2.800659   2.906260   2.905855   3.144165
     8  C    2.500000   2.992836   2.966284   2.851082   4.027540
     9  N    3.672505   4.061136   4.070336   3.832963   5.152001
                    6          7          8          9
     6  H    0.000000
     7  Cl   3.892488   0.000000
     8  C    3.057363   3.422196   0.000000
     9  N    4.036145   4.422877   1.178600   0.000000
 Stoichiometry    C3H3ClNO(1-)
 Framework group  C1[X(C3H3ClNO)]
 Deg. of freedom    21
 Full point group                 C1      NOp   1
 RotChk:  IX=0 Diff= 1.95D-16
 Largest Abelian subgroup         C1      NOp   1
 Largest concise Abelian subgroup C1      NOp   1
                         Standard orientation:                         
 ---------------------------------------------------------------------
 Center     Atomic      Atomic             Coordinates (Angstroms)
 Number     Number       Type             X           Y           Z
 ---------------------------------------------------------------------
      1          6           0       -0.394557    0.680853    0.253410
      2          8           0       -0.399704    1.027473    1.377415
      3          6           0       -0.333756    1.407602   -1.046899
      4          1           0       -0.042139    0.748539   -1.860797
      5          1           0       -1.339088    1.807218   -1.237138
      6          1           0        0.377108    2.232870   -0.944116
      7         17           0       -1.402984   -1.125761   -0.106062
      8          6           0        1.905705   -0.254468   -0.036367
      9          7           0        2.998304   -0.696344   -0.027869
 ---------------------------------------------------------------------
 Rotational constants (GHZ):           3.2177513           1.7078962           1.4303753
 Leave Link  202 at Wed Jan  8 00:42:21 2020, MaxMem=  4294967296 cpu:               2.8 elap:               0.2
 (Enter /home/cwagen/sw/g16/g16/l601.exe)
 Copying SCF densities to generalized density rwf, IOpCl= 0 IROHF=0.

 **********************************************************************

            Population analysis using the SCF density.

 **********************************************************************

 Orbital symmetries:
       Occupied  (A) (A) (A) (A) (A) (A) (A) (A) (A) (A) (A) (A)
                 (A) (A) (A) (A) (A) (A) (A) (A) (A) (A) (A) (A)
                 (A) (A) (A)
       Virtual   (A) (A) (A) (A) (A) (A) (A) (A) (A) (A) (A) (A)
                 (A) (A) (A) (A) (A) (A) (A) (A) (A) (A) (A) (A)
                 (A) (A) (A) (A) (A) (A) (A) (A) (A) (A) (A) (A)
                 (A) (A) (A) (A) (A) (A) (A) (A) (A) (A) (A) (A)
                 (A) (A) (A) (A) (A) (A) (A) (A) (A) (A) (A) (A)
                 (A) (A) (A) (A) (A) (A) (A) (A) (A) (A) (A) (A)
                 (A) (A) (A) (A) (A) (A) (A) (A) (A) (A) (A) (A)
                 (A) (A) (A) (A) (A) (A) (A) (A) (A) (A) (A) (A)
                 (A)
 The electronic state is 1-A.
 Alpha  occ. eigenvalues -- -101.48905 -19.18539 -14.26715 -10.33766 -10.19599
 Alpha  occ. eigenvalues --  -10.13377  -9.40420  -7.16599  -7.15976  -7.15946
 Alpha  occ. eigenvalues --   -1.09301  -0.82375  -0.77426  -0.73487  -0.53658
 Alpha  occ. eigenvalues --   -0.46163  -0.45937  -0.45780  -0.38644  -0.38190
 Alpha  occ. eigenvalues --   -0.35433  -0.28112  -0.27782  -0.27269  -0.26911
 Alpha  occ. eigenvalues --   -0.26755  -0.23784
 Alpha virt. eigenvalues --   -0.02975   0.00162   0.03144   0.04989   0.05554
 Alpha virt. eigenvalues --    0.05874   0.08170   0.08699   0.08997   0.09739
 Alpha virt. eigenvalues --    0.10482   0.11094   0.11208   0.13002   0.13581
 Alpha virt. eigenvalues --    0.13989   0.14429   0.16733   0.18307   0.21206
 Alpha virt. eigenvalues --    0.23003   0.24030   0.25156   0.25511   0.26404
 Alpha virt. eigenvalues --    0.27973   0.28430   0.28883   0.33254   0.34797
 Alpha virt. eigenvalues --    0.37023   0.40653   0.46503   0.56086   0.59705
 Alpha virt. eigenvalues --    0.62636   0.65335   0.66482   0.70158   0.71909
 Alpha virt. eigenvalues --    0.73553   0.74121   0.77145   0.79246   0.82640
 Alpha virt. eigenvalues --    0.85101   0.88623   0.92967   0.94231   0.95613
 Alpha virt. eigenvalues --    0.96104   0.99587   1.02073   1.03290   1.03851
 Alpha virt. eigenvalues --    1.05369   1.07186   1.15183   1.21524   1.27202
 Alpha virt. eigenvalues --    1.27965   1.32406   1.36271   1.37326   1.45590
 Alpha virt. eigenvalues --    1.54964   1.59097   1.60526   1.61248   1.61505
 Alpha virt. eigenvalues --    1.63544   1.70772   1.78704   1.80149   1.83518
 Alpha virt. eigenvalues --    1.88230   2.02870   2.02917   2.04163   2.16053
 Alpha virt. eigenvalues --    2.23927   2.27630   2.42357   2.52598   2.55767
 Alpha virt. eigenvalues --    2.65830   2.66309   2.68160   2.91402   3.09469
 Alpha virt. eigenvalues --    3.15470   4.03508   4.22066   4.30817   4.33343
 Alpha virt. eigenvalues --    4.38947   4.49222
          Condensed to atoms (all electrons):
               1          2          3          4          5          6
     1  C    6.034926   0.455737  -0.609986  -0.075108   0.022156  -0.093967
     2  O    0.455737   7.970335  -0.032104   0.006805  -0.007368   0.002923
     3  C   -0.609986  -0.032104   6.270401   0.408008   0.312302   0.413130
     4  H   -0.075108   0.006805   0.408008   0.429368  -0.023819  -0.020049
     5  H    0.022156  -0.007368   0.312302  -0.023819   0.456644  -0.022929
     6  H   -0.093967   0.002923   0.413130  -0.020049  -0.022929   0.450978
     7  Cl  -0.271536  -0.063897   0.139743   0.006660  -0.012272   0.010654
     8  C    0.484729  -0.123706  -0.387994  -0.009120   0.011709  -0.006154
     9  N   -0.028667   0.002527   0.013098  -0.000064  -0.000118  -0.000349
               7          8          9
     1  C   -0.271536   0.484729  -0.028667
     2  O   -0.063897  -0.123706   0.002527
     3  C    0.139743  -0.387994   0.013098
     4  H    0.006660  -0.009120  -0.000064
     5  H   -0.012272   0.011709  -0.000118
     6  H    0.010654  -0.006154  -0.000349
     7  Cl  17.606487  -0.114693  -0.002280
     8  C   -0.114693   5.699925   0.626667
     9  N   -0.002280   0.626667   7.059597
 Mulliken charges:
               1
     1  C    0.081716
     2  O   -0.211253
     3  C   -0.526598
     4  H    0.277321
     5  H    0.263695
     6  H    0.265763
     7  Cl  -0.298867
     8  C   -0.181365
     9  N   -0.670412
 Sum of Mulliken charges =  -1.00000
 Mulliken charges with hydrogens summed into heavy atoms:
               1
     1  C    0.081716
     2  O   -0.211253
     3  C    0.280181
     7  Cl  -0.298867
     8  C   -0.181365
     9  N   -0.670412
 Electronic spatial extent (au):  <R**2>=            875.1507
 Charge=             -1.0000 electrons
 Dipole moment (field-independent basis, Debye):
    X=             -7.8409    Y=              5.7771    Z=             -2.5365  Tot=             10.0642
 Quadrupole moment (field-independent basis, Debye-Ang):
   XX=            -80.4020   YY=            -48.0131   ZZ=            -47.3110
   XY=              3.1668   XZ=              1.2362   YZ=             -4.0237
 Traceless Quadrupole moment (field-independent basis, Debye-Ang):
   XX=            -21.8267   YY=             10.5623   ZZ=             11.2644
   XY=              3.1668   XZ=              1.2362   YZ=             -4.0237
 Octapole moment (field-independent basis, Debye-Ang**2):
  XXX=           -112.0537  YYY=             16.3660  ZZZ=             -3.5050  XYY=            -10.7362
  XXY=             31.0875  XXZ=              1.6798  XZZ=             -6.3400  YZZ=              1.6850
  YYZ=             -3.8719  XYZ=              1.4760
 Hexadecapole moment (field-independent basis, Debye-Ang**3):
 XXXX=          -1091.0381 YYYY=           -326.8805 ZZZZ=           -183.6070 XXXY=             71.1483
 XXXZ=              3.4197 YYYX=             14.0446 YYYZ=             -4.8310 ZZZX=              1.4029
 ZZZY=             -3.4365 XXYY=           -202.2476 XXZZ=           -161.8923 YYZZ=            -88.4647
 XXYZ=             -1.7577 YYXZ=              2.2921 ZZXY=              2.8864
 N-N= 2.371280237203D+02 E-N=-2.152018784306D+03  KE= 7.025366051365D+02
 No NMR shielding tensors so no spin-rotation constants.
 Leave Link  601 at Wed Jan  8 00:42:22 2020, MaxMem=  4294967296 cpu:              14.2 elap:               1.1
 (Enter /home/cwagen/sw/g16/g16/l9999.exe)
 1\1\GINC-NODE042\FOpt\RB3LYP\6-31+G(d)\C3H3Cl1N1O1(1-)\CWAGEN\08-Jan-2
 020\0\\#p opt=modredundant b3lyp/6-31+g(d) scrf=(smd, solvent=tetrahyd
 rofuran)\\title\\-1,1\C,-0.2869741666,-0.4450832881,-0.325374454\O,-0.
 2346112099,-0.5458172698,-1.4961301118\C,-0.2947872657,-1.4313325432,0
 .7926217521\H,-0.0444733552,-0.9632553485,1.7413483088\H,-1.30932076,-
 1.8493584019,0.8431234276\H,0.4189701743,-2.2251019934,0.5529575701\Cl
 ,-1.309421516,1.2571543997,0.3579909535\C,1.9968877803,0.3784015933,0.
 271154908\N,3.0892491987,0.7981459118,0.4113661157\\Version=AS64L-G16R
 evA.03\State=1-A\HF=-706.4096034\RMSD=2.161e-09\RMSF=3.345e-03\Dipole=
 -3.1363478,-2.3932593,0.3372327\Quadrupole=-16.0746284,9.1635205,6.911
 1079,-1.6405487,-2.5971071,-2.8993137\PG=C01 [X(C3H3Cl1N1O1)]\\@


 GOD DOES NOT PLAY WITH DICE.
               -- A. EINSTEIN
 Job cpu time:       0 days  2 hours 25 minutes 24.7 seconds.
 Elapsed time:       0 days  0 hours 10 minutes 37.5 seconds.
 File lengths (MBytes):  RWF=     37 Int=      0 D2E=      0 Chk=      3 Scr=      1
 Normal termination of Gaussian 16 at Wed Jan  8 00:42:23 2020.
