 Entering Gaussian System, Link 0=g16
 Input=scan_230_150.gjf
 Output=scan_230_150.out
 Initial command:
 /home/cwagen/sw/g16/g16/l1.exe "/scratch/users/cwagen/cwagen_scan_230_150/Gau-36837.inp" -scrdir="/scratch/users/cwagen/cwagen_scan_230_150/"
 Entering Link 1 = /home/cwagen/sw/g16/g16/l1.exe PID=     36838.
  
 Copyright (c) 1988,1990,1992,1993,1995,1998,2003,2009,2016,
            Gaussian, Inc.  All Rights Reserved.
  
 This is part of the Gaussian(R) 16 program.  It is based on
 the Gaussian(R) 09 system (copyright 2009, Gaussian, Inc.),
 the Gaussian(R) 03 system (copyright 2003, Gaussian, Inc.),
 the Gaussian(R) 98 system (copyright 1998, Gaussian, Inc.),
 the Gaussian(R) 94 system (copyright 1995, Gaussian, Inc.),
 the Gaussian 92(TM) system (copyright 1992, Gaussian, Inc.),
 the Gaussian 90(TM) system (copyright 1990, Gaussian, Inc.),
 the Gaussian 88(TM) system (copyright 1988, Gaussian, Inc.),
 the Gaussian 86(TM) system (copyright 1986, Carnegie Mellon
 University), and the Gaussian 82(TM) system (copyright 1983,
 Carnegie Mellon University). Gaussian is a federally registered
 trademark of Gaussian, Inc.
  
 This software contains proprietary and confidential information,
 including trade secrets, belonging to Gaussian, Inc.
  
 This software is provided under written license and may be
 used, copied, transmitted, or stored only in accord with that
 written license.
  
 The following legend is applicable only to US Government
 contracts under FAR:
  
                    RESTRICTED RIGHTS LEGEND
  
 Use, reproduction and disclosure by the US Government is
 subject to restrictions as set forth in subparagraphs (a)
 and (c) of the Commercial Computer Software - Restricted
 Rights clause in FAR 52.227-19.
  
 Gaussian, Inc.
 340 Quinnipiac St., Bldg. 40, Wallingford CT 06492
  
  
 ---------------------------------------------------------------
 Warning -- This program may not be used in any manner that
 competes with the business of Gaussian, Inc. or will provide
 assistance to any competitor of Gaussian, Inc.  The licensee
 of this program is prohibited from giving any competitor of
 Gaussian, Inc. access to this program.  By using this program,
 the user acknowledges that Gaussian, Inc. is engaged in the
 business of creating and licensing software in the field of
 computational chemistry and represents and warrants to the
 licensee that it is not a competitor of Gaussian, Inc. and that
 it will not use this program in any manner prohibited above.
 ---------------------------------------------------------------
  

 Cite this work as:
 Gaussian 16, Revision A.03,
 M. J. Frisch, G. W. Trucks, H. B. Schlegel, G. E. Scuseria, 
 M. A. Robb, J. R. Cheeseman, G. Scalmani, V. Barone, 
 G. A. Petersson, H. Nakatsuji, X. Li, M. Caricato, A. V. Marenich, 
 J. Bloino, B. G. Janesko, R. Gomperts, B. Mennucci, H. P. Hratchian, 
 J. V. Ortiz, A. F. Izmaylov, J. L. Sonnenberg, D. Williams-Young, 
 F. Ding, F. Lipparini, F. Egidi, J. Goings, B. Peng, A. Petrone, 
 T. Henderson, D. Ranasinghe, V. G. Zakrzewski, J. Gao, N. Rega, 
 G. Zheng, W. Liang, M. Hada, M. Ehara, K. Toyota, R. Fukuda, 
 J. Hasegawa, M. Ishida, T. Nakajima, Y. Honda, O. Kitao, H. Nakai, 
 T. Vreven, K. Throssell, J. A. Montgomery, Jr., J. E. Peralta, 
 F. Ogliaro, M. J. Bearpark, J. J. Heyd, E. N. Brothers, K. N. Kudin, 
 V. N. Staroverov, T. A. Keith, R. Kobayashi, J. Normand, 
 K. Raghavachari, A. P. Rendell, J. C. Burant, S. S. Iyengar, 
 J. Tomasi, M. Cossi, J. M. Millam, M. Klene, C. Adamo, R. Cammi, 
 J. W. Ochterski, R. L. Martin, K. Morokuma, O. Farkas, 
 J. B. Foresman, and D. J. Fox, Gaussian, Inc., Wallingford CT, 2016.
 
 ******************************************
 Gaussian 16:  AS64L-G16RevA.03 25-Dec-2016
                 8-Jan-2020 
 ******************************************
 %nprocshared=16
 Will use up to   16 processors via shared memory.
 %mem=32GB
 ----------------------------------------------------------------------
 #p opt=modredundant b3lyp/6-31+g(d) scrf=(smd, solvent=tetrahydrofuran
 )
 ----------------------------------------------------------------------
 1/18=120,19=15,26=3,38=1/1,3;
 2/9=110,12=2,17=6,18=5,40=1/2;
 3/5=1,6=6,7=11,11=2,25=1,30=1,70=32201,71=1,72=20,74=-5/1,2,3;
 4//1;
 5/5=2,38=5,53=20/2;
 6/7=2,8=2,9=2,10=2,28=1/1;
 7//1,2,3,16;
 1/18=20,19=15,26=3/3(2);
 2/9=110/2;
 99//99;
 2/9=110/2;
 3/5=1,6=6,7=11,11=2,25=1,30=1,70=32205,71=1,72=20,74=-5/1,2,3;
 4/5=5,16=3,69=1/1;
 5/5=2,38=5,53=20/2;
 7//1,2,3,16;
 1/18=20,19=15,26=3/3(-5);
 2/9=110/2;
 6/7=2,8=2,9=2,10=2,19=2,28=1/1;
 99/9=1/99;
 Leave Link    1 at Wed Jan  8 00:51:45 2020, MaxMem=  4294967296 cpu:               2.2 elap:               0.2
 (Enter /home/cwagen/sw/g16/g16/l101.exe)
 -----
 title
 -----
 Symbolic Z-matrix:
 Charge = -1 Multiplicity = 1
 6                    -0.19426  -0.292    -0.21291 
 8                    -0.25532  -0.66526  -1.45426 
 6                    -0.33095  -1.45422   0.81632 
 1                    -0.18039  -1.13044   1.85373 
 1                    -1.34067  -1.87301   0.71427 
 1                     0.39707  -2.23395   0.57058 
 17                   -1.57136   1.45497   0.37164 
 6                     1.19642   0.19498   0.0679 
 7                     2.33099   0.47528   0.0982 
 
 Add virtual bond connecting atoms Cl7        and C1         Dist= 4.35D+00.
 The following ModRedundant input section has been read:
 B       1       7 F                                                           
 B       1       8 F                                                           
 
 ITRead=  0  0  0  0  0  0  0  0  0
 MicOpt= -1 -1 -1 -1 -1 -1 -1 -1 -1
 NAtoms=      9 NQM=        9 NQMF=       0 NMMI=      0 NMMIF=      0
                NMic=       0 NMicF=      0.
                    Isotopes and Nuclear Properties:
 (Nuclear quadrupole moments (NQMom) in fm**2, nuclear magnetic moments (NMagM)
  in nuclear magnetons)

  Atom         1           2           3           4           5           6           7           8           9
 IAtWgt=          12          16          12           1           1           1          35          12          14
 AtmWgt=  12.0000000  15.9949146  12.0000000   1.0078250   1.0078250   1.0078250  34.9688527  12.0000000  14.0030740
 NucSpn=           0           0           0           1           1           1           3           0           2
 AtZEff=   0.0000000   0.0000000   0.0000000   0.0000000   0.0000000   0.0000000   0.0000000   0.0000000   0.0000000
 NQMom=    0.0000000   0.0000000   0.0000000   0.0000000   0.0000000   0.0000000  -8.1650000   0.0000000   2.0440000
 NMagM=    0.0000000   0.0000000   0.0000000   2.7928460   2.7928460   2.7928460   0.8218740   0.0000000   0.4037610
 AtZNuc=   6.0000000   8.0000000   6.0000000   1.0000000   1.0000000   1.0000000  17.0000000   6.0000000   7.0000000
 Leave Link  101 at Wed Jan  8 00:51:46 2020, MaxMem=  4294967296 cpu:               7.6 elap:               0.6
 (Enter /home/cwagen/sw/g16/g16/l103.exe)

 GradGradGradGradGradGradGradGradGradGradGradGradGradGradGradGradGradGrad
 Berny optimization.
 Initialization pass.
                           ----------------------------
                           !    Initial Parameters    !
                           ! (Angstroms and Degrees)  !
 --------------------------                            --------------------------
 ! Name  Definition              Value          Derivative Info.                !
 --------------------------------------------------------------------------------
 ! R1    R(1,2)                  1.2977         estimate D2E/DX2                !
 ! R2    R(1,3)                  1.5584         estimate D2E/DX2                !
 ! R3    R(1,7)                  2.3            Frozen                          !
 ! R4    R(1,8)                  1.5            Frozen                          !
 ! R5    R(3,4)                  1.0971         estimate D2E/DX2                !
 ! R6    R(3,5)                  1.0979         estimate D2E/DX2                !
 ! R7    R(3,6)                  1.0947         estimate D2E/DX2                !
 ! R8    R(8,9)                  1.1691         estimate D2E/DX2                !
 ! A1    A(2,1,3)              114.4006         estimate D2E/DX2                !
 ! A2    A(2,1,7)              115.6846         estimate D2E/DX2                !
 ! A3    A(2,1,8)              108.426          estimate D2E/DX2                !
 ! A4    A(3,1,7)              110.248          estimate D2E/DX2                !
 ! A5    A(3,1,8)              101.5248         estimate D2E/DX2                !
 ! A6    A(7,1,8)              105.1256         estimate D2E/DX2                !
 ! A7    A(1,3,4)              113.1005         estimate D2E/DX2                !
 ! A8    A(1,3,5)              107.683          estimate D2E/DX2                !
 ! A9    A(1,3,6)              108.9421         estimate D2E/DX2                !
 ! A10   A(4,3,5)              109.0662         estimate D2E/DX2                !
 ! A11   A(4,3,6)              109.3417         estimate D2E/DX2                !
 ! A12   A(5,3,6)              108.6067         estimate D2E/DX2                !
 ! A13   L(1,8,9,6,-1)         177.6482         estimate D2E/DX2                !
 ! A14   L(1,8,9,6,-2)         167.588          estimate D2E/DX2                !
 ! D1    D(2,1,3,4)            174.4714         estimate D2E/DX2                !
 ! D2    D(2,1,3,5)            -64.9488         estimate D2E/DX2                !
 ! D3    D(2,1,3,6)             52.6633         estimate D2E/DX2                !
 ! D4    D(7,1,3,4)            -53.1046         estimate D2E/DX2                !
 ! D5    D(7,1,3,5)             67.4752         estimate D2E/DX2                !
 ! D6    D(7,1,3,6)           -174.9127         estimate D2E/DX2                !
 ! D7    D(8,1,3,4)             57.938          estimate D2E/DX2                !
 ! D8    D(8,1,3,5)            178.5177         estimate D2E/DX2                !
 ! D9    D(8,1,3,6)            -63.8702         estimate D2E/DX2                !
 --------------------------------------------------------------------------------
 Trust Radius=3.00D-01 FncErr=1.00D-07 GrdErr=1.00D-06 EigMax=2.50D+02 EigMin=1.00D-04
 Number of steps in this run=     41 maximum allowed number of steps=    100.
 GradGradGradGradGradGradGradGradGradGradGradGradGradGradGradGradGradGrad

 Leave Link  103 at Wed Jan  8 00:51:46 2020, MaxMem=  4294967296 cpu:               0.9 elap:               0.2
 (Enter /home/cwagen/sw/g16/g16/l202.exe)
                          Input orientation:                          
 ---------------------------------------------------------------------
 Center     Atomic      Atomic             Coordinates (Angstroms)
 Number     Number       Type             X           Y           Z
 ---------------------------------------------------------------------
      1          6           0       -0.194263   -0.291999   -0.212908
      2          8           0       -0.255321   -0.665256   -1.454255
      3          6           0       -0.330945   -1.454221    0.816316
      4          1           0       -0.180394   -1.130438    1.853734
      5          1           0       -1.340665   -1.873010    0.714272
      6          1           0        0.397068   -2.233949    0.570583
      7         17           0       -1.571363    1.454970    0.371640
      8          6           0        1.196420    0.194981    0.067898
      9          7           0        2.330991    0.475279    0.098201
 ---------------------------------------------------------------------
                    Distance matrix (angstroms):
                    1          2          3          4          5
     1  C    0.000000
     2  O    1.297687   0.000000
     3  C    1.558443   2.404928   0.000000
     4  H    2.230287   3.341377   1.097150   0.000000
     5  H    2.161827   2.709087   1.097876   1.787740   0.000000
     6  H    2.175937   2.643176   1.094698   1.788205   1.780629
     7  Cl   2.300000   3.092121   3.193707   3.288728   3.353516
     8  C    1.500000   2.272556   2.369143   2.615638   3.336343
     9  N    2.657520   3.224895   3.365199   3.459375   4.401711
                    6          7          8          9
     6  H    0.000000
     7  Cl   4.185979   0.000000
     8  C    2.606023   3.056215   0.000000
     9  N    3.362011   4.032732   1.169075   0.000000
 Stoichiometry    C3H3ClNO(1-)
 Framework group  C1[X(C3H3ClNO)]
 Deg. of freedom    21
 Full point group                 C1      NOp   1
 Largest Abelian subgroup         C1      NOp   1
 Largest concise Abelian subgroup C1      NOp   1
                         Standard orientation:                         
 ---------------------------------------------------------------------
 Center     Atomic      Atomic             Coordinates (Angstroms)
 Number     Number       Type             X           Y           Z
 ---------------------------------------------------------------------
      1          6           0        0.233736    0.410275    0.211475
      2          8           0        0.502962    0.838401    1.406555
      3          6           0        0.561527    1.425038   -0.924990
      4          1           0        0.417095    1.007897   -1.929415
      5          1           0       -0.099480    2.292440   -0.798436
      6          1           0        1.598816    1.757544   -0.816204
      7         17           0       -1.873889   -0.461955   -0.083702
      8          6           0        1.171721   -0.714802   -0.111612
      9          7           0        2.016299   -1.519274   -0.190671
 ---------------------------------------------------------------------
 Rotational constants (GHZ):           3.5863039           1.9818093           1.6807499
 Leave Link  202 at Wed Jan  8 00:51:46 2020, MaxMem=  4294967296 cpu:               2.1 elap:               0.2
 (Enter /home/cwagen/sw/g16/g16/l301.exe)
 Standard basis: 6-31+G(d) (6D, 7F)
 Ernie: Thresh=  0.10000D-02 Tol=  0.10000D-05 Strict=F.
 There are   124 symmetry adapted cartesian basis functions of A   symmetry.
 There are   124 symmetry adapted basis functions of A   symmetry.
   124 basis functions,   228 primitive gaussians,   124 cartesian basis functions
    27 alpha electrons       27 beta electrons
       nuclear repulsion energy       246.6887356295 Hartrees.
 IExCor=  402 DFT=T Ex+Corr=B3LYP ExCW=0 ScaHFX=  0.200000
 ScaDFX=  0.800000  0.720000  1.000000  0.810000 ScalE2=  1.000000  1.000000
 IRadAn=      5 IRanWt=     -1 IRanGd=            0 ICorTp=0 IEmpDi=  4
 NAtoms=    9 NActive=    9 NUniq=    9 SFac= 1.00D+00 NAtFMM=   60 NAOKFM=F Big=F
 Integral buffers will be    131072 words long.
 Raffenetti 2 integral format.
 Two-electron integral symmetry is turned on.
 ------------------------------------------------------------------------------
 Polarizable Continuum Model (PCM)
 =================================
 Model                : PCM.
 Atomic radii         : SMD-Coulomb.
 Polarization charges : Total charges.
 Charge compensation  : None.
 Solution method      : On-the-fly selection.
 Cavity type          : VdW (van der Waals Surface) (Alpha=1.000).
 Cavity algorithm     : GePol (No added spheres)
                        Default sphere list used, NSphG=    9.
                        Lebedev-Laikov grids with approx.  5.0 points / Ang**2.
                        Smoothing algorithm: York/Karplus (Gamma=1.0000).
                        Polarization charges: spherical gaussians, with
                                              point-specific exponents (IZeta= 3).
                        Self-potential: point-specific (ISelfS= 7).
                        Self-field    : sphere-specific E.n sum rule (ISelfD= 2).
 1st derivatives      : Analytical E(r).r(x)/FMM algorithm (CHGder, D1EAlg=3).
                        Cavity 1st derivative terms included.
 Solvent              : TetraHydroFuran, Eps=   7.425700 Eps(inf)=   1.974025
 ------------------------------------------------------------------------------
 Spheres list:
 ISph  on   Nord     Re0    Alpha      Xe            Ye            Ze
    1   C      1    1.8500  1.000      0.233736      0.410275      0.211475
    2   O      2    2.2940  1.000      0.502962      0.838401      1.406555
    3   C      3    1.8500  1.000      0.561527      1.425038     -0.924990
    4   H      4    1.2000  1.000      0.417095      1.007897     -1.929415
    5   H      5    1.2000  1.000     -0.099480      2.292440     -0.798436
    6   H      6    1.2000  1.000      1.598816      1.757544     -0.816204
    7  Cl      7    2.3800  1.000     -1.873889     -0.461955     -0.083702
    8   C      8    1.8500  1.000      1.171721     -0.714802     -0.111612
    9   N      9    1.8900  1.000      2.016299     -1.519274     -0.190671
 ------------------------------------------------------------------------------
 GePol: Number of generator spheres                  =       9
 GePol: Total number of spheres                      =       9
 GePol: Number of exposed spheres                    =       9 (100.00%)
 GePol: Number of points                             =    1169
 GePol: Average weight of points                     =       0.14
 GePol: Minimum weight of points                     =   0.14D-07
 GePol: Maximum weight of points                     =    0.18138
 GePol: Number of points with low weight             =      38
 GePol: Fraction of low-weight points (<1% of avg)   =       3.25%
 GePol: Cavity surface area                          =    158.937 Ang**2
 GePol: Cavity volume                                =    145.836 Ang**3
 ------------------------------------------------------------------------------
 Atomic radii for non-electrostatic terms: SMD-CDS.
 ------------------------------------------------------------------------------
 PCM non-electrostatic energy =        -0.0011643926 Hartrees.
 Nuclear repulsion after PCM non-electrostatic terms =      246.6875712369 Hartrees.
 Leave Link  301 at Wed Jan  8 00:51:46 2020, MaxMem=  4294967296 cpu:               2.4 elap:               0.2
 (Enter /home/cwagen/sw/g16/g16/l302.exe)
 NPDir=0 NMtPBC=     1 NCelOv=     1 NCel=       1 NClECP=     1 NCelD=      1
         NCelK=      1 NCelE2=     1 NClLst=     1 CellRange=     0.0.
 One-electron integrals computed using PRISM.
 One-electron integral symmetry used in STVInt
 NBasis=   124 RedAO= T EigKep=  4.03D-05  NBF=   124
 NBsUse=   124 1.00D-06 EigRej= -1.00D+00 NBFU=   124
 Precomputing XC quadrature grid using
 IXCGrd= 4 IRadAn=           5 IRanWt=          -1 IRanGd=           0 AccXCQ= 0.00D+00.
 Generated NRdTot=       0 NPtTot=           0 NUsed=           0 NTot=          32
 NSgBfM=   124   124   124   124   124 MxSgAt=     9 MxSgA2=     9.
 Leave Link  302 at Wed Jan  8 00:51:48 2020, MaxMem=  4294967296 cpu:              24.8 elap:               1.9
 (Enter /home/cwagen/sw/g16/g16/l303.exe)
 DipDrv:  MaxL=1.
 Leave Link  303 at Wed Jan  8 00:51:48 2020, MaxMem=  4294967296 cpu:               2.3 elap:               0.3
 (Enter /home/cwagen/sw/g16/g16/l401.exe)
 ExpMin= 4.38D-02 ExpMax= 2.52D+04 ExpMxC= 3.78D+03 IAcc=3 IRadAn=         5 AccDes= 0.00D+00
 Harris functional with IExCor=  402 and IRadAn=       5 diagonalized for initial guess.
 HarFok:  IExCor=  402 AccDes= 0.00D+00 IRadAn=         5 IDoV= 1 UseB2=F ITyADJ=14
 ICtDFT=  3500011 ScaDFX=  1.000000  1.000000  1.000000  1.000000
 FoFCou: FMM=F IPFlag=           0 FMFlag=      100000 FMFlg1=           0
         NFxFlg=           0 DoJE=T BraDBF=F KetDBF=T FulRan=T
         wScrn=  0.000000 ICntrl=       500 IOpCl=  0 I1Cent=   200000004 NGrid=           0
         NMat0=    1 NMatS0=      1 NMatT0=    0 NMatD0=    1 NMtDS0=    0 NMtDT0=    0
 Petite list used in FoFCou.
 Harris En= -706.408367730841    
 JPrj=0 DoOrth=F DoCkMO=F.
 Leave Link  401 at Wed Jan  8 00:51:50 2020, MaxMem=  4294967296 cpu:              25.6 elap:               1.9
 (Enter /home/cwagen/sw/g16/g16/l502.exe)
 Keep R1 ints in memory in canonical form, NReq=45236517.
 FoFCou: FMM=F IPFlag=           0 FMFlag=           0 FMFlg1=           0
         NFxFlg=           0 DoJE=F BraDBF=F KetDBF=F FulRan=T
         wScrn=  0.000000 ICntrl=       600 IOpCl=  0 I1Cent=           0 NGrid=           0
         NMat0=    1 NMatS0=   7750 NMatT0=    0 NMatD0=    1 NMtDS0=    0 NMtDT0=    0
 Symmetry not used in FoFCou.
 Two-electron integral symmetry not used.
 Closed shell SCF:
 Using DIIS extrapolation, IDIIS=  1040.
 NGot=  4294967296 LenX=  4264898079 LenY=  4264882262
 Requested convergence on RMS density matrix=1.00D-08 within 128 cycles.
 Requested convergence on MAX density matrix=1.00D-06.
 Requested convergence on             energy=1.00D-06.
 No special actions if energy rises.

 Cycle   1  Pass 1  IDiag  1:
 Inv3:  Mode=1 IEnd=     4099683.
 Iteration    1 A*A^-1 deviation from unit magnitude is 3.55D-15 for   1161.
 Iteration    1 A*A^-1 deviation from orthogonality  is 1.75D-15 for   1169   1168.
 Iteration    1 A^-1*A deviation from unit magnitude is 3.89D-15 for   1167.
 Iteration    1 A^-1*A deviation from orthogonality  is 1.48D-15 for    338    335.
 E= -706.218587357514    
 DIIS: error= 2.61D-02 at cycle   1 NSaved=   1.
 NSaved= 1 IEnMin= 1 EnMin= -706.218587357514     IErMin= 1 ErrMin= 2.61D-02
 ErrMax= 2.61D-02  0.00D+00 EMaxC= 1.00D-01 BMatC= 2.20D-01 BMatP= 2.20D-01
 IDIUse=3 WtCom= 7.39D-01 WtEn= 2.61D-01
 Coeff-Com:  0.100D+01
 Coeff-En:   0.100D+01
 Coeff:      0.100D+01
 Gap=     0.267 Goal=   None    Shift=    0.000
 GapD=    0.267 DampG=1.000 DampE=0.500 DampFc=0.5000 IDamp=-1.
 Damping current iteration by 5.00D-01
 RMSDP=6.37D-02 MaxDP=3.42D+00              OVMax= 5.56D-01

 Cycle   2  Pass 1  IDiag  1:
 E= -706.168519670085     Delta-E=        0.050067687429 Rises=F Damp=T
 DIIS: error= 2.21D-02 at cycle   2 NSaved=   2.
 NSaved= 2 IEnMin= 1 EnMin= -706.218587357514     IErMin= 2 ErrMin= 2.21D-02
 ErrMax= 2.21D-02  0.00D+00 EMaxC= 1.00D-01 BMatC= 1.06D-01 BMatP= 2.20D-01
 IDIUse=3 WtCom= 7.79D-01 WtEn= 2.21D-01
 Coeff-Com:  0.390D+00 0.610D+00
 Coeff-En:   0.576D+00 0.424D+00
 Coeff:      0.431D+00 0.569D+00
 Gap=     0.155 Goal=   None    Shift=    0.000
 RMSDP=2.92D-02 MaxDP=1.63D+00 DE= 5.01D-02 OVMax= 2.83D-01

 Cycle   3  Pass 1  IDiag  1:
 E= -706.377496213395     Delta-E=       -0.208976543310 Rises=F Damp=F
 DIIS: error= 1.16D-02 at cycle   3 NSaved=   3.
 NSaved= 3 IEnMin= 3 EnMin= -706.377496213395     IErMin= 3 ErrMin= 1.16D-02
 ErrMax= 1.16D-02  0.00D+00 EMaxC= 1.00D-01 BMatC= 4.05D-02 BMatP= 1.06D-01
 IDIUse=3 WtCom= 8.84D-01 WtEn= 1.16D-01
 Coeff-Com:  0.168D+00 0.370D+00 0.462D+00
 Coeff-En:   0.000D+00 0.000D+00 0.100D+01
 Coeff:      0.148D+00 0.327D+00 0.525D+00
 Gap=     0.185 Goal=   None    Shift=    0.000
 RMSDP=3.24D-03 MaxDP=5.56D-02 DE=-2.09D-01 OVMax= 6.67D-02

 Cycle   4  Pass 1  IDiag  1:
 E= -706.412458201433     Delta-E=       -0.034961988039 Rises=F Damp=F
 DIIS: error= 3.56D-03 at cycle   4 NSaved=   4.
 NSaved= 4 IEnMin= 4 EnMin= -706.412458201433     IErMin= 4 ErrMin= 3.56D-03
 ErrMax= 3.56D-03  0.00D+00 EMaxC= 1.00D-01 BMatC= 5.06D-03 BMatP= 4.05D-02
 IDIUse=3 WtCom= 9.64D-01 WtEn= 3.56D-02
 Coeff-Com:  0.300D-01 0.965D-01 0.277D+00 0.596D+00
 Coeff-En:   0.000D+00 0.000D+00 0.653D-01 0.935D+00
 Coeff:      0.290D-01 0.930D-01 0.270D+00 0.608D+00
 Gap=     0.184 Goal=   None    Shift=    0.000
 RMSDP=9.78D-04 MaxDP=2.49D-02 DE=-3.50D-02 OVMax= 2.75D-02

 Cycle   5  Pass 1  IDiag  1:
 E= -706.415029643425     Delta-E=       -0.002571441992 Rises=F Damp=F
 DIIS: error= 2.65D-03 at cycle   5 NSaved=   5.
 NSaved= 5 IEnMin= 5 EnMin= -706.415029643425     IErMin= 5 ErrMin= 2.65D-03
 ErrMax= 2.65D-03  0.00D+00 EMaxC= 1.00D-01 BMatC= 1.96D-03 BMatP= 5.06D-03
 IDIUse=3 WtCom= 9.73D-01 WtEn= 2.65D-02
 Coeff-Com: -0.912D-03 0.188D-01 0.130D+00 0.451D+00 0.402D+00
 Coeff-En:   0.000D+00 0.000D+00 0.000D+00 0.305D+00 0.695D+00
 Coeff:     -0.888D-03 0.183D-01 0.126D+00 0.447D+00 0.409D+00
 Gap=     0.182 Goal=   None    Shift=    0.000
 RMSDP=4.71D-04 MaxDP=1.03D-02 DE=-2.57D-03 OVMax= 1.51D-02

 Cycle   6  Pass 1  IDiag  1:
 E= -706.416702847005     Delta-E=       -0.001673203580 Rises=F Damp=F
 DIIS: error= 4.25D-04 at cycle   6 NSaved=   6.
 NSaved= 6 IEnMin= 6 EnMin= -706.416702847005     IErMin= 6 ErrMin= 4.25D-04
 ErrMax= 4.25D-04  0.00D+00 EMaxC= 1.00D-01 BMatC= 8.16D-05 BMatP= 1.96D-03
 IDIUse=3 WtCom= 9.96D-01 WtEn= 4.25D-03
 Coeff-Com: -0.225D-02 0.135D-02 0.444D-01 0.182D+00 0.236D+00 0.539D+00
 Coeff-En:   0.000D+00 0.000D+00 0.000D+00 0.000D+00 0.000D+00 0.100D+01
 Coeff:     -0.224D-02 0.135D-02 0.442D-01 0.181D+00 0.235D+00 0.541D+00
 Gap=     0.183 Goal=   None    Shift=    0.000
 RMSDP=1.81D-04 MaxDP=4.55D-03 DE=-1.67D-03 OVMax= 2.52D-03

 Cycle   7  Pass 1  IDiag  1:
 E= -706.416780515886     Delta-E=       -0.000077668881 Rises=F Damp=F
 DIIS: error= 1.24D-04 at cycle   7 NSaved=   7.
 NSaved= 7 IEnMin= 7 EnMin= -706.416780515886     IErMin= 7 ErrMin= 1.24D-04
 ErrMax= 1.24D-04  0.00D+00 EMaxC= 1.00D-01 BMatC= 3.16D-06 BMatP= 8.16D-05
 IDIUse=3 WtCom= 9.99D-01 WtEn= 1.24D-03
 Coeff-Com: -0.490D-03-0.129D-02 0.895D-02 0.377D-01 0.688D-01 0.222D+00
 Coeff-Com:  0.664D+00
 Coeff-En:   0.000D+00 0.000D+00 0.000D+00 0.000D+00 0.000D+00 0.000D+00
 Coeff-En:   0.100D+01
 Coeff:     -0.489D-03-0.129D-02 0.894D-02 0.377D-01 0.688D-01 0.222D+00
 Coeff:      0.665D+00
 Gap=     0.183 Goal=   None    Shift=    0.000
 RMSDP=3.23D-05 MaxDP=1.03D-03 DE=-7.77D-05 OVMax= 8.85D-04

 Cycle   8  Pass 1  IDiag  1:
 E= -706.416783360661     Delta-E=       -0.000002844775 Rises=F Damp=F
 DIIS: error= 4.48D-05 at cycle   8 NSaved=   8.
 NSaved= 8 IEnMin= 8 EnMin= -706.416783360661     IErMin= 8 ErrMin= 4.48D-05
 ErrMax= 4.48D-05  0.00D+00 EMaxC= 1.00D-01 BMatC= 5.67D-07 BMatP= 3.16D-06
 IDIUse=1 WtCom= 1.00D+00 WtEn= 0.00D+00
 Coeff-Com:  0.783D-04-0.115D-02 0.141D-02 0.496D-02 0.189D-01 0.719D-01
 Coeff-Com:  0.353D+00 0.551D+00
 Coeff:      0.783D-04-0.115D-02 0.141D-02 0.496D-02 0.189D-01 0.719D-01
 Coeff:      0.353D+00 0.551D+00
 Gap=     0.183 Goal=   None    Shift=    0.000
 RMSDP=1.99D-05 MaxDP=6.09D-04 DE=-2.84D-06 OVMax= 2.94D-04

 Cycle   9  Pass 1  IDiag  1:
 E= -706.416783978609     Delta-E=       -0.000000617947 Rises=F Damp=F
 DIIS: error= 1.15D-05 at cycle   9 NSaved=   9.
 NSaved= 9 IEnMin= 9 EnMin= -706.416783978609     IErMin= 9 ErrMin= 1.15D-05
 ErrMax= 1.15D-05  0.00D+00 EMaxC= 1.00D-01 BMatC= 3.99D-08 BMatP= 5.67D-07
 IDIUse=1 WtCom= 1.00D+00 WtEn= 0.00D+00
 Coeff-Com:  0.183D-03-0.389D-03-0.288D-03-0.246D-02-0.100D-02-0.298D-02
 Coeff-Com:  0.481D-01 0.217D+00 0.742D+00
 Coeff:      0.183D-03-0.389D-03-0.288D-03-0.246D-02-0.100D-02-0.298D-02
 Coeff:      0.481D-01 0.217D+00 0.742D+00
 Gap=     0.183 Goal=   None    Shift=    0.000
 RMSDP=3.97D-06 MaxDP=1.28D-04 DE=-6.18D-07 OVMax= 5.39D-05

 Cycle  10  Pass 1  IDiag  1:
 E= -706.416784017189     Delta-E=       -0.000000038581 Rises=F Damp=F
 DIIS: error= 2.37D-06 at cycle  10 NSaved=  10.
 NSaved=10 IEnMin=10 EnMin= -706.416784017189     IErMin=10 ErrMin= 2.37D-06
 ErrMax= 2.37D-06  0.00D+00 EMaxC= 1.00D-01 BMatC= 1.40D-09 BMatP= 3.99D-08
 IDIUse=1 WtCom= 1.00D+00 WtEn= 0.00D+00
 Coeff-Com:  0.537D-04-0.777D-04-0.538D-04-0.617D-03-0.908D-03-0.366D-02
 Coeff-Com: -0.634D-02 0.269D-01 0.173D+00 0.812D+00
 Coeff:      0.537D-04-0.777D-04-0.538D-04-0.617D-03-0.908D-03-0.366D-02
 Coeff:     -0.634D-02 0.269D-01 0.173D+00 0.812D+00
 Gap=     0.183 Goal=   None    Shift=    0.000
 RMSDP=1.33D-06 MaxDP=3.28D-05 DE=-3.86D-08 OVMax= 1.63D-05

 Cycle  11  Pass 1  IDiag  1:
 E= -706.416784018390     Delta-E=       -0.000000001201 Rises=F Damp=F
 DIIS: error= 7.32D-07 at cycle  11 NSaved=  11.
 NSaved=11 IEnMin=11 EnMin= -706.416784018390     IErMin=11 ErrMin= 7.32D-07
 ErrMax= 7.32D-07  0.00D+00 EMaxC= 1.00D-01 BMatC= 1.89D-10 BMatP= 1.40D-09
 IDIUse=1 WtCom= 1.00D+00 WtEn= 0.00D+00
 Coeff-Com:  0.161D-04-0.131D-04 0.133D-04-0.859D-04-0.318D-03-0.138D-02
 Coeff-Com: -0.642D-02-0.267D-02 0.270D-01 0.377D+00 0.607D+00
 Coeff:      0.161D-04-0.131D-04 0.133D-04-0.859D-04-0.318D-03-0.138D-02
 Coeff:     -0.642D-02-0.267D-02 0.270D-01 0.377D+00 0.607D+00
 Gap=     0.183 Goal=   None    Shift=    0.000
 RMSDP=1.97D-07 MaxDP=3.65D-06 DE=-1.20D-09 OVMax= 3.54D-06

 Cycle  12  Pass 1  IDiag  1:
 E= -706.416784018582     Delta-E=       -0.000000000192 Rises=F Damp=F
 DIIS: error= 1.87D-07 at cycle  12 NSaved=  12.
 NSaved=12 IEnMin=12 EnMin= -706.416784018582     IErMin=12 ErrMin= 1.87D-07
 ErrMax= 1.87D-07  0.00D+00 EMaxC= 1.00D-01 BMatC= 7.90D-12 BMatP= 1.89D-10
 IDIUse=1 WtCom= 1.00D+00 WtEn= 0.00D+00
 Coeff-Com:  0.150D-05-0.137D-06 0.138D-04 0.280D-04-0.795D-05-0.923D-04
 Coeff-Com: -0.145D-02-0.280D-02-0.533D-02 0.534D-01 0.183D+00 0.773D+00
 Coeff:      0.150D-05-0.137D-06 0.138D-04 0.280D-04-0.795D-05-0.923D-04
 Coeff:     -0.145D-02-0.280D-02-0.533D-02 0.534D-01 0.183D+00 0.773D+00
 Gap=     0.183 Goal=   None    Shift=    0.000
 RMSDP=6.59D-08 MaxDP=2.64D-06 DE=-1.92D-10 OVMax= 1.28D-06

 Cycle  13  Pass 1  IDiag  1:
 E= -706.416784018589     Delta-E=       -0.000000000007 Rises=F Damp=F
 DIIS: error= 5.13D-08 at cycle  13 NSaved=  13.
 NSaved=13 IEnMin=13 EnMin= -706.416784018589     IErMin=13 ErrMin= 5.13D-08
 ErrMax= 5.13D-08  0.00D+00 EMaxC= 1.00D-01 BMatC= 4.57D-13 BMatP= 7.90D-12
 IDIUse=1 WtCom= 1.00D+00 WtEn= 0.00D+00
 Coeff-Com: -0.200D-06 0.203D-07 0.176D-05 0.498D-05 0.148D-04 0.438D-04
 Coeff-Com:  0.123D-03-0.327D-03-0.172D-02-0.998D-02-0.952D-02 0.732D-01
 Coeff-Com:  0.948D+00
 Coeff:     -0.200D-06 0.203D-07 0.176D-05 0.498D-05 0.148D-04 0.438D-04
 Coeff:      0.123D-03-0.327D-03-0.172D-02-0.998D-02-0.952D-02 0.732D-01
 Coeff:      0.948D+00
 Gap=     0.183 Goal=   None    Shift=    0.000
 RMSDP=1.33D-08 MaxDP=3.00D-07 DE=-6.82D-12 OVMax= 5.24D-07

 Cycle  14  Pass 1  IDiag  1:
 E= -706.416784018591     Delta-E=       -0.000000000002 Rises=F Damp=F
 DIIS: error= 4.32D-09 at cycle  14 NSaved=  14.
 NSaved=14 IEnMin=14 EnMin= -706.416784018591     IErMin=14 ErrMin= 4.32D-09
 ErrMax= 4.32D-09  0.00D+00 EMaxC= 1.00D-01 BMatC= 2.76D-15 BMatP= 4.57D-13
 IDIUse=1 WtCom= 1.00D+00 WtEn= 0.00D+00
 Coeff-Com: -0.362D-07 0.115D-07-0.160D-06-0.130D-06 0.141D-05 0.537D-05
 Coeff-Com:  0.376D-04 0.515D-04 0.189D-04-0.176D-02-0.506D-02-0.183D-01
 Coeff-Com:  0.249D-01 0.100D+01
 Coeff:     -0.362D-07 0.115D-07-0.160D-06-0.130D-06 0.141D-05 0.537D-05
 Coeff:      0.376D-04 0.515D-04 0.189D-04-0.176D-02-0.506D-02-0.183D-01
 Coeff:      0.249D-01 0.100D+01
 Gap=     0.183 Goal=   None    Shift=    0.000
 RMSDP=2.81D-09 MaxDP=1.06D-07 DE=-2.27D-12 OVMax= 1.26D-07

 Error on total polarization charges =  0.02226
 SCF Done:  E(RB3LYP) =  -706.416784019     A.U. after   14 cycles
            NFock= 14  Conv=0.28D-08     -V/T= 2.0057
 KE= 7.024078600172D+02 PE=-2.171637828598D+03 EE= 5.161256133256D+02
 SMD-CDS (non-electrostatic) energy       (kcal/mol) =      -0.73
 (included in total energy above)
 Leave Link  502 at Wed Jan  8 00:52:24 2020, MaxMem=  4294967296 cpu:             448.0 elap:              33.4
 (Enter /home/cwagen/sw/g16/g16/l601.exe)
 Copying SCF densities to generalized density rwf, IOpCl= 0 IROHF=0.

 **********************************************************************

            Population analysis using the SCF density.

 **********************************************************************

 Orbital symmetries:
       Occupied  (A) (A) (A) (A) (A) (A) (A) (A) (A) (A) (A) (A)
                 (A) (A) (A) (A) (A) (A) (A) (A) (A) (A) (A) (A)
                 (A) (A) (A)
       Virtual   (A) (A) (A) (A) (A) (A) (A) (A) (A) (A) (A) (A)
                 (A) (A) (A) (A) (A) (A) (A) (A) (A) (A) (A) (A)
                 (A) (A) (A) (A) (A) (A) (A) (A) (A) (A) (A) (A)
                 (A) (A) (A) (A) (A) (A) (A) (A) (A) (A) (A) (A)
                 (A) (A) (A) (A) (A) (A) (A) (A) (A) (A) (A) (A)
                 (A) (A) (A) (A) (A) (A) (A) (A) (A) (A) (A) (A)
                 (A) (A) (A) (A) (A) (A) (A) (A) (A) (A) (A) (A)
                 (A) (A) (A) (A) (A) (A) (A) (A) (A) (A) (A) (A)
                 (A)
 The electronic state is 1-A.
 Alpha  occ. eigenvalues -- -101.46633 -19.10681 -14.32887 -10.29590 -10.22151
 Alpha  occ. eigenvalues --  -10.17141  -9.38029  -7.14124  -7.13637  -7.13627
 Alpha  occ. eigenvalues --   -0.98294  -0.89037  -0.73862  -0.71195  -0.61171
 Alpha  occ. eigenvalues --   -0.45541  -0.42264  -0.40695  -0.37868  -0.36099
 Alpha  occ. eigenvalues --   -0.35365  -0.31713  -0.31373  -0.25448  -0.25221
 Alpha  occ. eigenvalues --   -0.23813  -0.22624
 Alpha virt. eigenvalues --   -0.04332   0.02529   0.03933   0.04495   0.05460
 Alpha virt. eigenvalues --    0.06974   0.07155   0.09237   0.09830   0.09894
 Alpha virt. eigenvalues --    0.10155   0.11235   0.12054   0.13584   0.14344
 Alpha virt. eigenvalues --    0.14672   0.16290   0.17155   0.19623   0.21644
 Alpha virt. eigenvalues --    0.24404   0.24920   0.25472   0.26451   0.27138
 Alpha virt. eigenvalues --    0.27994   0.29864   0.31666   0.34627   0.35668
 Alpha virt. eigenvalues --    0.37695   0.38433   0.43751   0.59358   0.62114
 Alpha virt. eigenvalues --    0.66292   0.67914   0.68224   0.69310   0.72617
 Alpha virt. eigenvalues --    0.74297   0.76530   0.78961   0.80003   0.81309
 Alpha virt. eigenvalues --    0.85671   0.91678   0.93213   0.95046   0.95442
 Alpha virt. eigenvalues --    0.96754   1.00575   1.02294   1.03137   1.05198
 Alpha virt. eigenvalues --    1.08080   1.10948   1.14404   1.16006   1.24534
 Alpha virt. eigenvalues --    1.31288   1.33103   1.34443   1.45296   1.47709
 Alpha virt. eigenvalues --    1.49579   1.55121   1.59149   1.64564   1.70505
 Alpha virt. eigenvalues --    1.72508   1.80531   1.83728   1.89431   1.92787
 Alpha virt. eigenvalues --    1.95880   2.00285   2.06293   2.10172   2.15606
 Alpha virt. eigenvalues --    2.23559   2.27751   2.32505   2.43685   2.50928
 Alpha virt. eigenvalues --    2.72965   2.79149   2.83752   2.91455   3.04858
 Alpha virt. eigenvalues --    3.25495   4.12387   4.20468   4.34758   4.35861
 Alpha virt. eigenvalues --    4.38958   4.73513
          Condensed to atoms (all electrons):
               1          2          3          4          5          6
     1  C    6.167827   0.605660   0.212780  -0.104122  -0.093925   0.008526
     2  O    0.605660   8.332589  -0.180890   0.009971   0.002555  -0.011917
     3  C    0.212780  -0.180890   5.806947   0.368767   0.392433   0.374296
     4  H   -0.104122   0.009971   0.368767   0.491530  -0.022020  -0.030962
     5  H   -0.093925   0.002555   0.392433  -0.022020   0.476849  -0.023321
     6  H    0.008526  -0.011917   0.374296  -0.030962  -0.023321   0.472368
     7  Cl   0.003622  -0.058889  -0.120759   0.009275   0.000449   0.001687
     8  C   -1.099773  -0.192860  -0.145991   0.050861   0.037731  -0.033305
     9  N   -0.091117  -0.024123   0.012074  -0.001634   0.000139  -0.001195
               7          8          9
     1  C    0.003622  -1.099773  -0.091117
     2  O   -0.058889  -0.192860  -0.024123
     3  C   -0.120759  -0.145991   0.012074
     4  H    0.009275   0.050861  -0.001634
     5  H    0.000449   0.037731   0.000139
     6  H    0.001687  -0.033305  -0.001195
     7  Cl  17.646197   0.070478  -0.024431
     8  C    0.070478   6.524687   0.552647
     9  N   -0.024431   0.552647   7.175572
 Mulliken charges:
               1
     1  C    0.390523
     2  O   -0.482095
     3  C   -0.719657
     4  H    0.228335
     5  H    0.229110
     6  H    0.243822
     7  Cl  -0.527630
     8  C    0.235525
     9  N   -0.597933
 Sum of Mulliken charges =  -1.00000
 Mulliken charges with hydrogens summed into heavy atoms:
               1
     1  C    0.390523
     2  O   -0.482095
     3  C   -0.018390
     7  Cl  -0.527630
     8  C    0.235525
     9  N   -0.597933
 Electronic spatial extent (au):  <R**2>=            771.2842
 Charge=             -1.0000 electrons
 Dipole moment (field-independent basis, Debye):
    X=              1.1952    Y=              3.2633    Z=             -3.2291  Tot=              4.7439
 Quadrupole moment (field-independent basis, Debye-Ang):
   XX=            -64.0590   YY=            -52.4021   ZZ=            -51.0504
   XY=              4.3979   XZ=             -1.7344   YZ=             -4.7439
 Traceless Quadrupole moment (field-independent basis, Debye-Ang):
   XX=             -8.2218   YY=              3.4350   ZZ=              4.7868
   XY=              4.3979   XZ=             -1.7344   YZ=             -4.7439
 Octapole moment (field-independent basis, Debye-Ang**2):
  XXX=             -1.1250  YYY=             15.5561  ZZZ=             -7.2159  XYY=            -11.4289
  XXY=             23.0391  XXZ=              2.9009  XZZ=             -2.1078  YZZ=             -2.7331
  YYZ=             -1.3910  XYZ=             -3.5997
 Hexadecapole moment (field-independent basis, Debye-Ang**3):
 XXXX=           -678.2675 YYYY=           -337.8209 ZZZZ=           -195.2915 XXXY=             41.7615
 XXXZ=              4.1943 YYYX=             25.6867 YYYZ=             -6.4263 ZZZX=             -2.8427
 ZZZY=             -5.9424 XXYY=           -182.4700 XXZZ=           -135.6922 YYZZ=            -90.6942
 XXYZ=             -5.4857 YYXZ=              1.7778 ZZXY=              0.1837
 N-N= 2.466875712369D+02 E-N=-2.171637828731D+03  KE= 7.024078600172D+02
 No NMR shielding tensors so no spin-rotation constants.
 Leave Link  601 at Wed Jan  8 00:52:25 2020, MaxMem=  4294967296 cpu:              13.8 elap:               1.1
 (Enter /home/cwagen/sw/g16/g16/l701.exe)
 ... and contract with generalized density number  0.
 Compute integral first derivatives.
 D1PCM: PCM CHGder 1st derivatives, ID1Alg=3 FixD1E=F DoIter=F DoCFld=F I1PDM=0.
 GePol: Maximum number of non-zero 1st derivatives   =     375
 Leave Link  701 at Wed Jan  8 00:52:29 2020, MaxMem=  4294967296 cpu:              54.3 elap:               3.7
 (Enter /home/cwagen/sw/g16/g16/l702.exe)
 L702 exits ... SP integral derivatives will be done elsewhere.
 Leave Link  702 at Wed Jan  8 00:52:29 2020, MaxMem=  4294967296 cpu:               1.2 elap:               0.1
 (Enter /home/cwagen/sw/g16/g16/l703.exe)
 Integral derivatives from FoFJK, PRISM(SPDF).
 Compute integral first derivatives, UseDBF=F ICtDFT=           0.
 Calling FoFJK, ICntrl=      2127 FMM=F ISym2X=0 I1Cent= 0 IOpClX= 0 NMat=1 NMatS=1 NMatT=0.
 FoFJK:  IHMeth= 1 ICntrl=    2127 DoSepK=F KAlg= 0 I1Cent=           0 FoldK=F
 IRaf=         0 NMat=       1 IRICut=       1 DoRegI=T DoRafI=F ISym2E= 0 IDoP0=0 IntGTp=1.
 FoFCou: FMM=F IPFlag=           0 FMFlag=      100000 FMFlg1=         800
         NFxFlg=           0 DoJE=F BraDBF=F KetDBF=F FulRan=T
         wScrn=  0.000000 ICntrl=      2127 IOpCl=  0 I1Cent=           0 NGrid=           0
         NMat0=    1 NMatS0=      1 NMatT0=    0 NMatD0=    1 NMtDS0=    0 NMtDT0=    0
 Symmetry not used in FoFCou.
 Leave Link  703 at Wed Jan  8 00:52:31 2020, MaxMem=  4294967296 cpu:              35.9 elap:               2.4
 (Enter /home/cwagen/sw/g16/g16/l716.exe)
 Dipole        = 4.70245113D-01 1.28389239D+00-1.27041354D+00
 ***** Axes restored to original set *****
 -------------------------------------------------------------------
 Center     Atomic                   Forces (Hartrees/Bohr)
 Number     Number              X              Y              Z
 -------------------------------------------------------------------
      1        6           0.047413431   -0.063832221   -0.037339805
      2        8          -0.019246096    0.028714602    0.037319548
      3        6          -0.033660478    0.013472839    0.004793721
      4        1          -0.000815600    0.000664655   -0.001406094
      5        1           0.000935863   -0.002795899    0.002760480
      6        1           0.001203514    0.003434916   -0.003013945
      7       17           0.007491402   -0.009734101    0.000225349
      8        6           0.005450765    0.034137720   -0.007679593
      9        7          -0.008772801   -0.004062512    0.004340339
 -------------------------------------------------------------------
 Cartesian Forces:  Max     0.063832221 RMS     0.022111744
 Leave Link  716 at Wed Jan  8 00:52:31 2020, MaxMem=  4294967296 cpu:               1.3 elap:               0.1
 (Enter /home/cwagen/sw/g16/g16/l103.exe)

 GradGradGradGradGradGradGradGradGradGradGradGradGradGradGradGradGradGrad
 Berny optimization.
 FormGI is forming the generalized inverse of G from B-inverse, IUseBI=4.
 Internal  Forces:  Max     0.044816863 RMS     0.015777523
 Search for a local minimum.
 Step number   1 out of a maximum of   41
 All quantities printed in internal units (Hartrees-Bohrs-Radians)
 RMS Force = .16122D-01 SwitMx=.10000D-02 MixMth= 1
 Mixed Optimization -- RFO/linear search
 Second derivative matrix not updated -- first step.
 ITU=  0
     Eigenvalues ---    0.00230   0.04746   0.04746   0.05330   0.05908
     Eigenvalues ---    0.07453   0.10176   0.16000   0.16000   0.16000
     Eigenvalues ---    0.25000   0.25000   0.25000   0.26946   0.33918
     Eigenvalues ---    0.33999   0.34275   0.67840   1.220341000.00000
     Eigenvalues --- 1000.000001000.000001000.000001000.000001000.00000
     Eigenvalues --- 1000.000001000.000001000.000001000.000001000.00000
     Eigenvalues --- 1000.00000
 RFO step:  Lambda=-3.36708030D-02 EMin= 2.30000000D-03
 Linear search not attempted -- first point.
 Maximum step size (   0.300) exceeded in Quadratic search.
    -- Step size scaled by   0.891
 Iteration  1 RMS(Cart)=  0.10221550 RMS(Int)=  0.00815869
 Iteration  2 RMS(Cart)=  0.00805731 RMS(Int)=  0.00580615
 Iteration  3 RMS(Cart)=  0.00001634 RMS(Int)=  0.00580614
 Iteration  4 RMS(Cart)=  0.00000009 RMS(Int)=  0.00580614
 Iteration  1 RMS(Cart)=  0.00000000 RMS(Int)=  0.00000000
 ITry= 1 IFail=0 DXMaxC= 2.52D-01 DCOld= 1.00D+10 DXMaxT= 3.00D-01 DXLimC= 3.00D+00 Rises=F
 Variable       Old X    -DE/DX   Delta X   Delta X   Delta X     New X
                                 (Linear)    (Quad)   (Total)
    R1        2.45227  -0.04302   0.00000  -0.05385  -0.05385   2.39842
    R2        2.94503  -0.00599   0.00000  -0.01761  -0.01761   2.92742
    R3        4.34637  -0.01186   0.00000   0.00000   0.00000   4.34637
    R4        2.83459   0.00621   0.00000   0.00000   0.00000   2.83459
    R5        2.07331  -0.00121   0.00000  -0.00289  -0.00289   2.07042
    R6        2.07468  -0.00005   0.00000  -0.00012  -0.00012   2.07457
    R7        2.06868  -0.00135   0.00000  -0.00320  -0.00320   2.06548
    R8        2.20923  -0.00937   0.00000  -0.00666  -0.00666   2.20257
    A1        1.99667   0.02475   0.00000   0.08240   0.06944   2.06610
    A2        2.01908  -0.01107   0.00000  -0.07957  -0.07910   1.93998
    A3        1.89239  -0.00686   0.00000   0.06547   0.04486   1.93725
    A4        1.92419  -0.02607   0.00000  -0.12053  -0.11679   1.80740
    A5        1.77194   0.04482   0.00000   0.17385   0.16230   1.93424
    A6        1.83479  -0.02151   0.00000  -0.09505  -0.08674   1.74805
    A7        1.97398  -0.00145   0.00000  -0.00753  -0.00778   1.96620
    A8        1.87942   0.00733   0.00000   0.03749   0.03762   1.91705
    A9        1.90140  -0.00704   0.00000  -0.03541  -0.03544   1.86596
   A10        1.90356  -0.00205   0.00000  -0.00405  -0.00414   1.89942
   A11        1.90837   0.00312   0.00000   0.00763   0.00722   1.91559
   A12        1.89554   0.00018   0.00000   0.00257   0.00297   1.89852
   A13        3.10055  -0.00641   0.00000  -0.07041  -0.07041   3.03013
   A14        2.92496   0.00762   0.00000   0.08365   0.08365   3.00862
    D1        3.04510   0.01532   0.00000   0.12187   0.12672  -3.11136
    D2       -1.13357   0.01686   0.00000   0.13775   0.14264  -0.99093
    D3        0.91915   0.01733   0.00000   0.14248   0.14702   1.06617
    D4       -0.92685  -0.00269   0.00000  -0.03119  -0.02877  -0.95562
    D5        1.17766  -0.00115   0.00000  -0.01531  -0.01284   1.16482
    D6       -3.05280  -0.00067   0.00000  -0.01058  -0.00847  -3.06127
    D7        1.01121  -0.01506   0.00000  -0.09922  -0.10622   0.90498
    D8        3.11572  -0.01352   0.00000  -0.08334  -0.09030   3.02542
    D9       -1.11475  -0.01304   0.00000  -0.07861  -0.08593  -1.20067
         Item               Value     Threshold  Converged?
 Maximum Force            0.044817     0.000450     NO 
 RMS     Force            0.016122     0.000300     NO 
 Maximum Displacement     0.251891     0.001800     NO 
 RMS     Displacement     0.099713     0.001200     NO 
 Predicted change in Energy=-2.031541D-02
 Lowest energy point so far.  Saving SCF results.
 GradGradGradGradGradGradGradGradGradGradGradGradGradGradGradGradGradGrad

 Leave Link  103 at Wed Jan  8 00:52:37 2020, MaxMem=  4294967296 cpu:              73.7 elap:               5.4
 (Enter /home/cwagen/sw/g16/g16/l202.exe)
                          Input orientation:                          
 ---------------------------------------------------------------------
 Center     Atomic      Atomic             Coordinates (Angstroms)
 Number     Number       Type             X           Y           Z
 ---------------------------------------------------------------------
      1          6           0       -0.102762   -0.369582   -0.231990
      2          8           0       -0.273507   -0.651994   -1.457522
      3          6           0       -0.371301   -1.472543    0.822124
      4          1           0       -0.224422   -1.119701    1.848922
      5          1           0       -1.399074   -1.844306    0.718834
      6          1           0        0.321748   -2.290655    0.609918
      7         17           0       -1.482403    1.349990    0.423497
      8          6           0        1.237174    0.266573   -0.008659
      9          7           0        2.346074    0.608574    0.100355
 ---------------------------------------------------------------------
                    Distance matrix (angstroms):
                    1          2          3          4          5
     1  C    0.000000
     2  O    1.269188   0.000000
     3  C    1.549126   2.424798   0.000000
     4  H    2.215327   3.339720   1.095621   0.000000
     5  H    2.181582   2.724891   1.097813   1.783805   0.000000
     6  H    2.139986   2.704412   1.093003   1.790130   1.781100
     7  Cl   2.300000   3.001266   3.059435   3.116685   3.209002
     8  C    1.500000   2.285854   2.510362   2.740188   3.454686
     9  N    2.657826   3.298214   3.498017   3.556947   4.519432
                    6          7          8          9
     6  H    0.000000
     7  Cl   4.067433   0.000000
     8  C    2.785688   2.959164   0.000000
     9  N    3.572545   3.912972   1.165550   0.000000
 Stoichiometry    C3H3ClNO(1-)
 Framework group  C1[X(C3H3ClNO)]
 Deg. of freedom    21
 Full point group                 C1      NOp   1
 RotChk:  IX=0 Diff= 1.55D-01
 Largest Abelian subgroup         C1      NOp   1
 Largest concise Abelian subgroup C1      NOp   1
                         Standard orientation:                         
 ---------------------------------------------------------------------
 Center     Atomic      Atomic             Coordinates (Angstroms)
 Number     Number       Type             X           Y           Z
 ---------------------------------------------------------------------
      1          6           0        0.278790    0.466607    0.213864
      2          8           0        0.416385    0.883417    1.404736
      3          6           0        0.307274    1.503216   -0.936971
      4          1           0        0.150183    1.046438   -1.920364
      5          1           0       -0.466552    2.264273   -0.772117
      6          1           0        1.287524    1.985723   -0.906083
      7         17           0       -1.742768   -0.594078   -0.065864
      8          6           0        1.215411   -0.670317   -0.069237
      9          7           0        2.073710   -1.437354   -0.252223
 ---------------------------------------------------------------------
 Rotational constants (GHZ):           3.4251946           2.1148738           1.7409311
 Leave Link  202 at Wed Jan  8 00:52:37 2020, MaxMem=  4294967296 cpu:               1.3 elap:               0.1
 (Enter /home/cwagen/sw/g16/g16/l301.exe)
 Standard basis: 6-31+G(d) (6D, 7F)
 Ernie: Thresh=  0.10000D-02 Tol=  0.10000D-05 Strict=F.
 There are   124 symmetry adapted cartesian basis functions of A   symmetry.
 There are   124 symmetry adapted basis functions of A   symmetry.
   124 basis functions,   228 primitive gaussians,   124 cartesian basis functions
    27 alpha electrons       27 beta electrons
       nuclear repulsion energy       248.7397384177 Hartrees.
 IExCor=  402 DFT=T Ex+Corr=B3LYP ExCW=0 ScaHFX=  0.200000
 ScaDFX=  0.800000  0.720000  1.000000  0.810000 ScalE2=  1.000000  1.000000
 IRadAn=      5 IRanWt=     -1 IRanGd=            0 ICorTp=0 IEmpDi=  4
 NAtoms=    9 NActive=    9 NUniq=    9 SFac= 1.00D+00 NAtFMM=   60 NAOKFM=F Big=F
 Integral buffers will be    131072 words long.
 Raffenetti 2 integral format.
 Two-electron integral symmetry is turned on.
 ------------------------------------------------------------------------------
 Polarizable Continuum Model (PCM)
 =================================
 Model                : PCM.
 Atomic radii         : SMD-Coulomb.
 Polarization charges : Total charges.
 Charge compensation  : None.
 Solution method      : On-the-fly selection.
 Cavity type          : VdW (van der Waals Surface) (Alpha=1.000).
 Cavity algorithm     : GePol (No added spheres)
                        Default sphere list used, NSphG=    9.
                        Lebedev-Laikov grids with approx.  5.0 points / Ang**2.
                        Smoothing algorithm: York/Karplus (Gamma=1.0000).
                        Polarization charges: spherical gaussians, with
                                              point-specific exponents (IZeta= 3).
                        Self-potential: point-specific (ISelfS= 7).
                        Self-field    : sphere-specific E.n sum rule (ISelfD= 2).
 1st derivatives      : Analytical E(r).r(x)/FMM algorithm (CHGder, D1EAlg=3).
                        Cavity 1st derivative terms included.
 Solvent              : TetraHydroFuran, Eps=   7.425700 Eps(inf)=   1.974025
 ------------------------------------------------------------------------------
 Spheres list:
 ISph  on   Nord     Re0    Alpha      Xe            Ye            Ze
    1   C      1    1.8500  1.000      0.278790      0.466607      0.213864
    2   O      2    2.2940  1.000      0.416385      0.883417      1.404736
    3   C      3    1.8500  1.000      0.307274      1.503216     -0.936971
    4   H      4    1.2000  1.000      0.150183      1.046438     -1.920364
    5   H      5    1.2000  1.000     -0.466552      2.264273     -0.772117
    6   H      6    1.2000  1.000      1.287524      1.985723     -0.906083
    7  Cl      7    2.3800  1.000     -1.742768     -0.594078     -0.065864
    8   C      8    1.8500  1.000      1.215411     -0.670317     -0.069237
    9   N      9    1.8900  1.000      2.073710     -1.437354     -0.252223
 ------------------------------------------------------------------------------
 GePol: Number of generator spheres                  =       9
 GePol: Total number of spheres                      =       9
 GePol: Number of exposed spheres                    =       9 (100.00%)
 GePol: Number of points                             =    1165
 GePol: Average weight of points                     =       0.13
 GePol: Minimum weight of points                     =   0.65D-08
 GePol: Maximum weight of points                     =    0.18138
 GePol: Number of points with low weight             =      31
 GePol: Fraction of low-weight points (<1% of avg)   =       2.66%
 GePol: Cavity surface area                          =    157.261 Ang**2
 GePol: Cavity volume                                =    144.606 Ang**3
 ------------------------------------------------------------------------------
 Atomic radii for non-electrostatic terms: SMD-CDS.
 ------------------------------------------------------------------------------
 PCM non-electrostatic energy =        -0.0012086766 Hartrees.
 Nuclear repulsion after PCM non-electrostatic terms =      248.7385297411 Hartrees.
 Leave Link  301 at Wed Jan  8 00:52:37 2020, MaxMem=  4294967296 cpu:               3.1 elap:               0.3
 (Enter /home/cwagen/sw/g16/g16/l302.exe)
 NPDir=0 NMtPBC=     1 NCelOv=     1 NCel=       1 NClECP=     1 NCelD=      1
         NCelK=      1 NCelE2=     1 NClLst=     1 CellRange=     0.0.
 One-electron integrals computed using PRISM.
 One-electron integral symmetry used in STVInt
 NBasis=   124 RedAO= T EigKep=  3.76D-05  NBF=   124
 NBsUse=   124 1.00D-06 EigRej= -1.00D+00 NBFU=   124
 Precomputing XC quadrature grid using
 IXCGrd= 4 IRadAn=           5 IRanWt=          -1 IRanGd=           0 AccXCQ= 0.00D+00.
 Generated NRdTot=       0 NPtTot=           0 NUsed=           0 NTot=          32
 NSgBfM=   124   124   124   124   124 MxSgAt=     9 MxSgA2=     9.
 Leave Link  302 at Wed Jan  8 00:52:39 2020, MaxMem=  4294967296 cpu:              23.1 elap:               1.6
 (Enter /home/cwagen/sw/g16/g16/l303.exe)
 DipDrv:  MaxL=1.
 Leave Link  303 at Wed Jan  8 00:52:39 2020, MaxMem=  4294967296 cpu:               3.1 elap:               0.3
 (Enter /home/cwagen/sw/g16/g16/l401.exe)
 Initial guess from the checkpoint file:  "/scratch/users/cwagen/cwagen_scan_230_150/Gau-36838.chk"
 B after Tr=     0.000000    0.000000    0.000000
         Rot=    0.999065   -0.001147   -0.010309   -0.041961 Ang=  -4.95 deg.
 Guess basis will be translated and rotated to current coordinates.
 JPrj=2 DoOrth=T DoCkMO=T.
 Generating alternative initial guess.
 ExpMin= 4.38D-02 ExpMax= 2.52D+04 ExpMxC= 3.78D+03 IAcc=2 IRadAn=         4 AccDes= 0.00D+00
 Harris functional with IExCor=  402 and IRadAn=       4 diagonalized for initial guess.
 HarFok:  IExCor=  402 AccDes= 0.00D+00 IRadAn=         4 IDoV= 1 UseB2=F ITyADJ=14
 ICtDFT=  3500011 ScaDFX=  1.000000  1.000000  1.000000  1.000000
 FoFCou: FMM=F IPFlag=           0 FMFlag=      100000 FMFlg1=           0
         NFxFlg=           0 DoJE=T BraDBF=F KetDBF=T FulRan=T
         wScrn=  0.000000 ICntrl=       500 IOpCl=  0 I1Cent=   200000004 NGrid=           0
         NMat0=    1 NMatS0=      1 NMatT0=    0 NMatD0=    1 NMtDS0=    0 NMtDT0=    0
 Petite list used in FoFCou.
 Harris En= -706.426172576204    
 Leave Link  401 at Wed Jan  8 00:52:42 2020, MaxMem=  4294967296 cpu:              42.0 elap:               2.8
 (Enter /home/cwagen/sw/g16/g16/l502.exe)
 Keep R1 ints in memory in canonical form, NReq=45236517.
 FoFCou: FMM=F IPFlag=           0 FMFlag=           0 FMFlg1=           0
         NFxFlg=           0 DoJE=F BraDBF=F KetDBF=F FulRan=T
         wScrn=  0.000000 ICntrl=       600 IOpCl=  0 I1Cent=           0 NGrid=           0
         NMat0=    1 NMatS0=   7750 NMatT0=    0 NMatD0=    1 NMtDS0=    0 NMtDT0=    0
 Symmetry not used in FoFCou.
 Two-electron integral symmetry not used.
 Closed shell SCF:
 Using DIIS extrapolation, IDIIS=  1040.
 NGot=  4294967296 LenX=  4264898079 LenY=  4264882262
 Requested convergence on RMS density matrix=1.00D-08 within 128 cycles.
 Requested convergence on MAX density matrix=1.00D-06.
 Requested convergence on             energy=1.00D-06.
 No special actions if energy rises.

 Cycle   1  Pass 1  IDiag  1:
 Inv3:  Mode=1 IEnd=     4071675.
 Iteration    1 A*A^-1 deviation from unit magnitude is 4.00D-15 for   1145.
 Iteration    1 A*A^-1 deviation from orthogonality  is 2.41D-15 for    338     96.
 Iteration    1 A^-1*A deviation from unit magnitude is 4.66D-15 for   1146.
 Iteration    1 A^-1*A deviation from orthogonality  is 1.65D-15 for   1163    999.
 E= -706.417247792311    
 DIIS: error= 5.71D-03 at cycle   1 NSaved=   1.
 NSaved= 1 IEnMin= 1 EnMin= -706.417247792311     IErMin= 1 ErrMin= 5.71D-03
 ErrMax= 5.71D-03  0.00D+00 EMaxC= 1.00D-01 BMatC= 1.20D-02 BMatP= 1.20D-02
 IDIUse=3 WtCom= 9.43D-01 WtEn= 5.71D-02
 Coeff-Com:  0.100D+01
 Coeff-En:   0.100D+01
 Coeff:      0.100D+01
 Gap=     0.568 Goal=   None    Shift=    0.000
 GapD=    0.568 DampG=2.000 DampE=1.000 DampFc=2.0000 IDamp=-1.
 RMSDP=3.27D-03 MaxDP=5.95D-02              OVMax= 3.85D-02

 Cycle   2  Pass 1  IDiag  1:
 E= -706.436173866217     Delta-E=       -0.018926073906 Rises=F Damp=F
 DIIS: error= 9.02D-04 at cycle   2 NSaved=   2.
 NSaved= 2 IEnMin= 2 EnMin= -706.436173866217     IErMin= 2 ErrMin= 9.02D-04
 ErrMax= 9.02D-04  0.00D+00 EMaxC= 1.00D-01 BMatC= 3.80D-04 BMatP= 1.20D-02
 IDIUse=3 WtCom= 9.91D-01 WtEn= 9.02D-03
 Coeff-Com: -0.117D-01 0.101D+01
 Coeff-En:   0.000D+00 0.100D+01
 Coeff:     -0.116D-01 0.101D+01
 Gap=     0.201 Goal=   None    Shift=    0.000
 RMSDP=6.20D-04 MaxDP=1.13D-02 DE=-1.89D-02 OVMax= 1.67D-02

 Cycle   3  Pass 1  IDiag  1:
 E= -706.435634361655     Delta-E=        0.000539504562 Rises=F Damp=F
 DIIS: error= 1.78D-03 at cycle   3 NSaved=   3.
 NSaved= 3 IEnMin= 2 EnMin= -706.436173866217     IErMin= 2 ErrMin= 9.02D-04
 ErrMax= 1.78D-03  0.00D+00 EMaxC= 1.00D-01 BMatC= 1.07D-03 BMatP= 3.80D-04
 IDIUse=3 WtCom= 1.92D-01 WtEn= 8.08D-01
 Coeff-Com: -0.359D-01 0.666D+00 0.370D+00
 Coeff-En:   0.000D+00 0.685D+00 0.315D+00
 Coeff:     -0.687D-02 0.681D+00 0.326D+00
 Gap=     0.201 Goal=   None    Shift=    0.000
 RMSDP=4.78D-04 MaxDP=1.25D-02 DE= 5.40D-04 OVMax= 9.84D-03

 Cycle   4  Pass 1  IDiag  1:
 E= -706.436624687831     Delta-E=       -0.000990326175 Rises=F Damp=F
 DIIS: error= 3.59D-04 at cycle   4 NSaved=   4.
 NSaved= 4 IEnMin= 4 EnMin= -706.436624687831     IErMin= 4 ErrMin= 3.59D-04
 ErrMax= 3.59D-04  0.00D+00 EMaxC= 1.00D-01 BMatC= 3.15D-05 BMatP= 3.80D-04
 IDIUse=3 WtCom= 9.96D-01 WtEn= 3.59D-03
 Coeff-Com: -0.192D-01 0.248D+00 0.174D+00 0.597D+00
 Coeff-En:   0.000D+00 0.000D+00 0.000D+00 0.100D+01
 Coeff:     -0.191D-01 0.247D+00 0.173D+00 0.599D+00
 Gap=     0.200 Goal=   None    Shift=    0.000
 RMSDP=8.86D-05 MaxDP=2.96D-03 DE=-9.90D-04 OVMax= 1.86D-03

 Cycle   5  Pass 1  IDiag  1:
 E= -706.436647046633     Delta-E=       -0.000022358802 Rises=F Damp=F
 DIIS: error= 1.29D-04 at cycle   5 NSaved=   5.
 NSaved= 5 IEnMin= 5 EnMin= -706.436647046633     IErMin= 5 ErrMin= 1.29D-04
 ErrMax= 1.29D-04  0.00D+00 EMaxC= 1.00D-01 BMatC= 6.41D-06 BMatP= 3.15D-05
 IDIUse=3 WtCom= 9.99D-01 WtEn= 1.29D-03
 Coeff-Com: -0.478D-02 0.447D-01 0.503D-01 0.334D+00 0.576D+00
 Coeff-En:   0.000D+00 0.000D+00 0.000D+00 0.154D+00 0.846D+00
 Coeff:     -0.477D-02 0.447D-01 0.503D-01 0.333D+00 0.576D+00
 Gap=     0.200 Goal=   None    Shift=    0.000
 RMSDP=5.26D-05 MaxDP=1.26D-03 DE=-2.24D-05 OVMax= 7.25D-04

 Cycle   6  Pass 1  IDiag  1:
 E= -706.436653378416     Delta-E=       -0.000006331783 Rises=F Damp=F
 DIIS: error= 2.28D-05 at cycle   6 NSaved=   6.
 NSaved= 6 IEnMin= 6 EnMin= -706.436653378416     IErMin= 6 ErrMin= 2.28D-05
 ErrMax= 2.28D-05  0.00D+00 EMaxC= 1.00D-01 BMatC= 2.00D-07 BMatP= 6.41D-06
 IDIUse=1 WtCom= 1.00D+00 WtEn= 0.00D+00
 Coeff-Com:  0.865D-04-0.103D-01-0.860D-03 0.624D-01 0.203D+00 0.746D+00
 Coeff:      0.865D-04-0.103D-01-0.860D-03 0.624D-01 0.203D+00 0.746D+00
 Gap=     0.200 Goal=   None    Shift=    0.000
 RMSDP=1.45D-05 MaxDP=2.86D-04 DE=-6.33D-06 OVMax= 2.44D-04

 Cycle   7  Pass 1  IDiag  1:
 E= -706.436653587599     Delta-E=       -0.000000209184 Rises=F Damp=F
 DIIS: error= 1.03D-05 at cycle   7 NSaved=   7.
 NSaved= 7 IEnMin= 7 EnMin= -706.436653587599     IErMin= 7 ErrMin= 1.03D-05
 ErrMax= 1.03D-05  0.00D+00 EMaxC= 1.00D-01 BMatC= 3.50D-08 BMatP= 2.00D-07
 IDIUse=1 WtCom= 1.00D+00 WtEn= 0.00D+00
 Coeff-Com:  0.352D-03-0.889D-02-0.372D-02 0.155D-01 0.806D-01 0.402D+00
 Coeff-Com:  0.514D+00
 Coeff:      0.352D-03-0.889D-02-0.372D-02 0.155D-01 0.806D-01 0.402D+00
 Coeff:      0.514D+00
 Gap=     0.200 Goal=   None    Shift=    0.000
 RMSDP=3.02D-06 MaxDP=8.23D-05 DE=-2.09D-07 OVMax= 9.11D-05

 Cycle   8  Pass 1  IDiag  1:
 E= -706.436653622294     Delta-E=       -0.000000034695 Rises=F Damp=F
 DIIS: error= 5.57D-06 at cycle   8 NSaved=   8.
 NSaved= 8 IEnMin= 8 EnMin= -706.436653622294     IErMin= 8 ErrMin= 5.57D-06
 ErrMax= 5.57D-06  0.00D+00 EMaxC= 1.00D-01 BMatC= 7.26D-09 BMatP= 3.50D-08
 IDIUse=1 WtCom= 1.00D+00 WtEn= 0.00D+00
 Coeff-Com:  0.232D-03-0.499D-02-0.251D-02 0.423D-02 0.344D-01 0.196D+00
 Coeff-Com:  0.344D+00 0.429D+00
 Coeff:      0.232D-03-0.499D-02-0.251D-02 0.423D-02 0.344D-01 0.196D+00
 Coeff:      0.344D+00 0.429D+00
 Gap=     0.200 Goal=   None    Shift=    0.000
 RMSDP=1.06D-06 MaxDP=2.07D-05 DE=-3.47D-08 OVMax= 2.56D-05

 Cycle   9  Pass 1  IDiag  1:
 E= -706.436653627704     Delta-E=       -0.000000005409 Rises=F Damp=F
 DIIS: error= 1.49D-06 at cycle   9 NSaved=   9.
 NSaved= 9 IEnMin= 9 EnMin= -706.436653627704     IErMin= 9 ErrMin= 1.49D-06
 ErrMax= 1.49D-06  0.00D+00 EMaxC= 1.00D-01 BMatC= 7.77D-10 BMatP= 7.26D-09
 IDIUse=1 WtCom= 1.00D+00 WtEn= 0.00D+00
 Coeff-Com:  0.283D-04-0.181D-03-0.393D-03-0.227D-02-0.459D-02-0.132D-01
 Coeff-Com:  0.549D-01 0.261D+00 0.705D+00
 Coeff:      0.283D-04-0.181D-03-0.393D-03-0.227D-02-0.459D-02-0.132D-01
 Coeff:      0.549D-01 0.261D+00 0.705D+00
 Gap=     0.200 Goal=   None    Shift=    0.000
 RMSDP=3.89D-07 MaxDP=8.22D-06 DE=-5.41D-09 OVMax= 1.25D-05

 Cycle  10  Pass 1  IDiag  1:
 E= -706.436653628510     Delta-E=       -0.000000000806 Rises=F Damp=F
 DIIS: error= 2.12D-07 at cycle  10 NSaved=  10.
 NSaved=10 IEnMin=10 EnMin= -706.436653628510     IErMin=10 ErrMin= 2.12D-07
 ErrMax= 2.12D-07  0.00D+00 EMaxC= 1.00D-01 BMatC= 8.76D-12 BMatP= 7.77D-10
 IDIUse=1 WtCom= 1.00D+00 WtEn= 0.00D+00
 Coeff-Com: -0.563D-05 0.217D-03 0.677D-04-0.605D-03-0.241D-02-0.115D-01
 Coeff-Com: -0.557D-02 0.270D-01 0.148D+00 0.845D+00
 Coeff:     -0.563D-05 0.217D-03 0.677D-04-0.605D-03-0.241D-02-0.115D-01
 Coeff:     -0.557D-02 0.270D-01 0.148D+00 0.845D+00
 Gap=     0.200 Goal=   None    Shift=    0.000
 RMSDP=1.25D-07 MaxDP=4.55D-06 DE=-8.06D-10 OVMax= 2.98D-06

 Cycle  11  Pass 1  IDiag  1:
 E= -706.436653628529     Delta-E=       -0.000000000019 Rises=F Damp=F
 DIIS: error= 5.28D-08 at cycle  11 NSaved=  11.
 NSaved=11 IEnMin=11 EnMin= -706.436653628529     IErMin=11 ErrMin= 5.28D-08
 ErrMax= 5.28D-08  0.00D+00 EMaxC= 1.00D-01 BMatC= 4.28D-13 BMatP= 8.76D-12
 IDIUse=1 WtCom= 1.00D+00 WtEn= 0.00D+00
 Coeff-Com: -0.176D-05 0.376D-04 0.294D-04-0.159D-04-0.203D-03-0.107D-02
 Coeff-Com: -0.349D-02-0.653D-02-0.548D-02 0.143D+00 0.874D+00
 Coeff:     -0.176D-05 0.376D-04 0.294D-04-0.159D-04-0.203D-03-0.107D-02
 Coeff:     -0.349D-02-0.653D-02-0.548D-02 0.143D+00 0.874D+00
 Gap=     0.200 Goal=   None    Shift=    0.000
 RMSDP=3.21D-08 MaxDP=1.16D-06 DE=-1.90D-11 OVMax= 8.95D-07

 Cycle  12  Pass 1  IDiag  1:
 E= -706.436653628526     Delta-E=        0.000000000003 Rises=F Damp=F
 DIIS: error= 1.44D-08 at cycle  12 NSaved=  12.
 NSaved=12 IEnMin=11 EnMin= -706.436653628529     IErMin=12 ErrMin= 1.44D-08
 ErrMax= 1.44D-08  0.00D+00 EMaxC= 1.00D-01 BMatC= 5.88D-14 BMatP= 4.28D-13
 IDIUse=1 WtCom= 1.00D+00 WtEn= 0.00D+00
 Coeff-Com: -0.978D-07-0.671D-05 0.296D-05 0.422D-04 0.131D-03 0.635D-03
 Coeff-Com: -0.643D-03-0.444D-02-0.140D-01-0.243D-01 0.281D+00 0.762D+00
 Coeff:     -0.978D-07-0.671D-05 0.296D-05 0.422D-04 0.131D-03 0.635D-03
 Coeff:     -0.643D-03-0.444D-02-0.140D-01-0.243D-01 0.281D+00 0.762D+00
 Gap=     0.200 Goal=   None    Shift=    0.000
 RMSDP=7.51D-09 MaxDP=2.37D-07 DE= 2.84D-12 OVMax= 2.28D-07

 Error on total polarization charges =  0.02270
 SCF Done:  E(RB3LYP) =  -706.436653629     A.U. after   12 cycles
            NFock= 12  Conv=0.75D-08     -V/T= 2.0056
 KE= 7.024980970363D+02 PE=-2.175919102262D+03 EE= 5.182458218560D+02
 SMD-CDS (non-electrostatic) energy       (kcal/mol) =      -0.76
 (included in total energy above)
 Leave Link  502 at Wed Jan  8 00:53:13 2020, MaxMem=  4294967296 cpu:             445.9 elap:              31.3
 (Enter /home/cwagen/sw/g16/g16/l701.exe)
 ... and contract with generalized density number  0.
 Compute integral first derivatives.
 D1PCM: PCM CHGder 1st derivatives, ID1Alg=3 FixD1E=F DoIter=F DoCFld=F I1PDM=0.
 GePol: Maximum number of non-zero 1st derivatives   =     370
 Leave Link  701 at Wed Jan  8 00:53:17 2020, MaxMem=  4294967296 cpu:              54.0 elap:               3.7
 (Enter /home/cwagen/sw/g16/g16/l702.exe)
 L702 exits ... SP integral derivatives will be done elsewhere.
 Leave Link  702 at Wed Jan  8 00:53:17 2020, MaxMem=  4294967296 cpu:               1.2 elap:               0.1
 (Enter /home/cwagen/sw/g16/g16/l703.exe)
 Integral derivatives from FoFJK, PRISM(SPDF).
 Compute integral first derivatives, UseDBF=F ICtDFT=           0.
 Calling FoFJK, ICntrl=      2127 FMM=F ISym2X=0 I1Cent= 0 IOpClX= 0 NMat=1 NMatS=1 NMatT=0.
 FoFJK:  IHMeth= 1 ICntrl=    2127 DoSepK=F KAlg= 0 I1Cent=           0 FoldK=F
 IRaf=         0 NMat=       1 IRICut=       1 DoRegI=T DoRafI=F ISym2E= 0 IDoP0=0 IntGTp=1.
 FoFCou: FMM=F IPFlag=           0 FMFlag=      100000 FMFlg1=         800
         NFxFlg=           0 DoJE=F BraDBF=F KetDBF=F FulRan=T
         wScrn=  0.000000 ICntrl=      2127 IOpCl=  0 I1Cent=           0 NGrid=           0
         NMat0=    1 NMatS0=      1 NMatT0=    0 NMatD0=    1 NMtDS0=    0 NMtDT0=    0
 Symmetry not used in FoFCou.
 Leave Link  703 at Wed Jan  8 00:53:20 2020, MaxMem=  4294967296 cpu:              35.6 elap:               2.4
 (Enter /home/cwagen/sw/g16/g16/l716.exe)
 Dipole        = 5.81024679D-01 1.47356566D+00-1.21225872D+00
 ***** Axes restored to original set *****
 -------------------------------------------------------------------
 Center     Atomic                   Forces (Hartrees/Bohr)
 Number     Number              X              Y              Z
 -------------------------------------------------------------------
      1        6           0.020402975   -0.038641439   -0.031504419
      2        8          -0.007918094    0.011544312    0.023785821
      3        6          -0.011792611    0.015966416    0.000232133
      4        1           0.000642454   -0.000151171   -0.001084162
      5        1           0.002135072    0.001355302   -0.001132759
      6        1           0.002160553   -0.000932510   -0.000469481
      7       17           0.000084835    0.001284727    0.003141260
      8        6          -0.002049891    0.009298523    0.008065460
      9        7          -0.003665293    0.000275840   -0.001033853
 -------------------------------------------------------------------
 Cartesian Forces:  Max     0.038641439 RMS     0.012553025
 Leave Link  716 at Wed Jan  8 00:53:20 2020, MaxMem=  4294967296 cpu:               1.2 elap:               0.1
 (Enter /home/cwagen/sw/g16/g16/l103.exe)

 GradGradGradGradGradGradGradGradGradGradGradGradGradGradGradGradGradGrad
 Berny optimization.
 Using GEDIIS/GDIIS optimizer.
 FormGI is forming the generalized inverse of G from B-inverse, IUseBI=4.
 Internal  Forces:  Max     0.024473319 RMS     0.006972730
 Search for a local minimum.
 Step number   2 out of a maximum of   41
 All quantities printed in internal units (Hartrees-Bohrs-Radians)
 RMS Force = .72013D-02 SwitMx=.10000D-02 MixMth= 1
 Mixed Optimization -- RFO/linear search
 Update second derivatives using D2CorX and points    1    2
 DE= -1.99D-02 DEPred=-2.03D-02 R= 9.78D-01
 TightC=F SS=  1.41D+00  RLast= 4.06D-01 DXNew= 5.0454D-01 1.2169D+00
 Trust test= 9.78D-01 RLast= 4.06D-01 DXMaxT set to 5.05D-01
 ITU=  1  0
 Use linear search instead of GDIIS.
     Eigenvalues ---    0.00230   0.04686   0.04795   0.05367   0.05919
     Eigenvalues ---    0.07024   0.09498   0.15971   0.16000   0.16312
     Eigenvalues ---    0.24309   0.25000   0.25689   0.30335   0.33984
     Eigenvalues ---    0.34001   0.34490   0.62819   1.218801000.00000
     Eigenvalues --- 1000.000001000.000001000.000001000.000001000.00000
     Eigenvalues --- 1000.000001000.000001000.000001000.000001000.00000
     Eigenvalues --- 1000.00000
 RFO step:  Lambda=-7.30217382D-03 EMin= 2.30442759D-03
 Quartic linear search produced a step of  0.64021.
 Iteration  1 RMS(Cart)=  0.11546534 RMS(Int)=  0.01151793
 Iteration  2 RMS(Cart)=  0.01076741 RMS(Int)=  0.00834236
 Iteration  3 RMS(Cart)=  0.00003224 RMS(Int)=  0.00834230
 Iteration  4 RMS(Cart)=  0.00000091 RMS(Int)=  0.00834230
 Iteration  1 RMS(Cart)=  0.00000000 RMS(Int)=  0.00000000
 ITry= 1 IFail=0 DXMaxC= 3.28D-01 DCOld= 1.00D+10 DXMaxT= 5.05D-01 DXLimC= 3.00D+00 Rises=F
 Variable       Old X    -DE/DX   Delta X   Delta X   Delta X     New X
                                 (Linear)    (Quad)   (Total)
    R1        2.39842  -0.02447  -0.03448  -0.02998  -0.06446   2.33396
    R2        2.92742  -0.01208  -0.01127  -0.06239  -0.07366   2.85376
    R3        4.34637   0.00181   0.00000   0.00000   0.00000   4.34637
    R4        2.83459  -0.00002   0.00000   0.00000   0.00000   2.83459
    R5        2.07042  -0.00097  -0.00185  -0.00302  -0.00487   2.06556
    R6        2.07457  -0.00235  -0.00008  -0.01121  -0.01128   2.06328
    R7        2.06548   0.00222  -0.00205   0.01231   0.01026   2.07574
    R8        2.20257  -0.00351  -0.00426  -0.00117  -0.00544   2.19713
    A1        2.06610   0.00727   0.04445   0.02638   0.04839   2.11450
    A2        1.93998  -0.00144  -0.05064  -0.00462  -0.05276   1.88722
    A3        1.93725   0.00274   0.02872   0.09030   0.09105   2.02830
    A4        1.80740  -0.01111  -0.07477  -0.05615  -0.12558   1.68182
    A5        1.93424   0.00598   0.10391  -0.02210   0.05934   1.99358
    A6        1.74805  -0.00696  -0.05553  -0.05953  -0.10585   1.64220
    A7        1.96620  -0.00005  -0.00498   0.00422  -0.00093   1.96527
    A8        1.91705  -0.00164   0.02409  -0.03712  -0.01299   1.90406
    A9        1.86596  -0.00091  -0.02269   0.01031  -0.01247   1.85349
   A10        1.89942   0.00129  -0.00265   0.01870   0.01601   1.91543
   A11        1.91559   0.00019   0.00462  -0.00521  -0.00090   1.91469
   A12        1.89852   0.00113   0.00190   0.00894   0.01100   1.90951
   A13        3.03013   0.00328  -0.04508   0.15220   0.10713   3.13726
   A14        3.00862  -0.00051   0.05356  -0.07831  -0.02475   2.98386
    D1       -3.11136   0.00755   0.08113   0.05756   0.14385  -2.96751
    D2       -0.99093   0.00800   0.09132   0.05796   0.15444  -0.83649
    D3        1.06617   0.00795   0.09412   0.05462   0.15371   1.21988
    D4       -0.95562   0.00140  -0.01842   0.02323   0.00699  -0.94863
    D5        1.16482   0.00184  -0.00822   0.02364   0.01757   1.18239
    D6       -3.06127   0.00179  -0.00542   0.02030   0.01684  -3.04443
    D7        0.90498  -0.00950  -0.06801  -0.07846  -0.15359   0.75140
    D8        3.02542  -0.00905  -0.05781  -0.07805  -0.14300   2.88242
    D9       -1.20067  -0.00910  -0.05501  -0.08140  -0.14373  -1.34440
         Item               Value     Threshold  Converged?
 Maximum Force            0.024473     0.000450     NO 
 RMS     Force            0.007201     0.000300     NO 
 Maximum Displacement     0.328391     0.001800     NO 
 RMS     Displacement     0.114645     0.001200     NO 
 Predicted change in Energy=-7.304706D-03
 Lowest energy point so far.  Saving SCF results.
 GradGradGradGradGradGradGradGradGradGradGradGradGradGradGradGradGradGrad

 Leave Link  103 at Wed Jan  8 00:53:24 2020, MaxMem=  4294967296 cpu:              61.4 elap:               4.1
 (Enter /home/cwagen/sw/g16/g16/l202.exe)
                          Input orientation:                          
 ---------------------------------------------------------------------
 Center     Atomic      Atomic             Coordinates (Angstroms)
 Number     Number       Type             X           Y           Z
 ---------------------------------------------------------------------
      1          6           0       -0.021073   -0.474624   -0.264579
      2          8           0       -0.300412   -0.678366   -1.450274
      3          6           0       -0.394825   -1.469621    0.808189
      4          1           0       -0.240573   -1.077673    1.816818
      5          1           0       -1.440306   -1.757151    0.680058
      6          1           0        0.247024   -2.346786    0.649557
      7         17           0       -1.352930    1.237329    0.500517
      8          6           0        1.259686    0.260897   -0.002541
      9          7           0        2.294936    0.782351    0.087737
 ---------------------------------------------------------------------
                    Distance matrix (angstroms):
                    1          2          3          4          5
     1  C    0.000000
     2  O    1.235077   0.000000
     3  C    1.510145   2.394922   0.000000
     4  H    2.178086   3.291947   1.093046   0.000000
     5  H    2.133409   2.646025   1.091843   1.786972   0.000000
     6  H    2.100597   2.737262   1.098432   1.791897   1.787647
     7  Cl   2.300000   2.929722   2.887941   2.886038   3.001129
     8  C    1.500000   2.326382   2.527723   2.711571   3.439246
     9  N    2.658573   3.351866   3.581234   3.588623   4.555430
                    6          7          8          9
     6  H    0.000000
     7  Cl   3.927842   0.000000
     8  C    2.872408   2.834123   0.000000
     9  N    3.781677   3.699232   1.162672   0.000000
 Stoichiometry    C3H3ClNO(1-)
 Framework group  C1[X(C3H3ClNO)]
 Deg. of freedom    21
 Full point group                 C1      NOp   1
 RotChk:  IX=0 Diff= 2.11D-01
 Largest Abelian subgroup         C1      NOp   1
 Largest concise Abelian subgroup C1      NOp   1
                         Standard orientation:                         
 ---------------------------------------------------------------------
 Center     Atomic      Atomic             Coordinates (Angstroms)
 Number     Number       Type             X           Y           Z
 ---------------------------------------------------------------------
      1          6           0        0.303127    0.576333    0.197913
      2          8           0        0.326174    1.030621    1.346175
      3          6           0        0.003618    1.463114   -0.987183
      4          1           0       -0.152671    0.895203   -1.907943
      5          1           0       -0.881925    2.063490   -0.769275
      6          1           0        0.873282    2.124071   -1.102834
      7         17           0       -1.558320   -0.759091   -0.006187
      8          6           0        1.265688   -0.536492   -0.093798
      9          7           0        2.086967   -1.348703   -0.226538
 ---------------------------------------------------------------------
 Rotational constants (GHZ):           3.3166996           2.3368013           1.8368537
 Leave Link  202 at Wed Jan  8 00:53:24 2020, MaxMem=  4294967296 cpu:               2.3 elap:               0.2
 (Enter /home/cwagen/sw/g16/g16/l301.exe)
 Standard basis: 6-31+G(d) (6D, 7F)
 Ernie: Thresh=  0.10000D-02 Tol=  0.10000D-05 Strict=F.
 There are   124 symmetry adapted cartesian basis functions of A   symmetry.
 There are   124 symmetry adapted basis functions of A   symmetry.
   124 basis functions,   228 primitive gaussians,   124 cartesian basis functions
    27 alpha electrons       27 beta electrons
       nuclear repulsion energy       253.1660166084 Hartrees.
 IExCor=  402 DFT=T Ex+Corr=B3LYP ExCW=0 ScaHFX=  0.200000
 ScaDFX=  0.800000  0.720000  1.000000  0.810000 ScalE2=  1.000000  1.000000
 IRadAn=      5 IRanWt=     -1 IRanGd=            0 ICorTp=0 IEmpDi=  4
 NAtoms=    9 NActive=    9 NUniq=    9 SFac= 1.00D+00 NAtFMM=   60 NAOKFM=F Big=F
 Integral buffers will be    131072 words long.
 Raffenetti 2 integral format.
 Two-electron integral symmetry is turned on.
 ------------------------------------------------------------------------------
 Polarizable Continuum Model (PCM)
 =================================
 Model                : PCM.
 Atomic radii         : SMD-Coulomb.
 Polarization charges : Total charges.
 Charge compensation  : None.
 Solution method      : On-the-fly selection.
 Cavity type          : VdW (van der Waals Surface) (Alpha=1.000).
 Cavity algorithm     : GePol (No added spheres)
                        Default sphere list used, NSphG=    9.
                        Lebedev-Laikov grids with approx.  5.0 points / Ang**2.
                        Smoothing algorithm: York/Karplus (Gamma=1.0000).
                        Polarization charges: spherical gaussians, with
                                              point-specific exponents (IZeta= 3).
                        Self-potential: point-specific (ISelfS= 7).
                        Self-field    : sphere-specific E.n sum rule (ISelfD= 2).
 1st derivatives      : Analytical E(r).r(x)/FMM algorithm (CHGder, D1EAlg=3).
                        Cavity 1st derivative terms included.
 Solvent              : TetraHydroFuran, Eps=   7.425700 Eps(inf)=   1.974025
 ------------------------------------------------------------------------------
 Spheres list:
 ISph  on   Nord     Re0    Alpha      Xe            Ye            Ze
    1   C      1    1.8500  1.000      0.303127      0.576333      0.197913
    2   O      2    2.2940  1.000      0.326174      1.030621      1.346175
    3   C      3    1.8500  1.000      0.003618      1.463114     -0.987183
    4   H      4    1.2000  1.000     -0.152671      0.895203     -1.907943
    5   H      5    1.2000  1.000     -0.881925      2.063490     -0.769275
    6   H      6    1.2000  1.000      0.873282      2.124071     -1.102834
    7  Cl      7    2.3800  1.000     -1.558320     -0.759091     -0.006187
    8   C      8    1.8500  1.000      1.265688     -0.536492     -0.093798
    9   N      9    1.8900  1.000      2.086967     -1.348703     -0.226538
 ------------------------------------------------------------------------------
 GePol: Number of generator spheres                  =       9
 GePol: Total number of spheres                      =       9
 GePol: Number of exposed spheres                    =       9 (100.00%)
 GePol: Number of points                             =    1139
 GePol: Average weight of points                     =       0.14
 GePol: Minimum weight of points                     =   0.27D-08
 GePol: Maximum weight of points                     =    0.18138
 GePol: Number of points with low weight             =      34
 GePol: Fraction of low-weight points (<1% of avg)   =       2.99%
 GePol: Cavity surface area                          =    154.786 Ang**2
 GePol: Cavity volume                                =    142.887 Ang**3
 ------------------------------------------------------------------------------
 Atomic radii for non-electrostatic terms: SMD-CDS.
 ------------------------------------------------------------------------------
 PCM non-electrostatic energy =        -0.0012062760 Hartrees.
 Nuclear repulsion after PCM non-electrostatic terms =      253.1648103324 Hartrees.
 Leave Link  301 at Wed Jan  8 00:53:24 2020, MaxMem=  4294967296 cpu:               2.5 elap:               0.2
 (Enter /home/cwagen/sw/g16/g16/l302.exe)
 NPDir=0 NMtPBC=     1 NCelOv=     1 NCel=       1 NClECP=     1 NCelD=      1
         NCelK=      1 NCelE2=     1 NClLst=     1 CellRange=     0.0.
 One-electron integrals computed using PRISM.
 One-electron integral symmetry used in STVInt
 NBasis=   124 RedAO= T EigKep=  3.16D-05  NBF=   124
 NBsUse=   124 1.00D-06 EigRej= -1.00D+00 NBFU=   124
 Precomputing XC quadrature grid using
 IXCGrd= 4 IRadAn=           5 IRanWt=          -1 IRanGd=           0 AccXCQ= 0.00D+00.
 Generated NRdTot=       0 NPtTot=           0 NUsed=           0 NTot=          32
 NSgBfM=   124   124   124   124   124 MxSgAt=     9 MxSgA2=     9.
[...]
      4        1           0.000001591   -0.000009693   -0.000003092
      5        1           0.000008851    0.000007466    0.000006109
      6        1           0.000014363   -0.000002035   -0.000006736
      7       17          -0.009708234    0.013210155    0.005870965
      8        6           0.000819172    0.000505222    0.000156432
      9        7          -0.000010997   -0.000002468   -0.000015613
 -------------------------------------------------------------------
 Cartesian Forces:  Max     0.013692390 RMS     0.004742586
 Leave Link  716 at Wed Jan  8 00:57:08 2020, MaxMem=  4294967296 cpu:               1.0 elap:               0.1
 (Enter /home/cwagen/sw/g16/g16/l103.exe)

 GradGradGradGradGradGradGradGradGradGradGradGradGradGradGradGradGradGrad
 Berny optimization.
 Using GEDIIS/GDIIS optimizer.
 FormGI is forming the generalized inverse of G from B-inverse, IUseBI=4.
 Internal  Forces:  Max     0.017409490 RMS     0.003131721
 Search for a local minimum.
 Step number   7 out of a maximum of   41
 All quantities printed in internal units (Hartrees-Bohrs-Radians)
 RMS Force = .17562D-04 SwitMx=.10000D-02 MixMth= 2
 Mixed Optimization -- En-DIIS/RFO-DIIS
 Swapping is turned off.
 Update second derivatives using D2CorX and points    2    3    4    5    6
                                                      7
 DE= -1.79D-07 DEPred=-2.64D-07 R= 6.77D-01
 Trust test= 6.77D-01 RLast= 4.26D-03 DXMaxT set to 8.49D-01
 ITU=  0  1  1  1  1  1  0
     Eigenvalues ---    0.00240   0.05065   0.05119   0.05759   0.05780
     Eigenvalues ---    0.06338   0.07786   0.15307   0.16199   0.16889
     Eigenvalues ---    0.21930   0.24281   0.27320   0.32425   0.34030
     Eigenvalues ---    0.34321   0.34529   0.65333   1.219031000.00000
     Eigenvalues --- 1000.000001000.000001000.000001000.000001000.00000
     Eigenvalues --- 1000.000001000.000001000.000001000.000001000.00000
     Eigenvalues --- 1000.00000
 En-DIIS/RFO-DIIS/Sim-DIIS IScMMF=       -3 using points:     7    6    5    4
 RFO step:  Lambda=-3.51430119D-07.
 NNeg= 0 NGDIIS= 4 SimSw=  2.50D-01 Rises=F DC= -1.79D-07 SmlDif=  1.00D-05
 NRisDI= 0 DoIntr=F SqrtH=F CThrHd= 10.0 CDAdj=  3.0
 RMS Error=  0.1686271917D-03 NUsed= 4 OKEnD=F EnDIS=F
 InvSVX:  RCond= 1.58D-06 Info=           0 Equed=N FErr=  1.81D-15 BErr=  4.87D-17
 DidBck=F Rises=F RFO-DIIS coefs:    0.86999    0.15912   -0.04450    0.01539
 Iteration  1 RMS(Cart)=  0.00027595 RMS(Int)=  0.00000004
 Iteration  2 RMS(Cart)=  0.00000004 RMS(Int)=  0.00000002
 Iteration  1 RMS(Cart)=  0.00000000 RMS(Int)=  0.00000000
 ITry= 1 IFail=0 DXMaxC= 7.14D-04 DCOld= 1.00D+10 DXMaxT= 8.49D-01 DXLimC= 3.00D+00 Rises=F
 Variable       Old X    -DE/DX   Delta X   Delta X   Delta X     New X
                                 (Linear)    (Quad)   (Total)
    R1        2.34037  -0.00004   0.00003  -0.00010  -0.00007   2.34030
    R2        2.87320   0.00001  -0.00004   0.00011   0.00007   2.87326
    R3        4.34637   0.01741   0.00000   0.00000   0.00000   4.34637
    R4        2.83459   0.00097   0.00000   0.00000   0.00000   2.83459
    R5        2.06391  -0.00001   0.00001  -0.00003  -0.00002   2.06388
    R6        2.06565  -0.00001  -0.00001  -0.00002  -0.00002   2.06562
    R7        2.07823   0.00001   0.00000   0.00001   0.00001   2.07824
    R8        2.20015  -0.00001  -0.00001   0.00000  -0.00001   2.20014
    A1        2.12657  -0.00002   0.00003  -0.00014  -0.00012   2.12645
    A2        1.90402   0.00004  -0.00008   0.00028   0.00020   1.90422
    A3        2.03031   0.00000  -0.00001  -0.00001  -0.00002   2.03029
    A4        1.70040  -0.00006  -0.00003  -0.00020  -0.00023   1.70016
    A5        1.98316   0.00002   0.00000   0.00007   0.00006   1.98322
    A6        1.59363   0.00003   0.00008   0.00010   0.00018   1.59381
    A7        1.96768   0.00001  -0.00002   0.00015   0.00012   1.96780
    A8        1.90624  -0.00002   0.00001  -0.00019  -0.00018   1.90606
    A9        1.87449   0.00000  -0.00001   0.00001  -0.00001   1.87449
   A10        1.91617   0.00000   0.00002  -0.00011  -0.00009   1.91608
   A11        1.90173   0.00000   0.00000   0.00008   0.00007   1.90180
   A12        1.89591   0.00001   0.00001   0.00007   0.00008   1.89599
   A13        3.08601  -0.00002  -0.00037   0.00019  -0.00018   3.08583
   A14        2.99035   0.00000  -0.00016   0.00003  -0.00012   2.99023
    D1       -2.98867   0.00001   0.00017   0.00012   0.00029  -2.98838
    D2       -0.85354   0.00000   0.00019  -0.00006   0.00013  -0.85341
    D3        1.19948   0.00000   0.00020  -0.00007   0.00013   1.19961
    D4       -0.92944   0.00000   0.00006   0.00024   0.00031  -0.92913
    D5        1.20570  -0.00001   0.00008   0.00007   0.00014   1.20585
    D6       -3.02447   0.00000   0.00009   0.00006   0.00015  -3.02433
    D7        0.72359   0.00001   0.00014   0.00028   0.00042   0.72401
    D8        2.85873   0.00000   0.00015   0.00010   0.00025   2.85899
    D9       -1.37144   0.00000   0.00017   0.00009   0.00026  -1.37119
         Item               Value     Threshold  Converged?
 Maximum Force            0.000057     0.000450     YES
 RMS     Force            0.000018     0.000300     YES
 Maximum Displacement     0.000714     0.001800     YES
 RMS     Displacement     0.000276     0.001200     YES
 Predicted change in Energy=-2.365792D-08
 Optimization completed.
    -- Stationary point found.
                           ----------------------------
                           !   Optimized Parameters   !
                           ! (Angstroms and Degrees)  !
 --------------------------                            --------------------------
 ! Name  Definition              Value          Derivative Info.                !
 --------------------------------------------------------------------------------
 ! R1    R(1,2)                  1.2385         -DE/DX =    0.0                 !
 ! R2    R(1,3)                  1.5204         -DE/DX =    0.0                 !
 ! R3    R(1,7)                  2.3            -DE/DX =    0.0174              !
 ! R4    R(1,8)                  1.5            -DE/DX =    0.001               !
 ! R5    R(3,4)                  1.0922         -DE/DX =    0.0                 !
 ! R6    R(3,5)                  1.0931         -DE/DX =    0.0                 !
 ! R7    R(3,6)                  1.0998         -DE/DX =    0.0                 !
 ! R8    R(8,9)                  1.1643         -DE/DX =    0.0                 !
 ! A1    A(2,1,3)              121.8432         -DE/DX =    0.0                 !
 ! A2    A(2,1,7)              109.0926         -DE/DX =    0.0                 !
 ! A3    A(2,1,8)              116.3281         -DE/DX =    0.0                 !
 ! A4    A(3,1,7)               97.4257         -DE/DX =   -0.0001              !
 ! A5    A(3,1,8)              113.6265         -DE/DX =    0.0                 !
 ! A6    A(7,1,8)               91.3081         -DE/DX =    0.0                 !
 ! A7    A(1,3,4)              112.7396         -DE/DX =    0.0                 !
 ! A8    A(1,3,5)              109.2192         -DE/DX =    0.0                 !
 ! A9    A(1,3,6)              107.4004         -DE/DX =    0.0                 !
 ! A10   A(4,3,5)              109.7885         -DE/DX =    0.0                 !
 ! A11   A(4,3,6)              108.9611         -DE/DX =    0.0                 !
 ! A12   A(5,3,6)              108.6276         -DE/DX =    0.0                 !
 ! A13   L(1,8,9,6,-1)         176.8151         -DE/DX =    0.0                 !
 ! A14   L(1,8,9,6,-2)         171.3343         -DE/DX =    0.0                 !
 ! D1    D(2,1,3,4)           -171.2384         -DE/DX =    0.0                 !
 ! D2    D(2,1,3,5)            -48.904          -DE/DX =    0.0                 !
 ! D3    D(2,1,3,6)             68.7249         -DE/DX =    0.0                 !
 ! D4    D(7,1,3,4)            -53.2528         -DE/DX =    0.0                 !
 ! D5    D(7,1,3,5)             69.0816         -DE/DX =    0.0                 !
 ! D6    D(7,1,3,6)           -173.2895         -DE/DX =    0.0                 !
 ! D7    D(8,1,3,4)             41.4588         -DE/DX =    0.0                 !
 ! D8    D(8,1,3,5)            163.7932         -DE/DX =    0.0                 !
 ! D9    D(8,1,3,6)            -78.5779         -DE/DX =    0.0                 !
 --------------------------------------------------------------------------------
 Lowest energy point so far.  Saving SCF results.
 Largest change from initial coordinates is atom    6       0.096 Angstoms.
 GradGradGradGradGradGradGradGradGradGradGradGradGradGradGradGradGradGrad

 Leave Link  103 at Wed Jan  8 00:57:11 2020, MaxMem=  4294967296 cpu:              34.1 elap:               2.5
 (Enter /home/cwagen/sw/g16/g16/l202.exe)
                          Input orientation:                          
 ---------------------------------------------------------------------
 Center     Atomic      Atomic             Coordinates (Angstroms)
 Number     Number       Type             X           Y           Z
 ---------------------------------------------------------------------
      1          6           0       -0.033719   -0.476728   -0.281026
      2          8           0       -0.305034   -0.683048   -1.471666
      3          6           0       -0.389261   -1.476741    0.807676
      4          1           0       -0.222421   -1.083582    1.812878
      5          1           0       -1.435126   -1.774117    0.695493
      6          1           0        0.245553   -2.362641    0.660553
      7         17           0       -1.314719    1.270731    0.490611
      8          6           0        1.229893    0.284328   -0.008857
      9          7           0        2.276362    0.778155    0.119819
 ---------------------------------------------------------------------
                    Distance matrix (angstroms):
                    1          2          3          4          5
     1  C    0.000000
     2  O    1.238468   0.000000
     3  C    1.520430   2.415046   0.000000
     4  H    2.188222   3.309907   1.092172   0.000000
     5  H    2.144935   2.676587   1.093093   1.787748   0.000000
     6  H    2.126319   2.769574   1.099751   1.784052   1.781085
     7  Cl   2.300000   2.947415   2.916438   2.912782   3.054108
     8  C    1.500000   2.330585   2.527796   2.701687   3.440296
     9  N    2.659301   3.366236   3.558546   3.546326   4.540995
                    6          7          8          9
     6  H    0.000000
     7  Cl   3.957868   0.000000
     8  C    2.902324   2.774439   0.000000
     9  N    3.779045   3.643622   1.164268   0.000000
 Stoichiometry    C3H3ClNO(1-)
 Framework group  C1[X(C3H3ClNO)]
 Deg. of freedom    21
 Full point group                 C1      NOp   1
 RotChk:  IX=0 Diff= 4.09D-15
 Largest Abelian subgroup         C1      NOp   1
 Largest concise Abelian subgroup C1      NOp   1
                         Standard orientation:                         
 ---------------------------------------------------------------------
 Center     Atomic      Atomic             Coordinates (Angstroms)
 Number     Number       Type             X           Y           Z
 ---------------------------------------------------------------------
      1          6           0        0.318105    0.582536    0.207064
      2          8           0        0.361273    1.046793    1.354411
      3          6           0        0.088337    1.467043   -1.008075
      4          1           0       -0.074326    0.893392   -1.923119
      5          1           0       -0.769702    2.118214   -0.822071
      6          1           0        0.983815    2.093072   -1.133214
      7         17           0       -1.568480   -0.715212   -0.008911
      8          6           0        1.202849   -0.597369   -0.066895
      9          7           0        1.996921   -1.433384   -0.228282
 ---------------------------------------------------------------------
 Rotational constants (GHZ):           3.2359363           2.3840455           1.8541544
 Leave Link  202 at Wed Jan  8 00:57:11 2020, MaxMem=  4294967296 cpu:               1.1 elap:               0.1
 (Enter /home/cwagen/sw/g16/g16/l601.exe)
 Copying SCF densities to generalized density rwf, IOpCl= 0 IROHF=0.

 **********************************************************************

            Population analysis using the SCF density.

 **********************************************************************

 Orbital symmetries:
       Occupied  (A) (A) (A) (A) (A) (A) (A) (A) (A) (A) (A) (A)
                 (A) (A) (A) (A) (A) (A) (A) (A) (A) (A) (A) (A)
                 (A) (A) (A)
       Virtual   (A) (A) (A) (A) (A) (A) (A) (A) (A) (A) (A) (A)
                 (A) (A) (A) (A) (A) (A) (A) (A) (A) (A) (A) (A)
                 (A) (A) (A) (A) (A) (A) (A) (A) (A) (A) (A) (A)
                 (A) (A) (A) (A) (A) (A) (A) (A) (A) (A) (A) (A)
                 (A) (A) (A) (A) (A) (A) (A) (A) (A) (A) (A) (A)
                 (A) (A) (A) (A) (A) (A) (A) (A) (A) (A) (A) (A)
                 (A) (A) (A) (A) (A) (A) (A) (A) (A) (A) (A) (A)
                 (A) (A) (A) (A) (A) (A) (A) (A) (A) (A) (A) (A)
                 (A)
 The electronic state is 1-A.
 Alpha  occ. eigenvalues -- -101.44347 -19.11114 -14.33074 -10.29230 -10.22276
 Alpha  occ. eigenvalues --  -10.16859  -9.35888  -7.11868  -7.11541  -7.11522
 Alpha  occ. eigenvalues --   -1.01253  -0.89523  -0.74297  -0.69849  -0.61971
 Alpha  occ. eigenvalues --   -0.46308  -0.42730  -0.41782  -0.38323  -0.36391
 Alpha  occ. eigenvalues --   -0.35839  -0.32694  -0.31892  -0.24364  -0.23967
 Alpha  occ. eigenvalues --   -0.23392  -0.22845
 Alpha virt. eigenvalues --   -0.02212   0.02603   0.03716   0.04627   0.05800
 Alpha virt. eigenvalues --    0.07085   0.07498   0.08865   0.09723   0.10355
 Alpha virt. eigenvalues --    0.10620   0.11421   0.12989   0.13805   0.14413
 Alpha virt. eigenvalues --    0.14578   0.16439   0.17655   0.19513   0.22077
 Alpha virt. eigenvalues --    0.24976   0.25254   0.25931   0.26310   0.28634
 Alpha virt. eigenvalues --    0.28841   0.29785   0.31648   0.34254   0.36136
 Alpha virt. eigenvalues --    0.39115   0.41563   0.45627   0.61242   0.62927
 Alpha virt. eigenvalues --    0.65946   0.67850   0.68925   0.70514   0.72605
 Alpha virt. eigenvalues --    0.73452   0.77549   0.78441   0.79872   0.83529
 Alpha virt. eigenvalues --    0.85364   0.88912   0.94810   0.96804   0.97454
 Alpha virt. eigenvalues --    0.98560   1.00039   1.02215   1.02979   1.05718
 Alpha virt. eigenvalues --    1.07277   1.11604   1.15581   1.18288   1.29665
 Alpha virt. eigenvalues --    1.33395   1.34410   1.37342   1.44438   1.46983
 Alpha virt. eigenvalues --    1.49605   1.55142   1.57174   1.66135   1.69320
 Alpha virt. eigenvalues --    1.73820   1.81240   1.84400   1.89834   1.96589
 Alpha virt. eigenvalues --    1.97737   1.98009   2.02909   2.08048   2.23675
 Alpha virt. eigenvalues --    2.26819   2.30024   2.32850   2.45064   2.56754
 Alpha virt. eigenvalues --    2.73612   2.83067   2.90419   2.99766   3.11299
 Alpha virt. eigenvalues --    3.28522   4.17113   4.23073   4.35520   4.36975
 Alpha virt. eigenvalues --    4.42547   4.74932
          Condensed to atoms (all electrons):
               1          2          3          4          5          6
     1  C    6.488571   0.657726   0.213123  -0.108382  -0.076427   0.001053
     2  O    0.657726   8.262431  -0.173748   0.009310  -0.000536  -0.005741
     3  C    0.213123  -0.173748   5.816984   0.386794   0.396790   0.351876
     4  H   -0.108382   0.009310   0.386794   0.480370  -0.022373  -0.028061
     5  H   -0.076427  -0.000536   0.396790  -0.022373   0.463039  -0.024737
     6  H    0.001053  -0.005741   0.351876  -0.028061  -0.024737   0.491098
     7  Cl   0.102299  -0.092988  -0.146443   0.003252  -0.006802   0.007157
     8  C   -1.353540  -0.201612  -0.215554   0.044088   0.026481  -0.025045
     9  N   -0.046411  -0.013624  -0.024280   0.000963   0.000251  -0.001309
               7          8          9
     1  C    0.102299  -1.353540  -0.046411
     2  O   -0.092988  -0.201612  -0.013624
     3  C   -0.146443  -0.215554  -0.024280
     4  H    0.003252   0.044088   0.000963
     5  H   -0.006802   0.026481   0.000251
     6  H    0.007157  -0.025045  -0.001309
     7  Cl  17.775450  -0.019618  -0.025231
     8  C   -0.019618   6.782007   0.534283
     9  N   -0.025231   0.534283   7.194084
 Mulliken charges:
               1
     1  C    0.121988
     2  O   -0.441218
     3  C   -0.605541
     4  H    0.234038
     5  H    0.244314
     6  H    0.233709
     7  Cl  -0.597076
     8  C    0.428510
     9  N   -0.618726
 Sum of Mulliken charges =  -1.00000
 Mulliken charges with hydrogens summed into heavy atoms:
               1
     1  C    0.121988
     2  O   -0.441218
     3  C    0.106522
     7  Cl  -0.597076
     8  C    0.428510
     9  N   -0.618726
 Electronic spatial extent (au):  <R**2>=            720.8575
 Charge=             -1.0000 electrons
 Dipole moment (field-independent basis, Debye):
    X=              1.4689    Y=              4.1802    Z=             -3.1375  Tot=              5.4292
 Quadrupole moment (field-independent basis, Debye-Ang):
   XX=            -62.2365   YY=            -53.4490   ZZ=            -50.0131
   XY=              1.9726   XZ=             -0.2329   YZ=             -5.3699
 Traceless Quadrupole moment (field-independent basis, Debye-Ang):
   XX=             -7.0036   YY=              1.7839   ZZ=              5.2198
   XY=              1.9726   XZ=             -0.2329   YZ=             -5.3699
 Octapole moment (field-independent basis, Debye-Ang**2):
  XXX=             -3.5351  YYY=             16.7582  ZZZ=             -5.8435  XYY=             -8.4069
  XXY=             24.4239  XXZ=              2.9824  XZZ=             -1.1816  YZZ=             -2.2811
  YYZ=             -3.0162  XYZ=             -3.3770
 Hexadecapole moment (field-independent basis, Debye-Ang**3):
 XXXX=           -564.9525 YYYY=           -374.4775 ZZZZ=           -193.3125 XXXY=             28.8508
 XXXZ=              6.6244 YYYX=             17.3592 YYYZ=             -8.5901 ZZZX=             -0.8706
 ZZZY=             -5.5122 XXYY=           -168.6593 XXZZ=           -117.1013 YYZZ=            -97.8616
 XXYZ=             -5.4096 YYXZ=              1.8855 ZZXY=             -0.8352
 N-N= 2.530593025798D+02 E-N=-2.184810277522D+03  KE= 7.026729478226D+02
 No NMR shielding tensors so no spin-rotation constants.
 Leave Link  601 at Wed Jan  8 00:57:12 2020, MaxMem=  4294967296 cpu:              13.3 elap:               1.0
 (Enter /home/cwagen/sw/g16/g16/l9999.exe)
 1\1\GINC-NODE004\FOpt\RB3LYP\6-31+G(d)\C3H3Cl1N1O1(1-)\CWAGEN\08-Jan-2
 020\0\\#p opt=modredundant b3lyp/6-31+g(d) scrf=(smd, solvent=tetrahyd
 rofuran)\\title\\-1,1\C,-0.033719462,-0.4767283496,-0.2810261974\O,-0.
 3050339041,-0.683048206,-1.4716664187\C,-0.3892610013,-1.4767412533,0.
 8076762517\H,-0.2224205715,-1.0835821191,1.8128778666\H,-1.4351261935,
 -1.7741170209,0.6954930509\H,0.2455525251,-2.3626409261,0.6605534571\C
 l,-1.3147190552,1.2707313779,0.4906113838\C,1.2298932896,0.2843281474,
 -0.0088574566\N,2.2763617828,0.7781550297,0.1198187426\\Version=AS64L-
 G16RevA.03\State=1-A\HF=-706.4436626\RMSD=9.840e-09\RMSF=4.743e-03\Dip
 ole=0.1376149,-1.9608958,0.8357165\Quadrupole=-5.5348724,3.2036646,2.3
 312078,0.4702724,0.144419,-4.0838564\PG=C01 [X(C3H3Cl1N1O1)]\\@


 MY DESCRIPTION OF EXPERIENCE IS NOT WHAT HAPPENS
 TO A MAN.  EXPERIENCE IS WHAT A MAN DOES WITH WHAT
 HAPPENS TO HIM.
                         - CHUCK KNOX, SEATTLE SEAHAWKS, 1985
 Job cpu time:       0 days  1 hours 12 minutes 31.3 seconds.
 Elapsed time:       0 days  0 hours  5 minutes 26.3 seconds.
 File lengths (MBytes):  RWF=     34 Int=      0 D2E=      0 Chk=      3 Scr=      1
 Normal termination of Gaussian 16 at Wed Jan  8 00:57:12 2020.
