 Entering Gaussian System, Link 0=g16
 Input=scan_320_230.gjf
 Output=scan_320_230.out
 Initial command:
 /home/cwagen/sw/g16/g16/l1.exe "/scratch/users/cwagen/cwagen_scan_320_230/Gau-36682.inp" -scrdir="/scratch/users/cwagen/cwagen_scan_320_230/"
 Entering Link 1 = /home/cwagen/sw/g16/g16/l1.exe PID=     36683.
  
 Copyright (c) 1988,1990,1992,1993,1995,1998,2003,2009,2016,
            Gaussian, Inc.  All Rights Reserved.
  
 This is part of the Gaussian(R) 16 program.  It is based on
 the Gaussian(R) 09 system (copyright 2009, Gaussian, Inc.),
 the Gaussian(R) 03 system (copyright 2003, Gaussian, Inc.),
 the Gaussian(R) 98 system (copyright 1998, Gaussian, Inc.),
 the Gaussian(R) 94 system (copyright 1995, Gaussian, Inc.),
 the Gaussian 92(TM) system (copyright 1992, Gaussian, Inc.),
 the Gaussian 90(TM) system (copyright 1990, Gaussian, Inc.),
 the Gaussian 88(TM) system (copyright 1988, Gaussian, Inc.),
 the Gaussian 86(TM) system (copyright 1986, Carnegie Mellon
 University), and the Gaussian 82(TM) system (copyright 1983,
 Carnegie Mellon University). Gaussian is a federally registered
 trademark of Gaussian, Inc.
  
 This software contains proprietary and confidential information,
 including trade secrets, belonging to Gaussian, Inc.
  
 This software is provided under written license and may be
 used, copied, transmitted, or stored only in accord with that
 written license.
  
 The following legend is applicable only to US Government
 contracts under FAR:
  
                    RESTRICTED RIGHTS LEGEND
  
 Use, reproduction and disclosure by the US Government is
 subject to restrictions as set forth in subparagraphs (a)
 and (c) of the Commercial Computer Software - Restricted
 Rights clause in FAR 52.227-19.
  
 Gaussian, Inc.
 340 Quinnipiac St., Bldg. 40, Wallingford CT 06492
  
  
 ---------------------------------------------------------------
 Warning -- This program may not be used in any manner that
 competes with the business of Gaussian, Inc. or will provide
 assistance to any competitor of Gaussian, Inc.  The licensee
 of this program is prohibited from giving any competitor of
 Gaussian, Inc. access to this program.  By using this program,
 the user acknowledges that Gaussian, Inc. is engaged in the
 business of creating and licensing software in the field of
 computational chemistry and represents and warrants to the
 licensee that it is not a competitor of Gaussian, Inc. and that
 it will not use this program in any manner prohibited above.
 ---------------------------------------------------------------
  

 Cite this work as:
 Gaussian 16, Revision A.03,
 M. J. Frisch, G. W. Trucks, H. B. Schlegel, G. E. Scuseria, 
 M. A. Robb, J. R. Cheeseman, G. Scalmani, V. Barone, 
 G. A. Petersson, H. Nakatsuji, X. Li, M. Caricato, A. V. Marenich, 
 J. Bloino, B. G. Janesko, R. Gomperts, B. Mennucci, H. P. Hratchian, 
 J. V. Ortiz, A. F. Izmaylov, J. L. Sonnenberg, D. Williams-Young, 
 F. Ding, F. Lipparini, F. Egidi, J. Goings, B. Peng, A. Petrone, 
 T. Henderson, D. Ranasinghe, V. G. Zakrzewski, J. Gao, N. Rega, 
 G. Zheng, W. Liang, M. Hada, M. Ehara, K. Toyota, R. Fukuda, 
 J. Hasegawa, M. Ishida, T. Nakajima, Y. Honda, O. Kitao, H. Nakai, 
 T. Vreven, K. Throssell, J. A. Montgomery, Jr., J. E. Peralta, 
 F. Ogliaro, M. J. Bearpark, J. J. Heyd, E. N. Brothers, K. N. Kudin, 
 V. N. Staroverov, T. A. Keith, R. Kobayashi, J. Normand, 
 K. Raghavachari, A. P. Rendell, J. C. Burant, S. S. Iyengar, 
 J. Tomasi, M. Cossi, J. M. Millam, M. Klene, C. Adamo, R. Cammi, 
 J. W. Ochterski, R. L. Martin, K. Morokuma, O. Farkas, 
 J. B. Foresman, and D. J. Fox, Gaussian, Inc., Wallingford CT, 2016.
 
 ******************************************
 Gaussian 16:  AS64L-G16RevA.03 25-Dec-2016
                 8-Jan-2020 
 ******************************************
 %nprocshared=16
 Will use up to   16 processors via shared memory.
 %mem=32GB
 ----------------------------------------------------------------------
 #p opt=modredundant b3lyp/6-31+g(d) scrf=(smd, solvent=tetrahydrofuran
 )
 ----------------------------------------------------------------------
 1/18=120,19=15,26=3,38=1/1,3;
 2/9=110,12=2,17=6,18=5,40=1/2;
 3/5=1,6=6,7=11,11=2,25=1,30=1,70=32201,71=1,72=20,74=-5/1,2,3;
 4//1;
 5/5=2,38=5,53=20/2;
 6/7=2,8=2,9=2,10=2,28=1/1;
 7//1,2,3,16;
 1/18=20,19=15,26=3/3(2);
 2/9=110/2;
 99//99;
 2/9=110/2;
 3/5=1,6=6,7=11,11=2,25=1,30=1,70=32205,71=1,72=20,74=-5/1,2,3;
 4/5=5,16=3,69=1/1;
 5/5=2,38=5,53=20/2;
 7//1,2,3,16;
 1/18=20,19=15,26=3/3(-5);
 2/9=110/2;
 6/7=2,8=2,9=2,10=2,19=2,28=1/1;
 99/9=1/99;
 Leave Link    1 at Wed Jan  8 02:48:48 2020, MaxMem=  4294967296 cpu:               3.0 elap:               0.2
 (Enter /home/cwagen/sw/g16/g16/l101.exe)
 -----
 title
 -----
 Symbolic Z-matrix:
 Charge = -1 Multiplicity = 1
 6                    -0.19426  -0.292    -0.21291 
 8                    -0.25532  -0.66526  -1.45426 
 6                    -0.33095  -1.45422   0.81632 
 1                    -0.18039  -1.13044   1.85373 
 1                    -1.34067  -1.87301   0.71427 
 1                     0.39707  -2.23395   0.57058 
 17                   -2.11023   2.13857   0.60038 
 6                     1.93812   0.4547    0.21766 
 7                     3.07269   0.735     0.24796 
 
 Add virtual bond connecting atoms C8         and C1         Dist= 4.35D+00.
 Add virtual bond connecting atoms Cl7        and C1         Dist= 6.05D+00.
 The following ModRedundant input section has been read:
 B       1       7 F                                                           
 B       1       8 F                                                           
 
 ITRead=  0  0  0  0  0  0  0  0  0
 MicOpt= -1 -1 -1 -1 -1 -1 -1 -1 -1
 NAtoms=      9 NQM=        9 NQMF=       0 NMMI=      0 NMMIF=      0
                NMic=       0 NMicF=      0.
                    Isotopes and Nuclear Properties:
 (Nuclear quadrupole moments (NQMom) in fm**2, nuclear magnetic moments (NMagM)
  in nuclear magnetons)

  Atom         1           2           3           4           5           6           7           8           9
 IAtWgt=          12          16          12           1           1           1          35          12          14
 AtmWgt=  12.0000000  15.9949146  12.0000000   1.0078250   1.0078250   1.0078250  34.9688527  12.0000000  14.0030740
 NucSpn=           0           0           0           1           1           1           3           0           2
 AtZEff=   0.0000000   0.0000000   0.0000000   0.0000000   0.0000000   0.0000000   0.0000000   0.0000000   0.0000000
 NQMom=    0.0000000   0.0000000   0.0000000   0.0000000   0.0000000   0.0000000  -8.1650000   0.0000000   2.0440000
 NMagM=    0.0000000   0.0000000   0.0000000   2.7928460   2.7928460   2.7928460   0.8218740   0.0000000   0.4037610
 AtZNuc=   6.0000000   8.0000000   6.0000000   1.0000000   1.0000000   1.0000000  17.0000000   6.0000000   7.0000000
 Leave Link  101 at Wed Jan  8 02:48:48 2020, MaxMem=  4294967296 cpu:               8.9 elap:               0.6
 (Enter /home/cwagen/sw/g16/g16/l103.exe)

 GradGradGradGradGradGradGradGradGradGradGradGradGradGradGradGradGradGrad
 Berny optimization.
 Initialization pass.
                           ----------------------------
                           !    Initial Parameters    !
                           ! (Angstroms and Degrees)  !
 --------------------------                            --------------------------
 ! Name  Definition              Value          Derivative Info.                !
 --------------------------------------------------------------------------------
 ! R1    R(1,2)                  1.2977         estimate D2E/DX2                !
 ! R2    R(1,3)                  1.5584         estimate D2E/DX2                !
 ! R3    R(1,7)                  3.2            Frozen                          !
 ! R4    R(1,8)                  2.3            Frozen                          !
 ! R5    R(3,4)                  1.0971         estimate D2E/DX2                !
 ! R6    R(3,5)                  1.0979         estimate D2E/DX2                !
 ! R7    R(3,6)                  1.0947         estimate D2E/DX2                !
 ! R8    R(8,9)                  1.1691         estimate D2E/DX2                !
 ! A1    A(2,1,3)              114.4006         estimate D2E/DX2                !
 ! A2    A(2,1,7)              115.6846         estimate D2E/DX2                !
 ! A3    A(2,1,8)              108.426          estimate D2E/DX2                !
 ! A4    A(3,1,7)              110.248          estimate D2E/DX2                !
 ! A5    A(3,1,8)              101.5248         estimate D2E/DX2                !
 ! A6    A(7,1,8)              105.1256         estimate D2E/DX2                !
 ! A7    A(1,3,4)              113.1005         estimate D2E/DX2                !
 ! A8    A(1,3,5)              107.683          estimate D2E/DX2                !
 ! A9    A(1,3,6)              108.9421         estimate D2E/DX2                !
 ! A10   A(4,3,5)              109.0662         estimate D2E/DX2                !
 ! A11   A(4,3,6)              109.3417         estimate D2E/DX2                !
 ! A12   A(5,3,6)              108.6067         estimate D2E/DX2                !
 ! A13   L(1,8,9,6,-1)         177.311          estimate D2E/DX2                !
 ! A14   L(1,8,9,6,-2)         165.397          estimate D2E/DX2                !
 ! D1    D(2,1,3,4)            174.4714         estimate D2E/DX2                !
 ! D2    D(2,1,3,5)            -64.9488         estimate D2E/DX2                !
 ! D3    D(2,1,3,6)             52.6633         estimate D2E/DX2                !
 ! D4    D(7,1,3,4)            -53.1046         estimate D2E/DX2                !
 ! D5    D(7,1,3,5)             67.4752         estimate D2E/DX2                !
 ! D6    D(7,1,3,6)           -174.9127         estimate D2E/DX2                !
 ! D7    D(8,1,3,4)             57.938          estimate D2E/DX2                !
 ! D8    D(8,1,3,5)            178.5177         estimate D2E/DX2                !
 ! D9    D(8,1,3,6)            -63.8702         estimate D2E/DX2                !
 --------------------------------------------------------------------------------
 Trust Radius=3.00D-01 FncErr=1.00D-07 GrdErr=1.00D-06 EigMax=2.50D+02 EigMin=1.00D-04
 Number of steps in this run=     41 maximum allowed number of steps=    100.
 GradGradGradGradGradGradGradGradGradGradGradGradGradGradGradGradGradGrad

 Leave Link  103 at Wed Jan  8 02:48:48 2020, MaxMem=  4294967296 cpu:               1.1 elap:               0.1
 (Enter /home/cwagen/sw/g16/g16/l202.exe)
                          Input orientation:                          
 ---------------------------------------------------------------------
 Center     Atomic      Atomic             Coordinates (Angstroms)
 Number     Number       Type             X           Y           Z
 ---------------------------------------------------------------------
      1          6           0       -0.194263   -0.291999   -0.212908
      2          8           0       -0.255321   -0.665256   -1.454255
      3          6           0       -0.330945   -1.454221    0.816316
      4          1           0       -0.180394   -1.130438    1.853734
      5          1           0       -1.340665   -1.873010    0.714272
      6          1           0        0.397068   -2.233949    0.570583
      7         17           0       -2.110228    2.138566    0.600376
      8          6           0        1.938117    0.454704    0.217661
      9          7           0        3.072688    0.735002    0.247964
 ---------------------------------------------------------------------
                    Distance matrix (angstroms):
                    1          2          3          4          5
     1  C    0.000000
     2  O    1.297687   0.000000
     3  C    1.558443   2.404928   0.000000
     4  H    2.230287   3.341377   1.097150   0.000000
     5  H    2.161827   2.709087   1.097876   1.787740   0.000000
     6  H    2.175937   2.643176   1.094698   1.788205   1.780629
     7  Cl   3.200000   3.940001   4.015046   3.997694   4.086312
     8  C    2.300000   2.976707   3.025066   3.110868   4.051578
     9  N    3.455446   3.991731   4.086617   4.079327   5.147510
                    6          7          8          9
     6  H    0.000000
     7  Cl   5.040467   0.000000
     8  C    3.119013   4.401246   0.000000
     9  N    4.009700   5.381153   1.169075   0.000000
 Stoichiometry    C3H3ClNO(1-)
 Framework group  C1[X(C3H3ClNO)]
 Deg. of freedom    21
 Full point group                 C1      NOp   1
 Largest Abelian subgroup         C1      NOp   1
 Largest concise Abelian subgroup C1      NOp   1
                         Standard orientation:                         
 ---------------------------------------------------------------------
 Center     Atomic      Atomic             Coordinates (Angstroms)
 Number     Number       Type             X           Y           Z
 ---------------------------------------------------------------------
      1          6           0        0.352540    0.709506    0.206693
      2          8           0        0.606364    1.287893    1.340286
      3          6           0        0.646384    1.589830   -1.045277
      4          1           0        0.516794    1.049615   -1.991381
      5          1           0       -0.043756    2.443356   -1.022213
      6          1           0        1.671725    1.967882   -0.981136
      7         17           0       -2.536687   -0.643103   -0.043943
      8          6           0        1.848799   -1.013323   -0.081525
      9          7           0        2.720239   -1.792475   -0.065696
 ---------------------------------------------------------------------
 Rotational constants (GHZ):           2.6084842           1.1673770           0.9521627
 Leave Link  202 at Wed Jan  8 02:48:49 2020, MaxMem=  4294967296 cpu:               2.1 elap:               0.2
 (Enter /home/cwagen/sw/g16/g16/l301.exe)
 Standard basis: 6-31+G(d) (6D, 7F)
 Ernie: Thresh=  0.10000D-02 Tol=  0.10000D-05 Strict=F.
 There are   124 symmetry adapted cartesian basis functions of A   symmetry.
 There are   124 symmetry adapted basis functions of A   symmetry.
   124 basis functions,   228 primitive gaussians,   124 cartesian basis functions
    27 alpha electrons       27 beta electrons
       nuclear repulsion energy       206.2901105702 Hartrees.
 IExCor=  402 DFT=T Ex+Corr=B3LYP ExCW=0 ScaHFX=  0.200000
 ScaDFX=  0.800000  0.720000  1.000000  0.810000 ScalE2=  1.000000  1.000000
 IRadAn=      5 IRanWt=     -1 IRanGd=            0 ICorTp=0 IEmpDi=  4
 NAtoms=    9 NActive=    9 NUniq=    9 SFac= 1.00D+00 NAtFMM=   60 NAOKFM=F Big=F
 Integral buffers will be    131072 words long.
 Raffenetti 2 integral format.
 Two-electron integral symmetry is turned on.
 ------------------------------------------------------------------------------
 Polarizable Continuum Model (PCM)
 =================================
 Model                : PCM.
 Atomic radii         : SMD-Coulomb.
 Polarization charges : Total charges.
 Charge compensation  : None.
 Solution method      : On-the-fly selection.
 Cavity type          : VdW (van der Waals Surface) (Alpha=1.000).
 Cavity algorithm     : GePol (No added spheres)
                        Default sphere list used, NSphG=    9.
                        Lebedev-Laikov grids with approx.  5.0 points / Ang**2.
                        Smoothing algorithm: York/Karplus (Gamma=1.0000).
                        Polarization charges: spherical gaussians, with
                                              point-specific exponents (IZeta= 3).
                        Self-potential: point-specific (ISelfS= 7).
                        Self-field    : sphere-specific E.n sum rule (ISelfD= 2).
 1st derivatives      : Analytical E(r).r(x)/FMM algorithm (CHGder, D1EAlg=3).
                        Cavity 1st derivative terms included.
 Solvent              : TetraHydroFuran, Eps=   7.425700 Eps(inf)=   1.974025
 ------------------------------------------------------------------------------
 Spheres list:
 ISph  on   Nord     Re0    Alpha      Xe            Ye            Ze
    1   C      1    1.8500  1.000      0.352540      0.709506      0.206693
    2   O      2    2.2940  1.000      0.606364      1.287893      1.340286
    3   C      3    1.8500  1.000      0.646384      1.589830     -1.045277
    4   H      4    1.2000  1.000      0.516794      1.049615     -1.991381
    5   H      5    1.2000  1.000     -0.043756      2.443356     -1.022213
    6   H      6    1.2000  1.000      1.671725      1.967882     -0.981136
    7  Cl      7    2.3800  1.000     -2.536687     -0.643103     -0.043943
    8   C      8    1.8500  1.000      1.848799     -1.013323     -0.081525
    9   N      9    1.8900  1.000      2.720239     -1.792475     -0.065696
 ------------------------------------------------------------------------------
 GePol: Number of generator spheres                  =       9
 GePol: Total number of spheres                      =       9
 GePol: Number of exposed spheres                    =       9 (100.00%)
 GePol: Number of points                             =    1362
 GePol: Average weight of points                     =       0.14
 GePol: Minimum weight of points                     =   0.14D-07
 GePol: Maximum weight of points                     =    0.18138
 GePol: Number of points with low weight             =      38
 GePol: Fraction of low-weight points (<1% of avg)   =       2.79%
 GePol: Cavity surface area                          =    187.004 Ang**2
 GePol: Cavity volume                                =    162.782 Ang**3
 ------------------------------------------------------------------------------
 Atomic radii for non-electrostatic terms: SMD-CDS.
 ------------------------------------------------------------------------------
 PCM non-electrostatic energy =         0.0009326507 Hartrees.
 Nuclear repulsion after PCM non-electrostatic terms =      206.2910432209 Hartrees.
 Leave Link  301 at Wed Jan  8 02:48:49 2020, MaxMem=  4294967296 cpu:               2.7 elap:               0.2
 (Enter /home/cwagen/sw/g16/g16/l302.exe)
 NPDir=0 NMtPBC=     1 NCelOv=     1 NCel=       1 NClECP=     1 NCelD=      1
         NCelK=      1 NCelE2=     1 NClLst=     1 CellRange=     0.0.
 One-electron integrals computed using PRISM.
 One-electron integral symmetry used in STVInt
 NBasis=   124 RedAO= T EigKep=  2.07D-04  NBF=   124
 NBsUse=   124 1.00D-06 EigRej= -1.00D+00 NBFU=   124
 Precomputing XC quadrature grid using
 IXCGrd= 4 IRadAn=           5 IRanWt=          -1 IRanGd=           0 AccXCQ= 0.00D+00.
 Generated NRdTot=       0 NPtTot=           0 NUsed=           0 NTot=          32
 NSgBfM=   123   123   123   123   123 MxSgAt=     9 MxSgA2=     9.
 Leave Link  302 at Wed Jan  8 02:48:51 2020, MaxMem=  4294967296 cpu:              25.9 elap:               1.8
 (Enter /home/cwagen/sw/g16/g16/l303.exe)
 DipDrv:  MaxL=1.
 Leave Link  303 at Wed Jan  8 02:48:51 2020, MaxMem=  4294967296 cpu:               3.7 elap:               0.4
 (Enter /home/cwagen/sw/g16/g16/l401.exe)
 ExpMin= 4.38D-02 ExpMax= 2.52D+04 ExpMxC= 3.78D+03 IAcc=3 IRadAn=         5 AccDes= 0.00D+00
 Harris functional with IExCor=  402 and IRadAn=       5 diagonalized for initial guess.
 HarFok:  IExCor=  402 AccDes= 0.00D+00 IRadAn=         5 IDoV= 1 UseB2=F ITyADJ=14
 ICtDFT=  3500011 ScaDFX=  1.000000  1.000000  1.000000  1.000000
 FoFCou: FMM=F IPFlag=           0 FMFlag=      100000 FMFlg1=           0
         NFxFlg=           0 DoJE=T BraDBF=F KetDBF=T FulRan=T
         wScrn=  0.000000 ICntrl=       500 IOpCl=  0 I1Cent=   200000004 NGrid=           0
         NMat0=    1 NMatS0=      1 NMatT0=    0 NMatD0=    1 NMtDS0=    0 NMtDT0=    0
 Petite list used in FoFCou.
 Harris En= -706.320528729537    
 JPrj=0 DoOrth=F DoCkMO=F.
 Leave Link  401 at Wed Jan  8 02:48:53 2020, MaxMem=  4294967296 cpu:              24.4 elap:               1.7
 (Enter /home/cwagen/sw/g16/g16/l502.exe)
 Keep R1 ints in memory in canonical form, NReq=45236517.
 FoFCou: FMM=F IPFlag=           0 FMFlag=           0 FMFlg1=           0
         NFxFlg=           0 DoJE=F BraDBF=F KetDBF=F FulRan=T
         wScrn=  0.000000 ICntrl=       600 IOpCl=  0 I1Cent=           0 NGrid=           0
         NMat0=    1 NMatS0=   7750 NMatT0=    0 NMatD0=    1 NMtDS0=    0 NMtDT0=    0
 Symmetry not used in FoFCou.
 Two-electron integral symmetry not used.
 Closed shell SCF:
 Using DIIS extrapolation, IDIIS=  1040.
 NGot=  4294967296 LenX=  4264898079 LenY=  4264882262
 Requested convergence on RMS density matrix=1.00D-08 within 128 cycles.
 Requested convergence on MAX density matrix=1.00D-06.
 Requested convergence on             energy=1.00D-06.
 No special actions if energy rises.

 Cycle   1  Pass 1  IDiag  1:
 Inv3:  Mode=1 IEnd=     5565132.
 Iteration    1 A*A^-1 deviation from unit magnitude is 6.88D-15 for   1352.
 Iteration    1 A*A^-1 deviation from orthogonality  is 1.86D-15 for   1357   1163.
 Iteration    1 A^-1*A deviation from unit magnitude is 7.33D-15 for   1352.
 Iteration    1 A^-1*A deviation from orthogonality  is 1.67D-15 for   1357   1163.
 E= -706.148337163176    
 DIIS: error= 2.60D-02 at cycle   1 NSaved=   1.
 NSaved= 1 IEnMin= 1 EnMin= -706.148337163176     IErMin= 1 ErrMin= 2.60D-02
 ErrMax= 2.60D-02  0.00D+00 EMaxC= 1.00D-01 BMatC= 1.92D-01 BMatP= 1.92D-01
 IDIUse=3 WtCom= 7.40D-01 WtEn= 2.60D-01
 Coeff-Com:  0.100D+01
 Coeff-En:   0.100D+01
 Coeff:      0.100D+01
 Gap=    -0.015 Goal=   None    Shift=    0.000
 GapD=   -0.015 DampG=0.250 DampE=0.500 DampFc=0.2500 IDamp=-1.
 Damping current iteration by 2.50D-01
 RMSDP=1.09D-02 MaxDP=3.40D-01              OVMax= 2.81D-01

 Cycle   2  Pass 1  IDiag  1:
 E= -706.206764644166     Delta-E=       -0.058427480989 Rises=F Damp=T
 DIIS: error= 1.74D-02 at cycle   2 NSaved=   2.
 NSaved= 2 IEnMin= 2 EnMin= -706.206764644166     IErMin= 2 ErrMin= 1.74D-02
 ErrMax= 1.74D-02  0.00D+00 EMaxC= 1.00D-01 BMatC= 2.78D-02 BMatP= 1.92D-01
 IDIUse=3 WtCom= 8.26D-01 WtEn= 1.74D-01
 Coeff-Com: -0.255D+00 0.126D+01
 Coeff-En:   0.111D+00 0.889D+00
 Coeff:     -0.192D+00 0.119D+01
 Gap=     0.077 Goal=   None    Shift=    0.000
 RMSDP=2.75D-03 MaxDP=7.63D-02 DE=-5.84D-02 OVMax= 2.55D-01

 Cycle   3  Pass 1  IDiag  1:
 E= -706.305462914083     Delta-E=       -0.098698269917 Rises=F Damp=F
 DIIS: error= 9.59D-03 at cycle   3 NSaved=   3.
 NSaved= 3 IEnMin= 3 EnMin= -706.305462914083     IErMin= 3 ErrMin= 9.59D-03
 ErrMax= 9.59D-03  0.00D+00 EMaxC= 1.00D-01 BMatC= 2.94D-02 BMatP= 2.78D-02
 IDIUse=3 WtCom= 9.04D-01 WtEn= 9.59D-02
 Coeff-Com: -0.223D+00 0.753D+00 0.470D+00
 Coeff-En:   0.000D+00 0.000D+00 0.100D+01
 Coeff:     -0.202D+00 0.681D+00 0.521D+00
 Gap=     0.089 Goal=   None    Shift=    0.000
 RMSDP=1.86D-03 MaxDP=3.52D-02 DE=-9.87D-02 OVMax= 5.35D-02

 Cycle   4  Pass 1  IDiag  1:
 E= -706.330936102279     Delta-E=       -0.025473188197 Rises=F Damp=F
 DIIS: error= 4.38D-03 at cycle   4 NSaved=   4.
 NSaved= 4 IEnMin= 4 EnMin= -706.330936102279     IErMin= 4 ErrMin= 4.38D-03
 ErrMax= 4.38D-03  0.00D+00 EMaxC= 1.00D-01 BMatC= 5.23D-03 BMatP= 2.78D-02
 IDIUse=3 WtCom= 9.56D-01 WtEn= 4.38D-02
 Coeff-Com: -0.540D-01 0.199D+00 0.307D+00 0.548D+00
 Coeff-En:   0.000D+00 0.000D+00 0.138D+00 0.862D+00
 Coeff:     -0.516D-01 0.190D+00 0.299D+00 0.562D+00
 Gap=     0.079 Goal=   None    Shift=    0.000
 RMSDP=9.08D-04 MaxDP=2.38D-02 DE=-2.55D-02 OVMax= 5.08D-02

 Cycle   5  Pass 1  IDiag  1:
 E= -706.332964215546     Delta-E=       -0.002028113267 Rises=F Damp=F
 DIIS: error= 3.17D-03 at cycle   5 NSaved=   5.
 NSaved= 5 IEnMin= 5 EnMin= -706.332964215546     IErMin= 5 ErrMin= 3.17D-03
 ErrMax= 3.17D-03  0.00D+00 EMaxC= 1.00D-01 BMatC= 2.41D-03 BMatP= 5.23D-03
 IDIUse=3 WtCom= 9.68D-01 WtEn= 3.17D-02
 Coeff-Com: -0.105D-01 0.324D-01 0.154D+00 0.448D+00 0.376D+00
 Coeff-En:   0.000D+00 0.000D+00 0.000D+00 0.385D+00 0.615D+00
 Coeff:     -0.102D-01 0.314D-01 0.149D+00 0.446D+00 0.384D+00
 Gap=     0.092 Goal=   None    Shift=    0.000
 RMSDP=6.99D-04 MaxDP=1.92D-02 DE=-2.03D-03 OVMax= 4.52D-02

 Cycle   6  Pass 1  IDiag  1:
 E= -706.335585880011     Delta-E=       -0.002621664465 Rises=F Damp=F
 DIIS: error= 9.03D-04 at cycle   6 NSaved=   6.
 NSaved= 6 IEnMin= 6 EnMin= -706.335585880011     IErMin= 6 ErrMin= 9.03D-04
 ErrMax= 9.03D-04  0.00D+00 EMaxC= 1.00D-01 BMatC= 1.40D-04 BMatP= 2.41D-03
 IDIUse=3 WtCom= 9.91D-01 WtEn= 9.03D-03
 Coeff-Com: -0.319D-02 0.857D-02 0.697D-01 0.227D+00 0.255D+00 0.443D+00
 Coeff-En:   0.000D+00 0.000D+00 0.000D+00 0.000D+00 0.408D-01 0.959D+00
 Coeff:     -0.316D-02 0.849D-02 0.691D-01 0.225D+00 0.253D+00 0.448D+00
 Gap=     0.090 Goal=   None    Shift=    0.000
 RMSDP=1.48D-04 MaxDP=5.64D-03 DE=-2.62D-03 OVMax= 9.54D-03

 Cycle   7  Pass 1  IDiag  1:
 E= -706.335745472700     Delta-E=       -0.000159592689 Rises=F Damp=F
 DIIS: error= 2.54D-04 at cycle   7 NSaved=   7.
 NSaved= 7 IEnMin= 7 EnMin= -706.335745472700     IErMin= 7 ErrMin= 2.54D-04
 ErrMax= 2.54D-04  0.00D+00 EMaxC= 1.00D-01 BMatC= 1.02D-05 BMatP= 1.40D-04
 IDIUse=3 WtCom= 9.97D-01 WtEn= 2.54D-03
 Coeff-Com: -0.927D-03 0.148D-02 0.239D-01 0.830D-01 0.115D+00 0.268D+00
 Coeff-Com:  0.510D+00
 Coeff-En:   0.000D+00 0.000D+00 0.000D+00 0.000D+00 0.000D+00 0.000D+00
 Coeff-En:   0.100D+01
 Coeff:     -0.925D-03 0.147D-02 0.238D-01 0.828D-01 0.114D+00 0.268D+00
 Coeff:      0.511D+00
 Gap=     0.090 Goal=   None    Shift=    0.000
 RMSDP=3.08D-05 MaxDP=7.28D-04 DE=-1.60D-04 OVMax= 1.30D-03

 Cycle   8  Pass 1  IDiag  1:
 E= -706.335753807629     Delta-E=       -0.000008334930 Rises=F Damp=F
 DIIS: error= 1.11D-04 at cycle   8 NSaved=   8.
 NSaved= 8 IEnMin= 8 EnMin= -706.335753807629     IErMin= 8 ErrMin= 1.11D-04
 ErrMax= 1.11D-04  0.00D+00 EMaxC= 1.00D-01 BMatC= 2.53D-06 BMatP= 1.02D-05
 IDIUse=3 WtCom= 9.99D-01 WtEn= 1.11D-03
 Coeff-Com: -0.126D-03-0.872D-03 0.151D-02 0.938D-02 0.278D-01 0.902D-01
 Coeff-Com:  0.353D+00 0.520D+00
 Coeff-En:   0.000D+00 0.000D+00 0.000D+00 0.000D+00 0.000D+00 0.000D+00
 Coeff-En:   0.187D+00 0.813D+00
 Coeff:     -0.126D-03-0.871D-03 0.150D-02 0.937D-02 0.278D-01 0.901D-01
 Coeff:      0.352D+00 0.520D+00
 Gap=     0.090 Goal=   None    Shift=    0.000
 RMSDP=1.64D-05 MaxDP=5.48D-04 DE=-8.33D-06 OVMax= 9.10D-04

 Cycle   9  Pass 1  IDiag  1:
 E= -706.335755980926     Delta-E=       -0.000002173297 Rises=F Damp=F
 DIIS: error= 2.70D-05 at cycle   9 NSaved=   9.
 NSaved= 9 IEnMin= 9 EnMin= -706.335755980926     IErMin= 9 ErrMin= 2.70D-05
 ErrMax= 2.70D-05  0.00D+00 EMaxC= 1.00D-01 BMatC= 2.09D-07 BMatP= 2.53D-06
 IDIUse=1 WtCom= 1.00D+00 WtEn= 0.00D+00
 Coeff-Com: -0.221D-03-0.872D-04-0.195D-02-0.475D-02 0.351D-02 0.190D-01
 Coeff-Com:  0.145D+00 0.300D+00 0.540D+00
 Coeff:     -0.221D-03-0.872D-04-0.195D-02-0.475D-02 0.351D-02 0.190D-01
 Coeff:      0.145D+00 0.300D+00 0.540D+00
 Gap=     0.090 Goal=   None    Shift=    0.000
 RMSDP=6.87D-06 MaxDP=1.87D-04 DE=-2.17D-06 OVMax= 3.38D-04

 Cycle  10  Pass 1  IDiag  1:
 E= -706.335756248271     Delta-E=       -0.000000267344 Rises=F Damp=F
 DIIS: error= 8.11D-06 at cycle  10 NSaved=  10.
 NSaved=10 IEnMin=10 EnMin= -706.335756248271     IErMin=10 ErrMin= 8.11D-06
 ErrMax= 8.11D-06  0.00D+00 EMaxC= 1.00D-01 BMatC= 1.42D-08 BMatP= 2.09D-07
 IDIUse=1 WtCom= 1.00D+00 WtEn= 0.00D+00
 Coeff-Com: -0.870D-04 0.891D-04-0.873D-03-0.263D-02-0.137D-02-0.716D-02
 Coeff-Com: -0.407D-02 0.302D-01 0.213D+00 0.773D+00
 Coeff:     -0.870D-04 0.891D-04-0.873D-03-0.263D-02-0.137D-02-0.716D-02
 Coeff:     -0.407D-02 0.302D-01 0.213D+00 0.773D+00
 Gap=     0.090 Goal=   None    Shift=    0.000
 RMSDP=1.54D-06 MaxDP=2.60D-05 DE=-2.67D-07 OVMax= 7.45D-05

 Cycle  11  Pass 1  IDiag  1:
 E= -706.335756267866     Delta-E=       -0.000000019595 Rises=F Damp=F
 DIIS: error= 1.59D-06 at cycle  11 NSaved=  11.
 NSaved=11 IEnMin=11 EnMin= -706.335756267866     IErMin=11 ErrMin= 1.59D-06
 ErrMax= 1.59D-06  0.00D+00 EMaxC= 1.00D-01 BMatC= 3.44D-10 BMatP= 1.42D-08
 IDIUse=1 WtCom= 1.00D+00 WtEn= 0.00D+00
 Coeff-Com: -0.345D-05 0.160D-04-0.919D-04-0.292D-03-0.366D-03-0.263D-02
 Coeff-Com: -0.877D-02-0.137D-01 0.553D-02 0.925D-01 0.928D+00
 Coeff:     -0.345D-05 0.160D-04-0.919D-04-0.292D-03-0.366D-03-0.263D-02
 Coeff:     -0.877D-02-0.137D-01 0.553D-02 0.925D-01 0.928D+00
 Gap=     0.090 Goal=   None    Shift=    0.000
 RMSDP=4.23D-07 MaxDP=7.57D-06 DE=-1.96D-08 OVMax= 1.57D-05

 Cycle  12  Pass 1  IDiag  1:
 E= -706.335756268445     Delta-E=       -0.000000000579 Rises=F Damp=F
 DIIS: error= 1.54D-07 at cycle  12 NSaved=  12.
 NSaved=12 IEnMin=12 EnMin= -706.335756268445     IErMin=12 ErrMin= 1.54D-07
 ErrMax= 1.54D-07  0.00D+00 EMaxC= 1.00D-01 BMatC= 5.15D-12 BMatP= 3.44D-10
 IDIUse=1 WtCom= 1.00D+00 WtEn= 0.00D+00
 Coeff-Com:  0.149D-05 0.715D-06 0.207D-04 0.642D-04 0.250D-04-0.774D-04
 Coeff-Com: -0.889D-03-0.246D-02-0.776D-02-0.153D-01 0.119D+00 0.908D+00
 Coeff:      0.149D-05 0.715D-06 0.207D-04 0.642D-04 0.250D-04-0.774D-04
 Coeff:     -0.889D-03-0.246D-02-0.776D-02-0.153D-01 0.119D+00 0.908D+00
 Gap=     0.090 Goal=   None    Shift=    0.000
 RMSDP=7.32D-08 MaxDP=1.82D-06 DE=-5.79D-10 OVMax= 3.53D-06

 Cycle  13  Pass 1  IDiag  1:
 E= -706.335756268459     Delta-E=       -0.000000000015 Rises=F Damp=F
 DIIS: error= 2.97D-08 at cycle  13 NSaved=  13.
 NSaved=13 IEnMin=13 EnMin= -706.335756268459     IErMin=13 ErrMin= 2.97D-08
 ErrMax= 2.97D-08  0.00D+00 EMaxC= 1.00D-01 BMatC= 4.29D-13 BMatP= 5.15D-12
 IDIUse=1 WtCom= 1.00D+00 WtEn= 0.00D+00
 Coeff-Com:  0.143D-05-0.202D-05 0.749D-05 0.218D-04 0.195D-04 0.839D-04
 Coeff-Com:  0.260D-03 0.291D-03-0.146D-02-0.580D-02-0.263D-01 0.114D+00
 Coeff-Com:  0.919D+00
 Coeff:      0.143D-05-0.202D-05 0.749D-05 0.218D-04 0.195D-04 0.839D-04
 Coeff:      0.260D-03 0.291D-03-0.146D-02-0.580D-02-0.263D-01 0.114D+00
 Coeff:      0.919D+00
 Gap=     0.090 Goal=   None    Shift=    0.000
 RMSDP=2.02D-08 MaxDP=6.60D-07 DE=-1.47D-11 OVMax= 1.23D-06

 Cycle  14  Pass 1  IDiag  1:
 E= -706.335756268461     Delta-E=       -0.000000000001 Rises=F Damp=F
 DIIS: error= 9.58D-09 at cycle  14 NSaved=  14.
 NSaved=14 IEnMin=14 EnMin= -706.335756268461     IErMin=14 ErrMin= 9.58D-09
 ErrMax= 9.58D-09  0.00D+00 EMaxC= 1.00D-01 BMatC= 2.13D-14 BMatP= 4.29D-13
 IDIUse=1 WtCom= 1.00D+00 WtEn= 0.00D+00
 Coeff-Com:  0.306D-06-0.471D-06-0.158D-06-0.829D-06-0.741D-06 0.468D-05
 Coeff-Com:  0.422D-04 0.856D-04 0.320D-03 0.368D-03-0.581D-02-0.316D-01
 Coeff-Com:  0.342D-01 0.100D+01
 Coeff:      0.306D-06-0.471D-06-0.158D-06-0.829D-06-0.741D-06 0.468D-05
 Coeff:      0.422D-04 0.856D-04 0.320D-03 0.368D-03-0.581D-02-0.316D-01
 Coeff:      0.342D-01 0.100D+01
 Gap=     0.090 Goal=   None    Shift=    0.000
 RMSDP=5.94D-09 MaxDP=2.21D-07 DE=-1.48D-12 OVMax= 3.89D-07

 Error on total polarization charges =  0.02523
 SCF Done:  E(RB3LYP) =  -706.335756268     A.U. after   14 cycles
            NFock= 14  Conv=0.59D-08     -V/T= 2.0065
 KE= 7.017989457298D+02 PE=-2.089212383737D+03 EE= 4.747866385180D+02
 SMD-CDS (non-electrostatic) energy       (kcal/mol) =       0.59
 (included in total energy above)
 Leave Link  502 at Wed Jan  8 02:49:26 2020, MaxMem=  4294967296 cpu:             474.1 elap:              33.3
 (Enter /home/cwagen/sw/g16/g16/l601.exe)
 Copying SCF densities to generalized density rwf, IOpCl= 0 IROHF=0.

 **********************************************************************

            Population analysis using the SCF density.

 **********************************************************************

 Orbital symmetries:
       Occupied  (A) (A) (A) (A) (A) (A) (A) (A) (A) (A) (A) (A)
                 (A) (A) (A) (A) (A) (A) (A) (A) (A) (A) (A) (A)
                 (A) (A) (A)
       Virtual   (A) (A) (A) (A) (A) (A) (A) (A) (A) (A) (A) (A)
                 (A) (A) (A) (A) (A) (A) (A) (A) (A) (A) (A) (A)
                 (A) (A) (A) (A) (A) (A) (A) (A) (A) (A) (A) (A)
                 (A) (A) (A) (A) (A) (A) (A) (A) (A) (A) (A) (A)
                 (A) (A) (A) (A) (A) (A) (A) (A) (A) (A) (A) (A)
                 (A) (A) (A) (A) (A) (A) (A) (A) (A) (A) (A) (A)
                 (A) (A) (A) (A) (A) (A) (A) (A) (A) (A) (A) (A)
                 (A) (A) (A) (A) (A) (A) (A) (A) (A) (A) (A) (A)
                 (A)
 The electronic state is 1-A.
 Alpha  occ. eigenvalues -- -101.44714 -19.22517 -14.30908 -10.37523 -10.22065
 Alpha  occ. eigenvalues --  -10.19388  -9.35954  -7.11953  -7.11632  -7.11631
 Alpha  occ. eigenvalues --   -1.05766  -0.86753  -0.75213  -0.69183  -0.56438
 Alpha  occ. eigenvalues --   -0.46322  -0.45400  -0.44832  -0.39718  -0.37692
 Alpha  occ. eigenvalues --   -0.36688  -0.31053  -0.30989  -0.28511  -0.23871
 Alpha  occ. eigenvalues --   -0.23376  -0.23365
 Alpha virt. eigenvalues --   -0.14377  -0.04862   0.02914   0.04244   0.04391
 Alpha virt. eigenvalues --    0.05198   0.06364   0.07442   0.08409   0.09049
 Alpha virt. eigenvalues --    0.09852   0.10040   0.10801   0.11652   0.12969
 Alpha virt. eigenvalues --    0.13910   0.14782   0.16057   0.16436   0.19314
 Alpha virt. eigenvalues --    0.21422   0.22724   0.23859   0.24205   0.25002
 Alpha virt. eigenvalues --    0.25809   0.27163   0.27928   0.29688   0.31798
 Alpha virt. eigenvalues --    0.33529   0.35877   0.38574   0.56666   0.62779
 Alpha virt. eigenvalues --    0.64010   0.65468   0.66690   0.67624   0.68329
 Alpha virt. eigenvalues --    0.71347   0.72928   0.74505   0.78015   0.79279
 Alpha virt. eigenvalues --    0.84944   0.85182   0.94138   0.96303   0.96645
 Alpha virt. eigenvalues --    0.97072   0.97300   0.97715   0.99538   1.00741
 Alpha virt. eigenvalues --    1.01432   1.03715   1.12087   1.13815   1.17284
 Alpha virt. eigenvalues --    1.22947   1.26372   1.27791   1.30877   1.41886
 Alpha virt. eigenvalues --    1.44811   1.48022   1.54656   1.56530   1.57035
 Alpha virt. eigenvalues --    1.59491   1.63347   1.72715   1.77468   1.82223
 Alpha virt. eigenvalues --    1.86177   1.94453   1.99535   1.99963   2.09949
 Alpha virt. eigenvalues --    2.17476   2.22155   2.26045   2.46209   2.48112
 Alpha virt. eigenvalues --    2.51007   2.63173   2.63699   2.69040   2.91380
 Alpha virt. eigenvalues --    3.06974   3.99765   4.12769   4.21354   4.25070
 Alpha virt. eigenvalues --    4.36474   4.41621
          Condensed to atoms (all electrons):
               1          2          3          4          5          6
     1  C    5.070923   0.522157   0.060183  -0.052214  -0.042485   0.001666
     2  O    0.522157   7.900705  -0.121922   0.007100  -0.002050  -0.011690
     3  C    0.060183  -0.121922   5.735071   0.374862   0.363720   0.361203
     4  H   -0.052214   0.007100   0.374862   0.436319  -0.020547  -0.024464
     5  H   -0.042485  -0.002050   0.363720  -0.020547   0.434681  -0.021762
     6  H    0.001666  -0.011690   0.361203  -0.024464  -0.021762   0.420846
     7  Cl   0.134552  -0.018265  -0.050324   0.001126  -0.000988   0.000511
     8  C   -0.046660  -0.073087  -0.069818   0.007725   0.013154  -0.017750
     9  N   -0.001774  -0.001103  -0.005218  -0.000503  -0.000055   0.000346
               7          8          9
     1  C    0.134552  -0.046660  -0.001774
     2  O   -0.018265  -0.073087  -0.001103
     3  C   -0.050324  -0.069818  -0.005218
     4  H    0.001126   0.007725  -0.000503
     5  H   -0.000988   0.013154  -0.000055
     6  H    0.000511  -0.017750   0.000346
     7  Cl  17.728525  -0.043410  -0.000217
     8  C   -0.043410   5.601780   0.643999
     9  N   -0.000217   0.643999   6.939158
 Mulliken charges:
               1
     1  C    0.353653
     2  O   -0.201844
     3  C   -0.647757
     4  H    0.270596
     5  H    0.276333
     6  H    0.291095
     7  Cl  -0.751509
     8  C   -0.015932
     9  N   -0.574633
 Sum of Mulliken charges =  -1.00000
 Mulliken charges with hydrogens summed into heavy atoms:
               1
     1  C    0.353653
     2  O   -0.201844
     3  C    0.190266
     7  Cl  -0.751509
     8  C   -0.015932
     9  N   -0.574633
 Electronic spatial extent (au):  <R**2>=           1197.6411
 Charge=             -1.0000 electrons
 Dipole moment (field-independent basis, Debye):
    X=              3.2766    Y=              8.5651    Z=             -2.5947  Tot=              9.5304
 Quadrupole moment (field-independent basis, Debye-Ang):
   XX=            -87.5415   YY=            -53.0380   ZZ=            -47.1182
   XY=              8.0589   XZ=             -1.9076   YZ=             -5.2551
 Traceless Quadrupole moment (field-independent basis, Debye-Ang):
   XX=            -24.9757   YY=              9.5279   ZZ=             15.4477
   XY=              8.0589   XZ=             -1.9076   YZ=             -5.2551
 Octapole moment (field-independent basis, Debye-Ang**2):
  XXX=             10.5085  YYY=             42.3471  ZZZ=             -4.0310  XYY=            -16.7189
  XXY=             58.5695  XXZ=              1.8135  XZZ=              1.6606  YZZ=              5.3974
  YYZ=             -5.9363  XYZ=             -3.9030
 Hexadecapole moment (field-independent basis, Debye-Ang**3):
 XXXX=          -1427.1230 YYYY=           -470.1964 ZZZZ=           -177.4508 XXXY=             93.9875
 XXXZ=              1.7159 YYYX=             62.6756 YYYZ=            -13.2856 ZZZX=             -2.0297
 ZZZY=             -5.8688 XXYY=           -337.2400 XXZZ=           -220.7891 YYZZ=           -105.9972
 XXYZ=             -6.1557 YYXZ=             -2.0558 ZZXY=              5.0137
 N-N= 2.062910432209D+02 E-N=-2.089212383872D+03  KE= 7.017989457298D+02
 No NMR shielding tensors so no spin-rotation constants.
 Leave Link  601 at Wed Jan  8 02:49:27 2020, MaxMem=  4294967296 cpu:              14.4 elap:               1.0
 (Enter /home/cwagen/sw/g16/g16/l701.exe)
 ... and contract with generalized density number  0.
 Compute integral first derivatives.
 D1PCM: PCM CHGder 1st derivatives, ID1Alg=3 FixD1E=F DoIter=F DoCFld=F I1PDM=0.
 GePol: Maximum number of non-zero 1st derivatives   =     419
 Leave Link  701 at Wed Jan  8 02:49:31 2020, MaxMem=  4294967296 cpu:              56.1 elap:               4.1
 (Enter /home/cwagen/sw/g16/g16/l702.exe)
 L702 exits ... SP integral derivatives will be done elsewhere.
 Leave Link  702 at Wed Jan  8 02:49:31 2020, MaxMem=  4294967296 cpu:               0.8 elap:               0.1
 (Enter /home/cwagen/sw/g16/g16/l703.exe)
 Integral derivatives from FoFJK, PRISM(SPDF).
 Compute integral first derivatives, UseDBF=F ICtDFT=           0.
 Calling FoFJK, ICntrl=      2127 FMM=F ISym2X=0 I1Cent= 0 IOpClX= 0 NMat=1 NMatS=1 NMatT=0.
 FoFJK:  IHMeth= 1 ICntrl=    2127 DoSepK=F KAlg= 0 I1Cent=           0 FoldK=F
 IRaf=         0 NMat=       1 IRICut=       1 DoRegI=T DoRafI=F ISym2E= 0 IDoP0=0 IntGTp=1.
 FoFCou: FMM=F IPFlag=           0 FMFlag=      100000 FMFlg1=         800
         NFxFlg=           0 DoJE=F BraDBF=F KetDBF=F FulRan=T
         wScrn=  0.000000 ICntrl=      2127 IOpCl=  0 I1Cent=           0 NGrid=           0
         NMat0=    1 NMatS0=      1 NMatT0=    0 NMatD0=    1 NMtDS0=    0 NMtDT0=    0
 Symmetry not used in FoFCou.
 Leave Link  703 at Wed Jan  8 02:49:34 2020, MaxMem=  4294967296 cpu:              32.9 elap:               2.6
 (Enter /home/cwagen/sw/g16/g16/l716.exe)
 Dipole        = 1.28912415D+00 3.36975098D+00-1.02082004D+00
 ***** Axes restored to original set *****
 -------------------------------------------------------------------
 Center     Atomic                   Forces (Hartrees/Bohr)
 Number     Number              X              Y              Z
 -------------------------------------------------------------------
      1        6           0.033251841   -0.098815797   -0.135889157
      2        8          -0.000800744    0.075757324    0.138363495
      3        6          -0.012849258    0.024975481    0.018551449
      4        1          -0.000514155    0.002249099   -0.005152685
      5        1           0.000511119    0.003168696   -0.001415130
      6        1           0.003307665    0.006521451   -0.006009362
      7       17           0.008405017   -0.010654681   -0.003242099
      8        6          -0.037250635   -0.004046727   -0.006367333
      9        7           0.005939150    0.000845155    0.001160823
 -------------------------------------------------------------------
 Cartesian Forces:  Max     0.138363495 RMS     0.046012766
 Leave Link  716 at Wed Jan  8 02:49:34 2020, MaxMem=  4294967296 cpu:               1.5 elap:               0.1
 (Enter /home/cwagen/sw/g16/g16/l103.exe)

 GradGradGradGradGradGradGradGradGradGradGradGradGradGradGradGradGradGrad
 Berny optimization.
 FormGI is forming the generalized inverse of G from B-inverse, IUseBI=4.
 Internal  Forces:  Max     0.154121905 RMS     0.031511248
 Search for a local minimum.
 Step number   1 out of a maximum of   41
 All quantities printed in internal units (Hartrees-Bohrs-Radians)
 RMS Force = .31962D-01 SwitMx=.10000D-02 MixMth= 1
 Mixed Optimization -- RFO/linear search
 Second derivative matrix not updated -- first step.
 ITU=  0
     Eigenvalues ---    0.00230   0.04746   0.04746   0.05330   0.05908
     Eigenvalues ---    0.07453   0.10176   0.16000   0.16000   0.16000
     Eigenvalues ---    0.25000   0.25000   0.25000   0.26946   0.33918
     Eigenvalues ---    0.33999   0.34275   0.67840   1.220341000.00000
     Eigenvalues --- 1000.000001000.000001000.000001000.000001000.00000
     Eigenvalues --- 1000.000001000.000001000.000001000.000001000.00000
     Eigenvalues --- 1000.00000
 RFO step:  Lambda=-5.42866069D-02 EMin= 2.30000000D-03
 Linear search not attempted -- first point.
 Maximum step size (   0.300) exceeded in Quadratic search.
    -- Step size scaled by   0.887
 Iteration  1 RMS(Cart)=  0.06500347 RMS(Int)=  0.00646512
 Iteration  2 RMS(Cart)=  0.00729394 RMS(Int)=  0.00248993
 Iteration  3 RMS(Cart)=  0.00006091 RMS(Int)=  0.00248947
 Iteration  4 RMS(Cart)=  0.00000081 RMS(Int)=  0.00248947
 Iteration  1 RMS(Cart)=  0.00000000 RMS(Int)=  0.00000000
 ITry= 1 IFail=0 DXMaxC= 1.71D-01 DCOld= 1.00D+10 DXMaxT= 3.00D-01 DXLimC= 3.00D+00 Rises=F
 Variable       Old X    -DE/DX   Delta X   Delta X   Delta X     New X
                                 (Linear)    (Quad)   (Total)
    R1        2.45227  -0.15412   0.00000  -0.18666  -0.18666   2.26561
    R2        2.94503  -0.02276   0.00000  -0.06238  -0.06238   2.88265
    R3        6.04712  -0.01393   0.00000   0.00000   0.00000   6.04712
    R4        4.34637  -0.03100   0.00000   0.00000   0.00000   4.34637
    R5        2.07331  -0.00431   0.00000  -0.00970  -0.00970   2.06361
    R6        2.07468  -0.00155   0.00000  -0.00349  -0.00349   2.07119
    R7        2.06868  -0.00117   0.00000  -0.00261  -0.00261   2.06607
    R8        2.20923   0.00599   0.00000   0.00417   0.00417   2.21340
    A1        1.99667   0.05707   0.00000   0.17534   0.17235   2.16902
    A2        2.01908  -0.02449   0.00000  -0.07802  -0.07526   1.94382
    A3        1.89239  -0.01234   0.00000  -0.00164  -0.01107   1.88132
    A4        1.92419  -0.02114   0.00000  -0.07514  -0.07318   1.85101
    A5        1.77194   0.00790   0.00000   0.02867   0.02216   1.79411
    A6        1.83479  -0.00825   0.00000  -0.05245  -0.05275   1.78203
    A7        1.97398  -0.00240   0.00000  -0.01050  -0.01078   1.96320
    A8        1.87942  -0.00153   0.00000  -0.00411  -0.00422   1.87521
    A9        1.90140  -0.01230   0.00000  -0.05265  -0.05308   1.84832
   A10        1.90356   0.00299   0.00000   0.01546   0.01546   1.91903
   A11        1.90837   0.00686   0.00000   0.02443   0.02382   1.93220
   A12        1.89554   0.00667   0.00000   0.02875   0.02849   1.92404
   A13        3.09466  -0.00165   0.00000  -0.01436  -0.01436   3.08030
   A14        2.88672   0.00147   0.00000   0.01279   0.01279   2.89951
    D1        3.04510   0.00564   0.00000   0.03540   0.03841   3.08351
    D2       -1.13357   0.00685   0.00000   0.04542   0.04819  -1.08539
    D3        0.91915   0.00728   0.00000   0.04888   0.05163   0.97078
    D4       -0.92685   0.00272   0.00000   0.01273   0.01222  -0.91463
    D5        1.17766   0.00393   0.00000   0.02275   0.02199   1.19966
    D6       -3.05280   0.00436   0.00000   0.02621   0.02544  -3.02736
    D7        1.01121  -0.01045   0.00000  -0.05978  -0.06177   0.94944
    D8        3.11572  -0.00924   0.00000  -0.04976  -0.05199   3.06373
    D9       -1.11475  -0.00881   0.00000  -0.04630  -0.04855  -1.16329
         Item               Value     Threshold  Converged?
 Maximum Force            0.154122     0.000450     NO 
 RMS     Force            0.031962     0.000300     NO 
 Maximum Displacement     0.171284     0.001800     NO 
 RMS     Displacement     0.063978     0.001200     NO 
 Predicted change in Energy=-2.978886D-02
 Lowest energy point so far.  Saving SCF results.
 GradGradGradGradGradGradGradGradGradGradGradGradGradGradGradGradGradGrad

 Leave Link  103 at Wed Jan  8 02:49:38 2020, MaxMem=  4294967296 cpu:              59.9 elap:               4.1
 (Enter /home/cwagen/sw/g16/g16/l202.exe)
                          Input orientation:                          
 ---------------------------------------------------------------------
 Center     Atomic      Atomic             Coordinates (Angstroms)
 Number     Number       Type             X           Y           Z
 ---------------------------------------------------------------------
      1          6           0       -0.172077   -0.382639   -0.251273
      2          8           0       -0.240927   -0.589081   -1.430267
      3          6           0       -0.346288   -1.454382    0.820156
      4          1           0       -0.188025   -1.066364    1.828566
      5          1           0       -1.364320   -1.849615    0.726994
      6          1           0        0.384640   -2.233151    0.586468
      7         17           0       -2.057078    2.052662    0.618257
      8          6           0        1.925684    0.447930    0.195441
      9          7           0        3.054449    0.754039    0.259401
 ---------------------------------------------------------------------
                    Distance matrix (angstroms):
                    1          2          3          4          5
     1  C    0.000000
     2  O    1.198910   0.000000
     3  C    1.525432   2.413348   0.000000
     4  H    2.189398   3.294023   1.092014   0.000000
     5  H    2.128490   2.739476   1.096029   1.791818   0.000000
     6  H    2.106215   2.676102   1.093319   1.797817   1.796026
     7  Cl   3.200000   3.804427   3.907291   3.832301   3.964782
     8  C    2.300000   2.900434   3.028352   3.070497   4.047887
     9  N    3.458800   3.939346   4.093480   4.036061   5.150066
                    6          7          8          9
     6  H    0.000000
     7  Cl   4.932666   0.000000
     8  C    3.117036   4.314665   0.000000
     9  N    4.019721   5.286105   1.171283   0.000000
 Stoichiometry    C3H3ClNO(1-)
 Framework group  C1[X(C3H3ClNO)]
 Deg. of freedom    21
 Full point group                 C1      NOp   1
 RotChk:  IX=0 Diff= 4.28D-02
 Largest Abelian subgroup         C1      NOp   1
 Largest concise Abelian subgroup C1      NOp   1
                         Standard orientation:                         
 ---------------------------------------------------------------------
 Center     Atomic      Atomic             Coordinates (Angstroms)
 Number     Number       Type             X           Y           Z
 ---------------------------------------------------------------------
      1          6           0        0.375135    0.781561    0.235806
      2          8           0        0.538828    1.204358    1.345685
      3          6           0        0.554433    1.608293   -1.033568
      4          1           0        0.412754    1.016900   -1.940582
      5          1           0       -0.177235    2.423681   -1.000639
      6          1           0        1.570393    2.009725   -0.988577
      7         17           0       -2.459030   -0.676353   -0.050535
      8          6           0        1.846322   -0.958395   -0.077508
      9          7           0        2.718806   -1.739417   -0.103567
 ---------------------------------------------------------------------
 Rotational constants (GHZ):           2.6597147           1.2137784           0.9899161
 Leave Link  202 at Wed Jan  8 02:49:38 2020, MaxMem=  4294967296 cpu:               2.4 elap:               0.2
 (Enter /home/cwagen/sw/g16/g16/l301.exe)
 Standard basis: 6-31+G(d) (6D, 7F)
 Ernie: Thresh=  0.10000D-02 Tol=  0.10000D-05 Strict=F.
 There are   124 symmetry adapted cartesian basis functions of A   symmetry.
 There are   124 symmetry adapted basis functions of A   symmetry.
   124 basis functions,   228 primitive gaussians,   124 cartesian basis functions
    27 alpha electrons       27 beta electrons
       nuclear repulsion energy       210.1955699838 Hartrees.
 IExCor=  402 DFT=T Ex+Corr=B3LYP ExCW=0 ScaHFX=  0.200000
 ScaDFX=  0.800000  0.720000  1.000000  0.810000 ScalE2=  1.000000  1.000000
 IRadAn=      5 IRanWt=     -1 IRanGd=            0 ICorTp=0 IEmpDi=  4
 NAtoms=    9 NActive=    9 NUniq=    9 SFac= 1.00D+00 NAtFMM=   60 NAOKFM=F Big=F
 Integral buffers will be    131072 words long.
 Raffenetti 2 integral format.
 Two-electron integral symmetry is turned on.
 ------------------------------------------------------------------------------
 Polarizable Continuum Model (PCM)
 =================================
 Model                : PCM.
 Atomic radii         : SMD-Coulomb.
 Polarization charges : Total charges.
 Charge compensation  : None.
 Solution method      : On-the-fly selection.
 Cavity type          : VdW (van der Waals Surface) (Alpha=1.000).
 Cavity algorithm     : GePol (No added spheres)
                        Default sphere list used, NSphG=    9.
                        Lebedev-Laikov grids with approx.  5.0 points / Ang**2.
                        Smoothing algorithm: York/Karplus (Gamma=1.0000).
                        Polarization charges: spherical gaussians, with
                                              point-specific exponents (IZeta= 3).
                        Self-potential: point-specific (ISelfS= 7).
                        Self-field    : sphere-specific E.n sum rule (ISelfD= 2).
 1st derivatives      : Analytical E(r).r(x)/FMM algorithm (CHGder, D1EAlg=3).
                        Cavity 1st derivative terms included.
 Solvent              : TetraHydroFuran, Eps=   7.425700 Eps(inf)=   1.974025
 ------------------------------------------------------------------------------
 Spheres list:
 ISph  on   Nord     Re0    Alpha      Xe            Ye            Ze
    1   C      1    1.8500  1.000      0.375135      0.781561      0.235806
    2   O      2    2.2940  1.000      0.538828      1.204358      1.345685
    3   C      3    1.8500  1.000      0.554433      1.608293     -1.033568
    4   H      4    1.2000  1.000      0.412754      1.016900     -1.940582
    5   H      5    1.2000  1.000     -0.177235      2.423681     -1.000639
    6   H      6    1.2000  1.000      1.570393      2.009725     -0.988577
    7  Cl      7    2.3800  1.000     -2.459030     -0.676353     -0.050535
    8   C      8    1.8500  1.000      1.846322     -0.958395     -0.077508
    9   N      9    1.8900  1.000      2.718806     -1.739417     -0.103567
 ------------------------------------------------------------------------------
 GePol: Number of generator spheres                  =       9
 GePol: Total number of spheres                      =       9
 GePol: Number of exposed spheres                    =       9 (100.00%)
 GePol: Number of points                             =    1349
 GePol: Average weight of points                     =       0.14
 GePol: Minimum weight of points                     =   0.16D-08
 GePol: Maximum weight of points                     =    0.18138
 GePol: Number of points with low weight             =      34
 GePol: Fraction of low-weight points (<1% of avg)   =       2.52%
 GePol: Cavity surface area                          =    185.079 Ang**2
 GePol: Cavity volume                                =    161.385 Ang**3
 ------------------------------------------------------------------------------
 Atomic radii for non-electrostatic terms: SMD-CDS.
 ------------------------------------------------------------------------------
 PCM non-electrostatic energy =         0.0007117416 Hartrees.
 Nuclear repulsion after PCM non-electrostatic terms =      210.1962817254 Hartrees.
 Leave Link  301 at Wed Jan  8 02:49:40 2020, MaxMem=  4294967296 cpu:              19.7 elap:               1.4
 (Enter /home/cwagen/sw/g16/g16/l302.exe)
 NPDir=0 NMtPBC=     1 NCelOv=     1 NCel=       1 NClECP=     1 NCelD=      1
         NCelK=      1 NCelE2=     1 NClLst=     1 CellRange=     0.0.
 One-electron integrals computed using PRISM.
 One-electron integral symmetry used in STVInt
 NBasis=   124 RedAO= T EigKep=  1.87D-04  NBF=   124
 NBsUse=   124 1.00D-06 EigRej= -1.00D+00 NBFU=   124
 Precomputing XC quadrature grid using
 IXCGrd= 4 IRadAn=           5 IRanWt=          -1 IRanGd=           0 AccXCQ= 0.00D+00.
 Generated NRdTot=       0 NPtTot=           0 NUsed=           0 NTot=          32
 NSgBfM=   123   123   123   123   123 MxSgAt=     9 MxSgA2=     9.
 Leave Link  302 at Wed Jan  8 02:49:41 2020, MaxMem=  4294967296 cpu:              23.2 elap:               1.7
 (Enter /home/cwagen/sw/g16/g16/l303.exe)
 DipDrv:  MaxL=1.
 Leave Link  303 at Wed Jan  8 02:49:42 2020, MaxMem=  4294967296 cpu:               3.2 elap:               0.2
 (Enter /home/cwagen/sw/g16/g16/l401.exe)
 Initial guess from the checkpoint file:  "/scratch/users/cwagen/cwagen_scan_320_230/Gau-36683.chk"
 B after Tr=     0.000000    0.000000    0.000000
         Rot=    0.999900   -0.008677   -0.001201   -0.011094 Ang=  -1.62 deg.
 Guess basis will be translated and rotated to current coordinates.
 JPrj=2 DoOrth=T DoCkMO=T.
 Generating alternative initial guess.
 ExpMin= 4.38D-02 ExpMax= 2.52D+04 ExpMxC= 3.78D+03 IAcc=2 IRadAn=         4 AccDes= 0.00D+00
 Harris functional with IExCor=  402 and IRadAn=       4 diagonalized for initial guess.
 HarFok:  IExCor=  402 AccDes= 0.00D+00 IRadAn=         4 IDoV= 1 UseB2=F ITyADJ=14
 ICtDFT=  3500011 ScaDFX=  1.000000  1.000000  1.000000  1.000000
 FoFCou: FMM=F IPFlag=           0 FMFlag=      100000 FMFlg1=           0
         NFxFlg=           0 DoJE=T BraDBF=F KetDBF=T FulRan=T
         wScrn=  0.000000 ICntrl=       500 IOpCl=  0 I1Cent=   200000004 NGrid=           0
         NMat0=    1 NMatS0=      1 NMatT0=    0 NMatD0=    1 NMtDS0=    0 NMtDT0=    0
 Petite list used in FoFCou.
 Harris En= -706.355552783920    
 Leave Link  401 at Wed Jan  8 02:49:45 2020, MaxMem=  4294967296 cpu:              38.3 elap:               2.8
 (Enter /home/cwagen/sw/g16/g16/l502.exe)
 Keep R1 ints in memory in canonical form, NReq=45236517.
 FoFCou: FMM=F IPFlag=           0 FMFlag=           0 FMFlg1=           0
         NFxFlg=           0 DoJE=F BraDBF=F KetDBF=F FulRan=T
         wScrn=  0.000000 ICntrl=       600 IOpCl=  0 I1Cent=           0 NGrid=           0
         NMat0=    1 NMatS0=   7750 NMatT0=    0 NMatD0=    1 NMtDS0=    0 NMtDT0=    0
 Symmetry not used in FoFCou.
 Two-electron integral symmetry not used.
 Closed shell SCF:
 Using DIIS extrapolation, IDIIS=  1040.
 NGot=  4294967296 LenX=  4264898079 LenY=  4264882262
 Requested convergence on RMS density matrix=1.00D-08 within 128 cycles.
 Requested convergence on MAX density matrix=1.00D-06.
 Requested convergence on             energy=1.00D-06.
 No special actions if energy rises.

 Cycle   1  Pass 1  IDiag  1:
 Inv3:  Mode=1 IEnd=     5459403.
 Iteration    1 A*A^-1 deviation from unit magnitude is 5.33D-15 for   1329.
 Iteration    1 A*A^-1 deviation from orthogonality  is 1.95D-15 for   1342   1149.
 Iteration    1 A^-1*A deviation from unit magnitude is 5.33D-15 for   1329.
 Iteration    1 A^-1*A deviation from orthogonality  is 2.43D-15 for    381    350.
 E= -706.356879217783    
 DIIS: error= 6.19D-03 at cycle   1 NSaved=   1.
 NSaved= 1 IEnMin= 1 EnMin= -706.356879217783     IErMin= 1 ErrMin= 6.19D-03
 ErrMax= 6.19D-03  0.00D+00 EMaxC= 1.00D-01 BMatC= 1.05D-02 BMatP= 1.05D-02
 IDIUse=3 WtCom= 9.38D-01 WtEn= 6.19D-02
 Coeff-Com:  0.100D+01
 Coeff-En:   0.100D+01
 Coeff:      0.100D+01
 Gap=     0.566 Goal=   None    Shift=    0.000
 GapD=    0.566 DampG=2.000 DampE=1.000 DampFc=2.0000 IDamp=-1.
 RMSDP=1.81D-03 MaxDP=3.14D-02              OVMax= 4.18D-02

 Cycle   2  Pass 1  IDiag  1:
 E= -706.373401376265     Delta-E=       -0.016522158481 Rises=F Damp=F
 DIIS: error= 2.22D-03 at cycle   2 NSaved=   2.
 NSaved= 2 IEnMin= 2 EnMin= -706.373401376265     IErMin= 2 ErrMin= 2.22D-03
 ErrMax= 2.22D-03  0.00D+00 EMaxC= 1.00D-01 BMatC= 9.39D-04 BMatP= 1.05D-02
 IDIUse=3 WtCom= 9.78D-01 WtEn= 2.22D-02
 Coeff-Com:  0.105D+00 0.895D+00
 Coeff-En:   0.000D+00 0.100D+01
 Coeff:      0.103D+00 0.897D+00
 Gap=     0.113 Goal=   None    Shift=    0.000
 RMSDP=5.69D-04 MaxDP=1.80D-02 DE=-1.65D-02 OVMax= 2.79D-02

 Cycle   3  Pass 1  IDiag  1:
 E= -706.372213185683     Delta-E=        0.001188190582 Rises=F Damp=F
 DIIS: error= 3.33D-03 at cycle   3 NSaved=   3.
 NSaved= 3 IEnMin= 2 EnMin= -706.373401376265     IErMin= 2 ErrMin= 2.22D-03
 ErrMax= 3.33D-03  0.00D+00 EMaxC= 1.00D-01 BMatC= 2.47D-03 BMatP= 9.39D-04
 IDIUse=3 WtCom= 1.48D-01 WtEn= 8.52D-01
 Coeff-Com: -0.106D-01 0.633D+00 0.378D+00
 Coeff-En:   0.000D+00 0.686D+00 0.314D+00
 Coeff:     -0.157D-02 0.678D+00 0.324D+00
 Gap=     0.108 Goal=   None    Shift=    0.000
 RMSDP=3.33D-04 MaxDP=1.16D-02 DE= 1.19D-03 OVMax= 1.56D-02

 Cycle   4  Pass 1  IDiag  1:
 E= -706.374176673514     Delta-E=       -0.001963487831 Rises=F Damp=F
 DIIS: error= 6.01D-04 at cycle   4 NSaved=   4.
 NSaved= 4 IEnMin= 4 EnMin= -706.374176673514     IErMin= 4 ErrMin= 6.01D-04
 ErrMax= 6.01D-04  0.00D+00 EMaxC= 1.00D-01 BMatC= 6.63D-05 BMatP= 9.39D-04
 IDIUse=3 WtCom= 9.94D-01 WtEn= 6.01D-03
 Coeff-Com: -0.224D-01 0.255D+00 0.170D+00 0.597D+00
 Coeff-En:   0.000D+00 0.000D+00 0.000D+00 0.100D+01
 Coeff:     -0.223D-01 0.253D+00 0.169D+00 0.600D+00
 Gap=     0.107 Goal=   None    Shift=    0.000
 RMSDP=1.23D-04 MaxDP=3.42D-03 DE=-1.96D-03 OVMax= 2.97D-03

 Cycle   5  Pass 1  IDiag  1:
 E= -706.374231967879     Delta-E=       -0.000055294365 Rises=F Damp=F
 DIIS: error= 1.99D-04 at cycle   5 NSaved=   5.
 NSaved= 5 IEnMin= 5 EnMin= -706.374231967879     IErMin= 5 ErrMin= 1.99D-04
 ErrMax= 1.99D-04  0.00D+00 EMaxC= 1.00D-01 BMatC= 1.04D-05 BMatP= 6.63D-05
 IDIUse=3 WtCom= 9.98D-01 WtEn= 1.99D-03
 Coeff-Com: -0.688D-02 0.753D-01 0.626D-01 0.314D+00 0.555D+00
 Coeff-En:   0.000D+00 0.000D+00 0.000D+00 0.961D-01 0.904D+00
 Coeff:     -0.687D-02 0.752D-01 0.625D-01 0.314D+00 0.555D+00
 Gap=     0.108 Goal=   None    Shift=    0.000
 RMSDP=6.23D-05 MaxDP=2.27D-03 DE=-5.53D-05 OVMax= 2.43D-03

 Cycle   6  Pass 1  IDiag  1:
 E= -706.374243368571     Delta-E=       -0.000011400692 Rises=F Damp=F
 DIIS: error= 8.57D-05 at cycle   6 NSaved=   6.
 NSaved= 6 IEnMin= 6 EnMin= -706.374243368571     IErMin= 6 ErrMin= 8.57D-05
 ErrMax= 8.57D-05  0.00D+00 EMaxC= 1.00D-01 BMatC= 2.19D-06 BMatP= 1.04D-05
 IDIUse=1 WtCom= 1.00D+00 WtEn= 0.00D+00
 Coeff-Com: -0.217D-02 0.145D-01 0.177D-01 0.122D+00 0.357D+00 0.491D+00
 Coeff:     -0.217D-02 0.145D-01 0.177D-01 0.122D+00 0.357D+00 0.491D+00
 Gap=     0.108 Goal=   None    Shift=    0.000
 RMSDP=1.62D-05 MaxDP=4.70D-04 DE=-1.14D-05 OVMax= 5.70D-04

 Cycle   7  Pass 1  IDiag  1:
 E= -706.374245581912     Delta-E=       -0.000002213342 Rises=F Damp=F
 DIIS: error= 3.32D-05 at cycle   7 NSaved=   7.
 NSaved= 7 IEnMin= 7 EnMin= -706.374245581912     IErMin= 7 ErrMin= 3.32D-05
 ErrMax= 3.32D-05  0.00D+00 EMaxC= 1.00D-01 BMatC= 1.75D-07 BMatP= 2.19D-06
 IDIUse=1 WtCom= 1.00D+00 WtEn= 0.00D+00
 Coeff-Com: -0.585D-03-0.614D-04 0.324D-02 0.395D-01 0.167D+00 0.278D+00
 Coeff-Com:  0.513D+00
 Coeff:     -0.585D-03-0.614D-04 0.324D-02 0.395D-01 0.167D+00 0.278D+00
 Coeff:      0.513D+00
 Gap=     0.108 Goal=   None    Shift=    0.000
 RMSDP=4.66D-06 MaxDP=1.11D-04 DE=-2.21D-06 OVMax= 1.83D-04

 Cycle   8  Pass 1  IDiag  1:
 E= -706.374245725913     Delta-E=       -0.000000144000 Rises=F Damp=F
 DIIS: error= 1.93D-05 at cycle   8 NSaved=   8.
 NSaved= 8 IEnMin= 8 EnMin= -706.374245725913     IErMin= 8 ErrMin= 1.93D-05
 ErrMax= 1.93D-05  0.00D+00 EMaxC= 1.00D-01 BMatC= 4.83D-08 BMatP= 1.75D-07
 IDIUse=1 WtCom= 1.00D+00 WtEn= 0.00D+00
 Coeff-Com:  0.197D-03-0.370D-02-0.238D-02-0.248D-02 0.369D-01 0.609D-01
 Coeff-Com:  0.353D+00 0.558D+00
 Coeff:      0.197D-03-0.370D-02-0.238D-02-0.248D-02 0.369D-01 0.609D-01
 Coeff:      0.353D+00 0.558D+00
 Gap=     0.108 Goal=   None    Shift=    0.000
 RMSDP=2.13D-06 MaxDP=4.61D-05 DE=-1.44D-07 OVMax= 8.12D-05

 Cycle   9  Pass 1  IDiag  1:
 E= -706.374245767710     Delta-E=       -0.000000041797 Rises=F Damp=F
 DIIS: error= 5.26D-06 at cycle   9 NSaved=   9.
 NSaved= 9 IEnMin= 9 EnMin= -706.374245767710     IErMin= 9 ErrMin= 5.26D-06
 ErrMax= 5.26D-06  0.00D+00 EMaxC= 1.00D-01 BMatC= 4.26D-09 BMatP= 4.83D-08
 IDIUse=1 WtCom= 1.00D+00 WtEn= 0.00D+00
 Coeff-Com:  0.137D-03-0.211D-02-0.186D-02-0.504D-02 0.850D-02 0.665D-02
 Coeff-Com:  0.165D+00 0.329D+00 0.499D+00
 Coeff:      0.137D-03-0.211D-02-0.186D-02-0.504D-02 0.850D-02 0.665D-02
 Coeff:      0.165D+00 0.329D+00 0.499D+00
 Gap=     0.108 Goal=   None    Shift=    0.000
 RMSDP=1.07D-06 MaxDP=3.71D-05 DE=-4.18D-08 OVMax= 5.00D-05

 Cycle  10  Pass 1  IDiag  1:
 E= -706.374245773320     Delta-E=       -0.000000005610 Rises=F Damp=F
 DIIS: error= 8.50D-07 at cycle  10 NSaved=  10.
 NSaved=10 IEnMin=10 EnMin= -706.374245773320     IErMin=10 ErrMin= 8.50D-07
 ErrMax= 8.50D-07  0.00D+00 EMaxC= 1.00D-01 BMatC= 2.27D-10 BMatP= 4.26D-09
 IDIUse=1 WtCom= 1.00D+00 WtEn= 0.00D+00
 Coeff-Com:  0.344D-04-0.265D-03-0.479D-03-0.160D-02-0.114D-02-0.827D-02
 Coeff-Com:  0.100D-01 0.475D-01 0.170D+00 0.784D+00
 Coeff:      0.344D-04-0.265D-03-0.479D-03-0.160D-02-0.114D-02-0.827D-02
 Coeff:      0.100D-01 0.475D-01 0.170D+00 0.784D+00
 Gap=     0.108 Goal=   None    Shift=    0.000
 RMSDP=2.62D-07 MaxDP=7.43D-06 DE=-5.61D-09 OVMax= 9.01D-06

 Cycle  11  Pass 1  IDiag  1:
 E= -706.374245773609     Delta-E=       -0.000000000289 Rises=F Damp=F
 DIIS: error= 1.35D-07 at cycle  11 NSaved=  11.
 NSaved=11 IEnMin=11 EnMin= -706.374245773609     IErMin=11 ErrMin= 1.35D-07
 ErrMax= 1.35D-07  0.00D+00 EMaxC= 1.00D-01 BMatC= 7.23D-12 BMatP= 2.27D-10
 IDIUse=1 WtCom= 1.00D+00 WtEn= 0.00D+00
 Coeff-Com:  0.642D-05-0.117D-04-0.903D-04-0.404D-03-0.789D-03-0.314D-02
 Coeff-Com: -0.306D-02 0.408D-02 0.329D-01 0.270D+00 0.701D+00
 Coeff:      0.642D-05-0.117D-04-0.903D-04-0.404D-03-0.789D-03-0.314D-02
 Coeff:     -0.306D-02 0.408D-02 0.329D-01 0.270D+00 0.701D+00
 Gap=     0.108 Goal=   None    Shift=    0.000
 RMSDP=6.56D-08 MaxDP=2.68D-06 DE=-2.89D-10 OVMax= 1.08D-06

 Cycle  12  Pass 1  IDiag  1:
 E= -706.374245773619     Delta-E=       -0.000000000010 Rises=F Damp=F
 DIIS: error= 6.37D-08 at cycle  12 NSaved=  12.
 NSaved=12 IEnMin=12 EnMin= -706.374245773619     IErMin=12 ErrMin= 6.37D-08
 ErrMax= 6.37D-08  0.00D+00 EMaxC= 1.00D-01 BMatC= 1.26D-12 BMatP= 7.23D-12
 IDIUse=1 WtCom= 1.00D+00 WtEn= 0.00D+00
 Coeff-Com:  0.180D-06 0.149D-04 0.721D-05-0.346D-04-0.189D-03-0.434D-03
 Coeff-Com: -0.192D-02-0.205D-02-0.270D-02 0.452D-01 0.323D+00 0.639D+00
 Coeff:      0.180D-06 0.149D-04 0.721D-05-0.346D-04-0.189D-03-0.434D-03
 Coeff:     -0.192D-02-0.205D-02-0.270D-02 0.452D-01 0.323D+00 0.639D+00
 Gap=     0.108 Goal=   None    Shift=    0.000
 RMSDP=1.47D-08 MaxDP=3.10D-07 DE=-9.89D-12 OVMax= 5.69D-07

 Cycle  13  Pass 1  IDiag  1:
 E= -706.374245773617     Delta-E=        0.000000000002 Rises=F Damp=F
 DIIS: error= 1.47D-08 at cycle  13 NSaved=  13.
 NSaved=13 IEnMin=12 EnMin= -706.374245773619     IErMin=13 ErrMin= 1.47D-08
 ErrMax= 1.47D-08  0.00D+00 EMaxC= 1.00D-01 BMatC= 3.62D-14 BMatP= 1.26D-12
 IDIUse=1 WtCom= 1.00D+00 WtEn= 0.00D+00
 Coeff-Com: -0.445D-06 0.423D-05 0.932D-05 0.181D-04 0.106D-04 0.136D-03
 Coeff-Com: -0.187D-03-0.755D-03-0.385D-02-0.854D-02 0.294D-01 0.172D+00
 Coeff-Com:  0.812D+00
 Coeff:     -0.445D-06 0.423D-05 0.932D-05 0.181D-04 0.106D-04 0.136D-03
 Coeff:     -0.187D-03-0.755D-03-0.385D-02-0.854D-02 0.294D-01 0.172D+00
 Coeff:      0.812D+00
 Gap=     0.108 Goal=   None    Shift=    0.000
 RMSDP=7.03D-09 MaxDP=3.02D-07 DE= 2.05D-12 OVMax= 1.66D-07

 Error on total polarization charges =  0.02602
 SCF Done:  E(RB3LYP) =  -706.374245774     A.U. after   13 cycles
            NFock= 13  Conv=0.70D-08     -V/T= 2.0061
 KE= 7.021015361849D+02 PE=-2.097205708034D+03 EE= 4.785336443501D+02
 SMD-CDS (non-electrostatic) energy       (kcal/mol) =       0.45
 (included in total energy above)
 Leave Link  502 at Wed Jan  8 02:50:12 2020, MaxMem=  4294967296 cpu:             397.8 elap:              27.7
 (Enter /home/cwagen/sw/g16/g16/l701.exe)
 ... and contract with generalized density number  0.
 Compute integral first derivatives.
 D1PCM: PCM CHGder 1st derivatives, ID1Alg=3 FixD1E=F DoIter=F DoCFld=F I1PDM=0.
 GePol: Maximum number of non-zero 1st derivatives   =     417
 Leave Link  701 at Wed Jan  8 02:50:17 2020, MaxMem=  4294967296 cpu:              57.5 elap:               4.2
 (Enter /home/cwagen/sw/g16/g16/l702.exe)
 L702 exits ... SP integral derivatives will be done elsewhere.
 Leave Link  702 at Wed Jan  8 02:50:17 2020, MaxMem=  4294967296 cpu:               1.2 elap:               0.1
 (Enter /home/cwagen/sw/g16/g16/l703.exe)
 Integral derivatives from FoFJK, PRISM(SPDF).
 Compute integral first derivatives, UseDBF=F ICtDFT=           0.
 Calling FoFJK, ICntrl=      2127 FMM=F ISym2X=0 I1Cent= 0 IOpClX= 0 NMat=1 NMatS=1 NMatT=0.
 FoFJK:  IHMeth= 1 ICntrl=    2127 DoSepK=F KAlg= 0 I1Cent=           0 FoldK=F
 IRaf=         0 NMat=       1 IRICut=       1 DoRegI=T DoRafI=F ISym2E= 0 IDoP0=0 IntGTp=1.
 FoFCou: FMM=F IPFlag=           0 FMFlag=      100000 FMFlg1=         800
         NFxFlg=           0 DoJE=F BraDBF=F KetDBF=F FulRan=T
         wScrn=  0.000000 ICntrl=      2127 IOpCl=  0 I1Cent=           0 NGrid=           0
         NMat0=    1 NMatS0=      1 NMatT0=    0 NMatD0=    1 NMtDS0=    0 NMtDT0=    0
 Symmetry not used in FoFCou.
 Leave Link  703 at Wed Jan  8 02:50:19 2020, MaxMem=  4294967296 cpu:              32.1 elap:               2.3
 (Enter /home/cwagen/sw/g16/g16/l716.exe)
 Dipole        = 1.44286209D+00 3.87643504D+00-8.41636251D-01
 ***** Axes restored to original set *****
 -------------------------------------------------------------------
 Center     Atomic                   Forces (Hartrees/Bohr)
 Number     Number              X              Y              Z
 -------------------------------------------------------------------
      1        6           0.032703696   -0.052819095   -0.059241331
      2        8          -0.006067333    0.038440691    0.057438693
      3        6          -0.009661266    0.024435387    0.012768787
      4        1           0.000224785    0.000136293   -0.002148686
      5        1           0.000177121    0.000945617   -0.000969381
      6        1           0.002618602    0.002331594   -0.002618347
      7       17           0.006446252   -0.008686016   -0.002519172
      8        6          -0.028518128   -0.005129040   -0.003326986
      9        7           0.002076272    0.000344568    0.000616422
 -------------------------------------------------------------------
 Cartesian Forces:  Max     0.059241331 RMS     0.022804007
 Leave Link  716 at Wed Jan  8 02:50:21 2020, MaxMem=  4294967296 cpu:               0.9 elap:               0.1
 (Enter /home/cwagen/sw/g16/g16/l103.exe)

 GradGradGradGradGradGradGradGradGradGradGradGradGradGradGradGradGradGrad
 Berny optimization.
 Using GEDIIS/GDIIS optimizer.
 FormGI is forming the generalized inverse of G from B-inverse, IUseBI=4.
 Internal  Forces:  Max     0.062754614 RMS     0.016098706
 Search for a local minimum.
 Step number   2 out of a maximum of   41
 All quantities printed in internal units (Hartrees-Bohrs-Radians)
 RMS Force = .15776D-01 SwitMx=.10000D-02 MixMth= 1
 Mixed Optimization -- RFO/linear search
 Update second derivatives using D2CorX and points    1    2
 DE= -3.85D-02 DEPred=-2.98D-02 R= 1.29D+00
 TightC=F SS=  1.41D+00  RLast= 3.23D-01 DXNew= 5.0454D-01 9.7000D-01
 Trust test= 1.29D+00 RLast= 3.23D-01 DXMaxT set to 5.05D-01
 ITU=  1  0
 Use linear search instead of GDIIS.
     Eigenvalues ---    0.00230   0.04746   0.04751   0.05509   0.05657
     Eigenvalues ---    0.06176   0.08992   0.15860   0.16000   0.16034
     Eigenvalues ---    0.18440   0.25000   0.25283   0.26892   0.33920
     Eigenvalues ---    0.34000   0.34283   0.64568   1.220341000.00000
     Eigenvalues --- 1000.000001000.000001000.000001000.000001000.00000
     Eigenvalues --- 1000.000001000.000001000.000001000.000001000.00000
     Eigenvalues --- 1000.00000
 RFO step:  Lambda=-3.27341919D-03 EMin= 2.29997615D-03
 Quartic linear search produced a step of  0.68515.
 Iteration  1 RMS(Cart)=  0.07653229 RMS(Int)=  0.00951040
 Iteration  2 RMS(Cart)=  0.00820405 RMS(Int)=  0.00482437
 Iteration  3 RMS(Cart)=  0.00009615 RMS(Int)=  0.00482370
 Iteration  4 RMS(Cart)=  0.00000173 RMS(Int)=  0.00482370
 Iteration  5 RMS(Cart)=  0.00000002 RMS(Int)=  0.00482370
 Iteration  1 RMS(Cart)=  0.00000000 RMS(Int)=  0.00000000
 ITry= 1 IFail=0 DXMaxC= 2.17D-01 DCOld= 1.00D+10 DXMaxT= 5.05D-01 DXLimC= 3.00D+00 Rises=F
 Variable       Old X    -DE/DX   Delta X   Delta X   Delta X     New X
                                 (Linear)    (Quad)   (Total)
    R1        2.26561  -0.06275  -0.12789   0.01022  -0.11767   2.14794
    R2        2.88265  -0.01388  -0.04274  -0.01053  -0.05327   2.82938
    R3        6.04712  -0.01109   0.00000   0.00000   0.00000   6.04712
    R4        4.34637  -0.02634   0.00000   0.00000   0.00000   4.34637
    R5        2.06361  -0.00192  -0.00665   0.00120  -0.00545   2.05816
    R6        2.07119  -0.00043  -0.00239   0.00172  -0.00067   2.07052
    R7        2.06607   0.00063  -0.00178   0.00592   0.00413   2.07020
    R8        2.21340   0.00212   0.00286  -0.00038   0.00248   2.21588
    A1        2.16902   0.04345   0.11808   0.08699   0.19948   2.36850
    A2        1.94382  -0.01722  -0.05156  -0.04092  -0.08430   1.85952
    A3        1.88132  -0.00849  -0.00759   0.01535  -0.00887   1.87245
    A4        1.85101  -0.01776  -0.05014  -0.05209  -0.09622   1.75479
    A5        1.79411  -0.00222   0.01519  -0.02200  -0.02122   1.77289
    A6        1.78203  -0.00447  -0.03614   0.00237  -0.03650   1.74553
    A7        1.96320  -0.00021  -0.00739   0.01594   0.00837   1.97157
    A8        1.87521  -0.00070  -0.00289   0.00031  -0.00269   1.87252
    A9        1.84832  -0.00596  -0.03637   0.02070  -0.01599   1.83233
   A10        1.91903   0.00133   0.01060  -0.00753   0.00306   1.92209
   A11        1.93220   0.00233   0.01632  -0.01336   0.00256   1.93476
   A12        1.92404   0.00300   0.01952  -0.01530   0.00396   1.92800
   A13        3.08030  -0.00058  -0.00984   0.03158   0.02174   3.10204
   A14        2.89951   0.00080   0.00876  -0.01882  -0.01006   2.88945
    D1        3.08351   0.00663   0.02632   0.00415   0.03516   3.11867
    D2       -1.08539   0.00768   0.03301   0.00482   0.04235  -1.04303
    D3        0.97078   0.00779   0.03538  -0.00226   0.03767   1.00845
    D4       -0.91463   0.00167   0.00837  -0.03481  -0.02876  -0.94339
    D5        1.19966   0.00272   0.01507  -0.03414  -0.02157   1.17809
    D6       -3.02736   0.00283   0.01743  -0.04122  -0.02624  -3.05361
    D7        0.94944  -0.00977  -0.04232  -0.05723  -0.10162   0.84782
    D8        3.06373  -0.00872  -0.03562  -0.05656  -0.09443   2.96930
    D9       -1.16329  -0.00861  -0.03326  -0.06364  -0.09911  -1.26240
         Item               Value     Threshold  Converged?
 Maximum Force            0.062755     0.000450     NO 
 RMS     Force            0.015776     0.000300     NO 
 Maximum Displacement     0.217289     0.001800     NO 
 RMS     Displacement     0.077912     0.001200     NO 
 Predicted change in Energy=-1.719438D-02
 Lowest energy point so far.  Saving SCF results.
 GradGradGradGradGradGradGradGradGradGradGradGradGradGradGradGradGradGrad

 Leave Link  103 at Wed Jan  8 02:50:27 2020, MaxMem=  4294967296 cpu:              78.0 elap:               5.7
 (Enter /home/cwagen/sw/g16/g16/l202.exe)
                          Input orientation:                          
 ---------------------------------------------------------------------
 Center     Atomic      Atomic             Coordinates (Angstroms)
 Number     Number       Type             X           Y           Z
 ---------------------------------------------------------------------
      1          6           0       -0.149095   -0.466798   -0.310698
      2          8           0       -0.228118   -0.511143   -1.443723
      3          6           0       -0.347436   -1.432670    0.816017
      4          1           0       -0.145663   -0.993961    1.792248
      5          1           0       -1.384799   -1.781875    0.766721
      6          1           0        0.344291   -2.256332    0.608111
      7         17           0       -2.034126    1.937677    0.640696
      8          6           0        1.912900    0.416954    0.196411
      9          7           0        3.028104    0.767546    0.287959
 ---------------------------------------------------------------------
                    Distance matrix (angstroms):
                    1          2          3          4          5
     1  C    0.000000
     2  O    1.136642   0.000000
     3  C    1.497242   2.443332   0.000000
     4  H    2.168017   3.272831   1.089131   0.000000
     5  H    2.101719   2.799774   1.095672   1.791082   0.000000
     6  H    2.071249   2.753790   1.095505   1.798838   1.800006
     7  Cl   3.200000   3.688251   3.772917   3.672447   3.777906
     8  C    2.300000   2.852255   2.985655   2.962272   4.004362
     9  N    3.460721   3.903427   4.063750   3.929196   5.118835
                    6          7          8          9
     6  H    0.000000
     7  Cl   4.821581   0.000000
     8  C    3.126738   4.253117   0.000000
     9  N    4.055760   5.207668   1.172594   0.000000
 Stoichiometry    C3H3ClNO(1-)
 Framework group  C1[X(C3H3ClNO)]
 Deg. of freedom    21
 Full point group                 C1      NOp   1
 RotChk:  IX=0 Diff= 6.27D-02
 Largest Abelian subgroup         C1      NOp   1
 Largest concise Abelian subgroup C1      NOp   1
                         Standard orientation:                         
 ---------------------------------------------------------------------
 Center     Atomic      Atomic             Coordinates (Angstroms)
 Number     Number       Type             X           Y           Z
 ---------------------------------------------------------------------
      1          6           0        0.390359    0.852270    0.263554
      2          8           0        0.470841    1.153805    1.356511
      3          6           0        0.454475    1.564155   -1.052061
      4          1           0        0.349738    0.893365   -1.903692
      5          1           0       -0.348441    2.309663   -1.058339
      6          1           0        1.433538    2.055572   -1.060799
      7         17           0       -2.386392   -0.707148   -0.049287
      8          6           0        1.863069   -0.881210   -0.077284
      9          7           0        2.731384   -1.668403   -0.113806
 ---------------------------------------------------------------------
 Rotational constants (GHZ):           2.7334157           1.2495096           1.0291486
 Leave Link  202 at Wed Jan  8 02:50:27 2020, MaxMem=  4294967296 cpu:               1.3 elap:               0.1
 (Enter /home/cwagen/sw/g16/g16/l301.exe)
 Standard basis: 6-31+G(d) (6D, 7F)
 Ernie: Thresh=  0.10000D-02 Tol=  0.10000D-05 Strict=F.
 There are   124 symmetry adapted cartesian basis functions of A   symmetry.
 There are   124 symmetry adapted basis functions of A   symmetry.
   124 basis functions,   228 primitive gaussians,   124 cartesian basis functions
    27 alpha electrons       27 beta electrons
       nuclear repulsion energy       213.5446081682 Hartrees.
 IExCor=  402 DFT=T Ex+Corr=B3LYP ExCW=0 ScaHFX=  0.200000
 ScaDFX=  0.800000  0.720000  1.000000  0.810000 ScalE2=  1.000000  1.000000
 IRadAn=      5 IRanWt=     -1 IRanGd=            0 ICorTp=0 IEmpDi=  4
 NAtoms=    9 NActive=    9 NUniq=    9 SFac= 1.00D+00 NAtFMM=   60 NAOKFM=F Big=F
 Integral buffers will be    131072 words long.
 Raffenetti 2 integral format.
 Two-electron integral symmetry is turned on.
 ------------------------------------------------------------------------------
 Polarizable Continuum Model (PCM)
 =================================
 Model                : PCM.
 Atomic radii         : SMD-Coulomb.
 Polarization charges : Total charges.
 Charge compensation  : None.
 Solution method      : On-the-fly selection.
 Cavity type          : VdW (van der Waals Surface) (Alpha=1.000).
 Cavity algorithm     : GePol (No added spheres)
                        Default sphere list used, NSphG=    9.
                        Lebedev-Laikov grids with approx.  5.0 points / Ang**2.
                        Smoothing algorithm: York/Karplus (Gamma=1.0000).
                        Polarization charges: spherical gaussians, with
                                              point-specific exponents (IZeta= 3).
                        Self-potential: point-specific (ISelfS= 7).
                        Self-field    : sphere-specific E.n sum rule (ISelfD= 2).
 1st derivatives      : Analytical E(r).r(x)/FMM algorithm (CHGder, D1EAlg=3).
                        Cavity 1st derivative terms included.
 Solvent              : TetraHydroFuran, Eps=   7.425700 Eps(inf)=   1.974025
 ------------------------------------------------------------------------------
 Spheres list:
 ISph  on   Nord     Re0    Alpha      Xe            Ye            Ze
    1   C      1    1.8500  1.000      0.390359      0.852270      0.263554
    2   O      2    2.2940  1.000      0.470841      1.153805      1.356511
    3   C      3    1.8500  1.000      0.454475      1.564155     -1.052061
    4   H      4    1.2000  1.000      0.349738      0.893365     -1.903692
    5   H      5    1.2000  1.000     -0.348441      2.309663     -1.058339
    6   H      6    1.2000  1.000      1.433538      2.055572     -1.060799
    7  Cl      7    2.3800  1.000     -2.386392     -0.707148     -0.049287
    8   C      8    1.8500  1.000      1.863069     -0.881210     -0.077284
    9   N      9    1.8900  1.000      2.731384     -1.668403     -0.113806
 ------------------------------------------------------------------------------
 GePol: Number of generator spheres                  =       9
 GePol: Total number of spheres                      =       9
 GePol: Number of exposed spheres                    =       9 (100.00%)
 GePol: Number of points                             =    1345
 GePol: Average weight of points                     =       0.14
 GePol: Minimum weight of points                     =   0.15D-07
 GePol: Maximum weight of points                     =    0.18138
 GePol: Number of points with low weight             =      29
 GePol: Fraction of low-weight points (<1% of avg)   =       2.16%
 GePol: Cavity surface area                          =    182.215 Ang**2
 GePol: Cavity volume                                =    159.840 Ang**3
 ------------------------------------------------------------------------------
 Atomic radii for non-electrostatic terms: SMD-CDS.
[...]
 Mixed Optimization -- En-DIIS/RFO-DIIS
 Swapping is turned off.
 Update second derivatives using D2CorX and points    6    7    8    9   10
                                                     11   12   13   14   15
                                                     16   17   18   19   20
 DE= -3.57D-07 DEPred=-3.54D-08 R= 1.01D+01
 Trust test= 1.01D+01 RLast= 2.90D-03 DXMaxT set to 8.07D-01
 ITU=  0  1  1  0  1  1  1  1  0  1 -1  1  1  1  1  1  1  1  1  0
     Eigenvalues ---    0.00147   0.00825   0.01072   0.02412   0.03642
     Eigenvalues ---    0.04398   0.05498   0.06280   0.15866   0.16283
     Eigenvalues ---    0.16548   0.19147   0.21195   0.29312   0.33564
     Eigenvalues ---    0.34047   0.34291   1.06343   1.222001000.00000
     Eigenvalues --- 1000.000001000.000001000.000001000.000001000.00000
     Eigenvalues --- 1000.000001000.000001000.000001000.000001000.00000
     Eigenvalues --- 1000.00000
 En-DIIS/RFO-DIIS/Sim-DIIS IScMMF=       -3 using points:    20   19   18   17   16   15   14   13   12   11
 RFO step:  Lambda=-5.17640330D-07.
 NNeg= 0 NGDIIS=10 SimSw=  2.50D-01 Rises=F DC= -3.57D-07 SmlDif=  1.00D-05
 NRisDI= 0 DoIntr=F SqrtH=F CThrHd= 10.0 CDAdj=  3.0
 RMS Error=  0.2213617639D-03 NUsed=10 OKEnD=F EnDIS=F
 InvSVX:  RCond= 1.02D-10 Info=           0 Equed=N FErr=  4.55D-10 BErr=  6.74D-17
 DIIS inversion failure, remove point  10.
 InvSVX:  RCond= 4.36D-10 Info=           0 Equed=N FErr=  5.57D-11 BErr=  7.25D-17
 DIIS inversion failure, remove point   9.
 InvSVX:  RCond= 2.40D-09 Info=           0 Equed=N FErr=  1.25D-11 BErr=  6.64D-17
 DIIS inversion failure, remove point   8.
 InvSVX:  RCond= 1.74D-09 Info=           0 Equed=N FErr=  1.16D-11 BErr=  8.19D-17
 DIIS inversion failure, remove point   7.
 InvSVX:  RCond= 3.76D-09 Info=           0 Equed=N FErr=  4.00D-12 BErr=  9.88D-17
 DIIS inversion failure, remove point   6.
 InvSVX:  RCond= 3.73D-08 Info=           0 Equed=N FErr=  1.44D-13 BErr=  9.89D-17
 DIIS inversion failure, remove point   5.
 InvSVX:  RCond= 6.62D-08 Info=           0 Equed=N FErr=  4.39D-14 BErr=  2.61D-17
 DIIS inversion failure, remove point   4.
 InvSVX:  RCond= 2.68D-07 Info=           0 Equed=N FErr=  6.38D-15 BErr=  2.79D-17
 RFO-DIIS uses    3 points instead of   10
 DidBck=F Rises=F RFO-DIIS coefs:    1.24785   -0.20316   -0.04470    0.00000    0.00000
                  RFO-DIIS coefs:    0.00000    0.00000    0.00000    0.00000    0.00000
 Iteration  1 RMS(Cart)=  0.00043311 RMS(Int)=  0.00000007
 Iteration  2 RMS(Cart)=  0.00000008 RMS(Int)=  0.00000002
 Iteration  1 RMS(Cart)=  0.00000000 RMS(Int)=  0.00000000
 ITry= 1 IFail=0 DXMaxC= 1.12D-03 DCOld= 1.00D+10 DXMaxT= 8.07D-01 DXLimC= 3.00D+00 Rises=F
 Variable       Old X    -DE/DX   Delta X   Delta X   Delta X     New X
                                 (Linear)    (Quad)   (Total)
    R1        2.17162   0.00000   0.00000   0.00000   0.00000   2.17161
    R2        2.75788   0.00001   0.00000   0.00002   0.00002   2.75790
    R3        6.04712  -0.00057   0.00000   0.00000   0.00000   6.04712
    R4        4.34637  -0.02223   0.00000   0.00000   0.00000   4.34637
    R5        2.05892   0.00000   0.00000   0.00000   0.00000   2.05891
    R6        2.07001   0.00000  -0.00001  -0.00001  -0.00001   2.07000
    R7        2.07369   0.00000   0.00001   0.00000   0.00001   2.07369
    R8        2.21593   0.00000   0.00000   0.00000   0.00000   2.21593
    A1        2.59944  -0.00001   0.00002  -0.00003  -0.00002   2.59942
    A2        1.66209   0.00000  -0.00032   0.00003  -0.00028   1.66181
    A3        1.91923   0.00004   0.00005   0.00015   0.00019   1.91942
    A4        1.48862   0.00000   0.00012   0.00009   0.00021   1.48883
    A5        1.74468  -0.00003  -0.00006  -0.00013  -0.00019   1.74448
    A6        1.81175   0.00000   0.00037  -0.00011   0.00026   1.81201
    A7        1.91566   0.00000   0.00002   0.00000   0.00002   1.91567
    A8        1.88309   0.00000   0.00002   0.00002   0.00004   1.88312
    A9        1.86623   0.00000  -0.00002  -0.00002  -0.00004   1.86619
   A10        1.94061   0.00000   0.00004   0.00005   0.00009   1.94070
   A11        1.91432   0.00000  -0.00004  -0.00004  -0.00008   1.91424
   A12        1.94213   0.00000  -0.00001  -0.00001  -0.00003   1.94210
   A13        3.14766  -0.00001  -0.00010  -0.00030  -0.00040   3.14727
   A14        3.06352  -0.00001   0.00022  -0.00031  -0.00008   3.06343
    D1       -2.47497   0.00000  -0.00016  -0.00021  -0.00037  -2.47535
    D2       -0.35786   0.00000  -0.00009  -0.00014  -0.00023  -0.35809
    D3        1.73288   0.00000  -0.00011  -0.00016  -0.00027   1.73261
    D4       -0.86361   0.00000  -0.00057  -0.00001  -0.00057  -0.86418
    D5        1.25351   0.00000  -0.00050   0.00006  -0.00043   1.25307
    D6       -2.93894   0.00000  -0.00051   0.00005  -0.00046  -2.93941
    D7        0.93786   0.00000  -0.00016  -0.00010  -0.00026   0.93760
    D8        3.05498   0.00000  -0.00009  -0.00003  -0.00012   3.05486
    D9       -1.13747   0.00000  -0.00011  -0.00004  -0.00015  -1.13763
         Item               Value     Threshold  Converged?
 Maximum Force            0.000035     0.000450     YES
 RMS     Force            0.000009     0.000300     YES
 Maximum Displacement     0.001121     0.001800     YES
 RMS     Displacement     0.000433     0.001200     YES
 Predicted change in Energy=-1.143864D-08
 Optimization completed.
    -- Stationary point found.
                           ----------------------------
                           !   Optimized Parameters   !
                           ! (Angstroms and Degrees)  !
 --------------------------                            --------------------------
 ! Name  Definition              Value          Derivative Info.                !
 --------------------------------------------------------------------------------
 ! R1    R(1,2)                  1.1492         -DE/DX =    0.0                 !
 ! R2    R(1,3)                  1.4594         -DE/DX =    0.0                 !
 ! R3    R(1,7)                  3.2            -DE/DX =   -0.0006              !
 ! R4    R(1,8)                  2.3            -DE/DX =   -0.0222              !
 ! R5    R(3,4)                  1.0895         -DE/DX =    0.0                 !
 ! R6    R(3,5)                  1.0954         -DE/DX =    0.0                 !
 ! R7    R(3,6)                  1.0973         -DE/DX =    0.0                 !
 ! R8    R(8,9)                  1.1726         -DE/DX =    0.0                 !
 ! A1    A(2,1,3)              148.9369         -DE/DX =    0.0                 !
 ! A2    A(2,1,7)               95.2308         -DE/DX =    0.0                 !
 ! A3    A(2,1,8)              109.9635         -DE/DX =    0.0                 !
 ! A4    A(3,1,7)               85.2917         -DE/DX =    0.0                 !
 ! A5    A(3,1,8)               99.9627         -DE/DX =    0.0                 !
 ! A6    A(7,1,8)              103.8055         -DE/DX =    0.0                 !
 ! A7    A(1,3,4)              109.759          -DE/DX =    0.0                 !
 ! A8    A(1,3,5)              107.8931         -DE/DX =    0.0                 !
 ! A9    A(1,3,6)              106.927          -DE/DX =    0.0                 !
 ! A10   A(4,3,5)              111.1886         -DE/DX =    0.0                 !
 ! A11   A(4,3,6)              109.6823         -DE/DX =    0.0                 !
 ! A12   A(5,3,6)              111.2759         -DE/DX =    0.0                 !
 ! A13   L(1,8,9,6,-1)         180.3479         -DE/DX =    0.0                 !
 ! A14   L(1,8,9,6,-2)         175.5265         -DE/DX =    0.0                 !
 ! D1    D(2,1,3,4)           -141.8055         -DE/DX =    0.0                 !
 ! D2    D(2,1,3,5)            -20.5037         -DE/DX =    0.0                 !
 ! D3    D(2,1,3,6)             99.2866         -DE/DX =    0.0                 !
 ! D4    D(7,1,3,4)            -49.4812         -DE/DX =    0.0                 !
 ! D5    D(7,1,3,5)             71.8206         -DE/DX =    0.0                 !
 ! D6    D(7,1,3,6)           -168.3891         -DE/DX =    0.0                 !
 ! D7    D(8,1,3,4)             53.7354         -DE/DX =    0.0                 !
 ! D8    D(8,1,3,5)            175.0372         -DE/DX =    0.0                 !
 ! D9    D(8,1,3,6)            -65.1725         -DE/DX =    0.0                 !
 --------------------------------------------------------------------------------
 Lowest energy point so far.  Saving SCF results.
 Largest change from initial coordinates is atom    4       0.454 Angstoms.
 GradGradGradGradGradGradGradGradGradGradGradGradGradGradGradGradGradGrad

 Leave Link  103 at Wed Jan  8 03:04:28 2020, MaxMem=  4294967296 cpu:              73.8 elap:               5.3
 (Enter /home/cwagen/sw/g16/g16/l202.exe)
                          Input orientation:                          
 ---------------------------------------------------------------------
 Center     Atomic      Atomic             Coordinates (Angstroms)
 Number     Number       Type             X           Y           Z
 ---------------------------------------------------------------------
      1          6           0       -0.072317   -0.570533   -0.413828
      2          8           0       -0.316915   -0.336592   -1.512024
      3          6           0       -0.354886   -1.340657    0.793208
      4          1           0       -0.247513   -0.703314    1.670332
      5          1           0       -1.374364   -1.732885    0.711214
      6          1           0        0.382087   -2.152680    0.833938
      7         17           0       -2.102800    1.583024    0.802450
      8          6           0        2.001691    0.265620    0.124075
      9          7           0        3.081074    0.667417    0.344378
 ---------------------------------------------------------------------
                    Distance matrix (angstroms):
                    1          2          3          4          5
     1  C    0.000000
     2  O    1.149170   0.000000
     3  C    1.459408   2.514694   0.000000
     4  H    2.095720   3.204167   1.089532   0.000000
     5  H    2.076562   2.830304   1.095401   1.802697   0.000000
     6  H    2.065573   3.048002   1.097347   1.787907   1.810086
     7  Cl   3.200000   3.497299   3.406347   3.069633   3.396203
     8  C    2.300000   2.900933   2.929389   2.896318   3.966926
     9  N    3.471494   4.000073   4.004951   3.836215   5.074145
                    6          7          8          9
     6  H    0.000000
     7  Cl   4.486774   0.000000
     8  C    2.995863   4.363782   0.000000
     9  N    3.934101   5.284005   1.172622   0.000000
 Stoichiometry    C3H3ClNO(1-)
 Framework group  C1[X(C3H3ClNO)]
 Deg. of freedom    21
 Full point group                 C1      NOp   1
 RotChk:  IX=2 Diff= 9.66D-16
 Largest Abelian subgroup         C1      NOp   1
 Largest concise Abelian subgroup C1      NOp   1
                         Standard orientation:                         
 ---------------------------------------------------------------------
 Center     Atomic      Atomic             Coordinates (Angstroms)
 Number     Number       Type             X           Y           Z
 ---------------------------------------------------------------------
      1          6           0        0.401644    0.935794    0.220014
      2          8           0        0.261429    1.213465    1.326283
      3          6           0        0.172194    1.250076   -1.186560
      4          1           0       -0.025710    0.333436   -1.741255
      5          1           0       -0.677940    1.938523   -1.243249
      6          1           0        1.090102    1.719007   -1.563016
      7         17           0       -2.293809   -0.775412    0.004836
      8          6           0        2.067736   -0.635830    0.009934
      9          7           0        2.952489   -1.402416   -0.057897
 ---------------------------------------------------------------------
 Rotational constants (GHZ):           3.0549920           1.2197376           1.0621682
 Leave Link  202 at Wed Jan  8 03:04:29 2020, MaxMem=  4294967296 cpu:               2.4 elap:               0.2
 (Enter /home/cwagen/sw/g16/g16/l601.exe)
 Copying SCF densities to generalized density rwf, IOpCl= 0 IROHF=0.

 **********************************************************************

            Population analysis using the SCF density.

 **********************************************************************

 Orbital symmetries:
       Occupied  (A) (A) (A) (A) (A) (A) (A) (A) (A) (A) (A) (A)
                 (A) (A) (A) (A) (A) (A) (A) (A) (A) (A) (A) (A)
                 (A) (A) (A)
       Virtual   (A) (A) (A) (A) (A) (A) (A) (A) (A) (A) (A) (A)
                 (A) (A) (A) (A) (A) (A) (A) (A) (A) (A) (A) (A)
                 (A) (A) (A) (A) (A) (A) (A) (A) (A) (A) (A) (A)
                 (A) (A) (A) (A) (A) (A) (A) (A) (A) (A) (A) (A)
                 (A) (A) (A) (A) (A) (A) (A) (A) (A) (A) (A) (A)
                 (A) (A) (A) (A) (A) (A) (A) (A) (A) (A) (A) (A)
                 (A) (A) (A) (A) (A) (A) (A) (A) (A) (A) (A) (A)
                 (A) (A) (A) (A) (A) (A) (A) (A) (A) (A) (A) (A)
                 (A)
 The electronic state is 1-A.
 Alpha  occ. eigenvalues -- -101.41528 -19.25653 -14.29903 -10.38112 -10.22626
 Alpha  occ. eigenvalues --  -10.17657  -9.32856  -7.08658  -7.08629  -7.08623
 Alpha  occ. eigenvalues --   -1.16223  -0.85640  -0.79612  -0.66748  -0.57374
 Alpha  occ. eigenvalues --   -0.50762  -0.50245  -0.49471  -0.42013  -0.41769
 Alpha  occ. eigenvalues --   -0.38075  -0.30163  -0.30123  -0.28211  -0.21509
 Alpha  occ. eigenvalues --   -0.21335  -0.21300
 Alpha virt. eigenvalues --   -0.05882  -0.04462   0.02209   0.04510   0.04566
 Alpha virt. eigenvalues --    0.05366   0.06673   0.07236   0.08612   0.09680
 Alpha virt. eigenvalues --    0.09892   0.10162   0.10674   0.12524   0.13248
 Alpha virt. eigenvalues --    0.13711   0.13776   0.16195   0.16751   0.19268
 Alpha virt. eigenvalues --    0.20892   0.22374   0.23662   0.24632   0.25005
 Alpha virt. eigenvalues --    0.25570   0.28294   0.28411   0.30608   0.33644
 Alpha virt. eigenvalues --    0.35627   0.39545   0.49060   0.57863   0.60227
 Alpha virt. eigenvalues --    0.65025   0.65185   0.68387   0.69597   0.70343
 Alpha virt. eigenvalues --    0.72063   0.74831   0.78121   0.81110   0.81957
 Alpha virt. eigenvalues --    0.85531   0.86703   0.93730   0.96447   0.98136
 Alpha virt. eigenvalues --    0.99343   0.99518   0.99678   1.00689   1.02420
 Alpha virt. eigenvalues --    1.02765   1.07367   1.11376   1.16414   1.18913
 Alpha virt. eigenvalues --    1.22928   1.25228   1.26856   1.38162   1.39719
 Alpha virt. eigenvalues --    1.43814   1.49005   1.55338   1.57341   1.57900
 Alpha virt. eigenvalues --    1.58624   1.60780   1.76095   1.81820   1.82756
 Alpha virt. eigenvalues --    1.87220   1.99616   2.00179   2.00799   2.06847
 Alpha virt. eigenvalues --    2.22784   2.26584   2.32314   2.51884   2.63221
 Alpha virt. eigenvalues --    2.63791   2.66266   2.68798   2.94129   3.08135
 Alpha virt. eigenvalues --    3.20802   4.02395   4.19698   4.24241   4.32404
 Alpha virt. eigenvalues --    4.41376   4.51175
          Condensed to atoms (all electrons):
               1          2          3          4          5          6
     1  C    5.120778   0.517434  -0.088895  -0.060627  -0.092475  -0.004574
     2  O    0.517434   7.764994  -0.017229   0.004519   0.001862  -0.002145
     3  C   -0.088895  -0.017229   5.849506   0.393581   0.391466   0.344361
     4  H   -0.060627   0.004519   0.393581   0.378456  -0.016312  -0.018926
     5  H   -0.092475   0.001862   0.391466  -0.016312   0.421660  -0.019973
     6  H   -0.004574  -0.002145   0.344361  -0.018926  -0.019973   0.413993
     7  Cl   0.148733  -0.035454  -0.069570  -0.005383  -0.003958   0.003165
     8  C   -0.190100  -0.054440  -0.077495  -0.002246   0.023456  -0.018894
     9  N    0.000583   0.000129  -0.008017  -0.000284  -0.000129  -0.000160
               7          8          9
     1  C    0.148733  -0.190100   0.000583
     2  O   -0.035454  -0.054440   0.000129
     3  C   -0.069570  -0.077495  -0.008017
     4  H   -0.005383  -0.002246  -0.000284
     5  H   -0.003958   0.023456  -0.000129
     6  H    0.003165  -0.018894  -0.000160
     7  Cl  17.951322  -0.055978  -0.000340
     8  C   -0.055978   5.851839   0.646511
     9  N   -0.000340   0.646511   6.983061
 Mulliken charges:
               1
     1  C    0.649144
     2  O   -0.179670
     3  C   -0.717708
     4  H    0.327221
     5  H    0.294404
     6  H    0.303152
     7  Cl  -0.932537
     8  C   -0.122653
     9  N   -0.621354
 Sum of Mulliken charges =  -1.00000
 Mulliken charges with hydrogens summed into heavy atoms:
               1
     1  C    0.649144
     2  O   -0.179670
     3  C    0.207070
     7  Cl  -0.932537
     8  C   -0.122653
     9  N   -0.621354
 Electronic spatial extent (au):  <R**2>=           1102.3680
 Charge=             -1.0000 electrons
 Dipole moment (field-independent basis, Debye):
    X=              2.9332    Y=             10.2240    Z=             -2.8966  Tot=             11.0238
 Quadrupole moment (field-independent basis, Debye-Ang):
   XX=            -94.9196   YY=            -51.1190   ZZ=            -44.7876
   XY=              4.1203   XZ=              0.0101   YZ=             -4.0752
 Traceless Quadrupole moment (field-independent basis, Debye-Ang):
   XX=            -31.3109   YY=             12.4897   ZZ=             18.8211
   XY=              4.1203   XZ=              0.0101   YZ=             -4.0752
 Octapole moment (field-independent basis, Debye-Ang**2):
  XXX=            -11.8257  YYY=             38.8200  ZZZ=             -4.1242  XYY=             -8.4182
  XXY=             64.3204  XXZ=              1.4210  XZZ=              2.2151  YZZ=              8.6746
  YYZ=             -4.6640  XYZ=             -1.8663
 Hexadecapole moment (field-independent basis, Debye-Ang**3):
 XXXX=          -1490.7004 YYYY=           -367.9864 ZZZZ=           -182.0926 XXXY=             74.5700
 XXXZ=              6.1016 YYYX=             26.9692 YYYZ=             -7.0856 ZZZX=             -0.3213
 ZZZY=             -3.6708 XXYY=           -313.3146 XXZZ=           -218.1463 YYZZ=            -88.1059
 XXYZ=             -4.5852 YYXZ=              0.6471 ZZXY=              2.7395
 N-N= 2.162453254411D+02 E-N=-2.109442949181D+03  KE= 7.023597792725D+02
 No NMR shielding tensors so no spin-rotation constants.
 Leave Link  601 at Wed Jan  8 03:04:30 2020, MaxMem=  4294967296 cpu:              18.2 elap:               1.3
 (Enter /home/cwagen/sw/g16/g16/l9999.exe)
 1\1\GINC-NODE004\FOpt\RB3LYP\6-31+G(d)\C3H3Cl1N1O1(1-)\CWAGEN\08-Jan-2
 020\0\\#p opt=modredundant b3lyp/6-31+g(d) scrf=(smd, solvent=tetrahyd
 rofuran)\\title\\-1,1\C,-0.0723169722,-0.5705334321,-0.413827555\O,-0.
 3169146631,-0.3365921425,-1.5120239683\C,-0.3548858664,-1.3406570082,0
 .7932084166\H,-0.2475127795,-0.7033141272,1.670331556\H,-1.3743642017,
 -1.7328854654,0.7112140029\H,0.3820872417,-2.1526803746,0.8339381409\C
 l,-2.1028000417,1.583023603,0.8024497935\C,2.0016907767,0.2656199807,0
 .1240751501\N,3.0810735861,0.6674174364,0.3443776034\\Version=AS64L-G1
 6RevA.03\State=1-A\HF=-706.4004067\RMSD=4.459e-09\RMSF=6.036e-03\Dipol
 e=-0.1168853,-4.2924016,-0.6100633\Quadrupole=-22.0014503,11.1492501,1
 0.8522002,6.4761905,2.6804801,-4.2821212\PG=C01 [X(C3H3Cl1N1O1)]\\@


 I HAVE NOT FAILED, I HAVE ONLY DISCOVERED 10,000
 WAYS THAT DIDN'T WORK.  -- THOMAS A. EDISON
 Job cpu time:       0 days  3 hours 28 minutes 19.8 seconds.
 Elapsed time:       0 days  0 hours 15 minutes 32.9 seconds.
 File lengths (MBytes):  RWF=     42 Int=      0 D2E=      0 Chk=      3 Scr=      1
 Normal termination of Gaussian 16 at Wed Jan  8 03:04:30 2020.
