 Entering Gaussian System, Link 0=g16
 Input=scan_260_200.gjf
 Output=scan_260_200.out
 Initial command:
 /home/cwagen/sw/g16/g16/l1.exe "/scratch/users/cwagen/cwagen_scan_260_200/Gau-3664.inp" -scrdir="/scratch/users/cwagen/cwagen_scan_260_200/"
 Entering Link 1 = /home/cwagen/sw/g16/g16/l1.exe PID=      3665.
  
 Copyright (c) 1988,1990,1992,1993,1995,1998,2003,2009,2016,
            Gaussian, Inc.  All Rights Reserved.
  
 This is part of the Gaussian(R) 16 program.  It is based on
 the Gaussian(R) 09 system (copyright 2009, Gaussian, Inc.),
 the Gaussian(R) 03 system (copyright 2003, Gaussian, Inc.),
 the Gaussian(R) 98 system (copyright 1998, Gaussian, Inc.),
 the Gaussian(R) 94 system (copyright 1995, Gaussian, Inc.),
 the Gaussian 92(TM) system (copyright 1992, Gaussian, Inc.),
 the Gaussian 90(TM) system (copyright 1990, Gaussian, Inc.),
 the Gaussian 88(TM) system (copyright 1988, Gaussian, Inc.),
 the Gaussian 86(TM) system (copyright 1986, Carnegie Mellon
 University), and the Gaussian 82(TM) system (copyright 1983,
 Carnegie Mellon University). Gaussian is a federally registered
 trademark of Gaussian, Inc.
  
 This software contains proprietary and confidential information,
 including trade secrets, belonging to Gaussian, Inc.
  
 This software is provided under written license and may be
 used, copied, transmitted, or stored only in accord with that
 written license.
  
 The following legend is applicable only to US Government
 contracts under FAR:
  
                    RESTRICTED RIGHTS LEGEND
  
 Use, reproduction and disclosure by the US Government is
 subject to restrictions as set forth in subparagraphs (a)
 and (c) of the Commercial Computer Software - Restricted
 Rights clause in FAR 52.227-19.
  
 Gaussian, Inc.
 340 Quinnipiac St., Bldg. 40, Wallingford CT 06492
  
  
 ---------------------------------------------------------------
 Warning -- This program may not be used in any manner that
 competes with the business of Gaussian, Inc. or will provide
 assistance to any competitor of Gaussian, Inc.  The licensee
 of this program is prohibited from giving any competitor of
 Gaussian, Inc. access to this program.  By using this program,
 the user acknowledges that Gaussian, Inc. is engaged in the
 business of creating and licensing software in the field of
 computational chemistry and represents and warrants to the
 licensee that it is not a competitor of Gaussian, Inc. and that
 it will not use this program in any manner prohibited above.
 ---------------------------------------------------------------
  

 Cite this work as:
 Gaussian 16, Revision A.03,
 M. J. Frisch, G. W. Trucks, H. B. Schlegel, G. E. Scuseria, 
 M. A. Robb, J. R. Cheeseman, G. Scalmani, V. Barone, 
 G. A. Petersson, H. Nakatsuji, X. Li, M. Caricato, A. V. Marenich, 
 J. Bloino, B. G. Janesko, R. Gomperts, B. Mennucci, H. P. Hratchian, 
 J. V. Ortiz, A. F. Izmaylov, J. L. Sonnenberg, D. Williams-Young, 
 F. Ding, F. Lipparini, F. Egidi, J. Goings, B. Peng, A. Petrone, 
 T. Henderson, D. Ranasinghe, V. G. Zakrzewski, J. Gao, N. Rega, 
 G. Zheng, W. Liang, M. Hada, M. Ehara, K. Toyota, R. Fukuda, 
 J. Hasegawa, M. Ishida, T. Nakajima, Y. Honda, O. Kitao, H. Nakai, 
 T. Vreven, K. Throssell, J. A. Montgomery, Jr., J. E. Peralta, 
 F. Ogliaro, M. J. Bearpark, J. J. Heyd, E. N. Brothers, K. N. Kudin, 
 V. N. Staroverov, T. A. Keith, R. Kobayashi, J. Normand, 
 K. Raghavachari, A. P. Rendell, J. C. Burant, S. S. Iyengar, 
 J. Tomasi, M. Cossi, J. M. Millam, M. Klene, C. Adamo, R. Cammi, 
 J. W. Ochterski, R. L. Martin, K. Morokuma, O. Farkas, 
 J. B. Foresman, and D. J. Fox, Gaussian, Inc., Wallingford CT, 2016.
 
 ******************************************
 Gaussian 16:  AS64L-G16RevA.03 25-Dec-2016
                 8-Jan-2020 
 ******************************************
 %nprocshared=16
 Will use up to   16 processors via shared memory.
 %mem=32GB
 ----------------------------------------------------------------------
 #p opt=modredundant b3lyp/6-31+g(d) scrf=(smd, solvent=tetrahydrofuran
 )
 ----------------------------------------------------------------------
 1/18=120,19=15,26=3,38=1/1,3;
 2/9=110,12=2,17=6,18=5,40=1/2;
 3/5=1,6=6,7=11,11=2,25=1,30=1,70=32201,71=1,72=20,74=-5/1,2,3;
 4//1;
 5/5=2,38=5,53=20/2;
 6/7=2,8=2,9=2,10=2,28=1/1;
 7//1,2,3,16;
 1/18=20,19=15,26=3/3(2);
 2/9=110/2;
 99//99;
 2/9=110/2;
 3/5=1,6=6,7=11,11=2,25=1,30=1,70=32205,71=1,72=20,74=-5/1,2,3;
 4/5=5,16=3,69=1/1;
 5/5=2,38=5,53=20/2;
 7//1,2,3,16;
 1/18=20,19=15,26=3/3(-5);
 2/9=110/2;
 6/7=2,8=2,9=2,10=2,19=2,28=1/1;
 99/9=1/99;
 Leave Link    1 at Wed Jan  8 01:28:19 2020, MaxMem=  4294967296 cpu:               1.5 elap:               0.1
 (Enter /home/cwagen/sw/g16/g16/l101.exe)
 -----
 title
 -----
 Symbolic Z-matrix:
 Charge = -1 Multiplicity = 1
 6                    -0.19426  -0.292    -0.21291 
 8                    -0.25532  -0.66526  -1.45426 
 6                    -0.33095  -1.45422   0.81632 
 1                    -0.18039  -1.13044   1.85373 
 1                    -1.34067  -1.87301   0.71427 
 1                     0.39707  -2.23395   0.57058 
 17                   -1.75098   1.68284   0.44789 
 6                     1.65998   0.35731   0.1615 
 7                     2.79455   0.63761   0.1918 
 
 Add virtual bond connecting atoms C8         and C1         Dist= 3.78D+00.
 Add virtual bond connecting atoms Cl7        and C1         Dist= 4.91D+00.
 The following ModRedundant input section has been read:
 B       1       7 F                                                           
 B       1       8 F                                                           
 
 ITRead=  0  0  0  0  0  0  0  0  0
 MicOpt= -1 -1 -1 -1 -1 -1 -1 -1 -1
 NAtoms=      9 NQM=        9 NQMF=       0 NMMI=      0 NMMIF=      0
                NMic=       0 NMicF=      0.
                    Isotopes and Nuclear Properties:
 (Nuclear quadrupole moments (NQMom) in fm**2, nuclear magnetic moments (NMagM)
  in nuclear magnetons)

  Atom         1           2           3           4           5           6           7           8           9
 IAtWgt=          12          16          12           1           1           1          35          12          14
 AtmWgt=  12.0000000  15.9949146  12.0000000   1.0078250   1.0078250   1.0078250  34.9688527  12.0000000  14.0030740
 NucSpn=           0           0           0           1           1           1           3           0           2
 AtZEff=   0.0000000   0.0000000   0.0000000   0.0000000   0.0000000   0.0000000   0.0000000   0.0000000   0.0000000
 NQMom=    0.0000000   0.0000000   0.0000000   0.0000000   0.0000000   0.0000000  -8.1650000   0.0000000   2.0440000
 NMagM=    0.0000000   0.0000000   0.0000000   2.7928460   2.7928460   2.7928460   0.8218740   0.0000000   0.4037610
 AtZNuc=   6.0000000   8.0000000   6.0000000   1.0000000   1.0000000   1.0000000  17.0000000   6.0000000   7.0000000
 Leave Link  101 at Wed Jan  8 01:28:20 2020, MaxMem=  4294967296 cpu:               6.7 elap:               0.6
 (Enter /home/cwagen/sw/g16/g16/l103.exe)

 GradGradGradGradGradGradGradGradGradGradGradGradGradGradGradGradGradGrad
 Berny optimization.
 Initialization pass.
                           ----------------------------
                           !    Initial Parameters    !
                           ! (Angstroms and Degrees)  !
 --------------------------                            --------------------------
 ! Name  Definition              Value          Derivative Info.                !
 --------------------------------------------------------------------------------
 ! R1    R(1,2)                  1.2977         estimate D2E/DX2                !
 ! R2    R(1,3)                  1.5584         estimate D2E/DX2                !
 ! R3    R(1,7)                  2.6            Frozen                          !
 ! R4    R(1,8)                  2.0            Frozen                          !
 ! R5    R(3,4)                  1.0971         estimate D2E/DX2                !
 ! R6    R(3,5)                  1.0979         estimate D2E/DX2                !
 ! R7    R(3,6)                  1.0947         estimate D2E/DX2                !
 ! R8    R(8,9)                  1.1691         estimate D2E/DX2                !
 ! A1    A(2,1,3)              114.4006         estimate D2E/DX2                !
 ! A2    A(2,1,7)              115.6846         estimate D2E/DX2                !
 ! A3    A(2,1,8)              108.426          estimate D2E/DX2                !
 ! A4    A(3,1,7)              110.248          estimate D2E/DX2                !
 ! A5    A(3,1,8)              101.5248         estimate D2E/DX2                !
 ! A6    A(7,1,8)              105.1256         estimate D2E/DX2                !
 ! A7    A(1,3,4)              113.1005         estimate D2E/DX2                !
 ! A8    A(1,3,5)              107.683          estimate D2E/DX2                !
 ! A9    A(1,3,6)              108.9421         estimate D2E/DX2                !
 ! A10   A(4,3,5)              109.0662         estimate D2E/DX2                !
 ! A11   A(4,3,6)              109.3417         estimate D2E/DX2                !
 ! A12   A(5,3,6)              108.6067         estimate D2E/DX2                !
 ! A13   L(1,8,9,6,-1)         177.436          estimate D2E/DX2                !
 ! A14   L(1,8,9,6,-2)         166.2769         estimate D2E/DX2                !
 ! D1    D(2,1,3,4)            174.4714         estimate D2E/DX2                !
 ! D2    D(2,1,3,5)            -64.9488         estimate D2E/DX2                !
 ! D3    D(2,1,3,6)             52.6633         estimate D2E/DX2                !
 ! D4    D(7,1,3,4)            -53.1046         estimate D2E/DX2                !
 ! D5    D(7,1,3,5)             67.4752         estimate D2E/DX2                !
 ! D6    D(7,1,3,6)           -174.9127         estimate D2E/DX2                !
 ! D7    D(8,1,3,4)             57.938          estimate D2E/DX2                !
 ! D8    D(8,1,3,5)            178.5177         estimate D2E/DX2                !
 ! D9    D(8,1,3,6)            -63.8702         estimate D2E/DX2                !
 --------------------------------------------------------------------------------
 Trust Radius=3.00D-01 FncErr=1.00D-07 GrdErr=1.00D-06 EigMax=2.50D+02 EigMin=1.00D-04
 Number of steps in this run=     41 maximum allowed number of steps=    100.
 GradGradGradGradGradGradGradGradGradGradGradGradGradGradGradGradGradGrad

 Leave Link  103 at Wed Jan  8 01:28:20 2020, MaxMem=  4294967296 cpu:               0.7 elap:               0.5
 (Enter /home/cwagen/sw/g16/g16/l202.exe)
                          Input orientation:                          
 ---------------------------------------------------------------------
 Center     Atomic      Atomic             Coordinates (Angstroms)
 Number     Number       Type             X           Y           Z
 ---------------------------------------------------------------------
      1          6           0       -0.194263   -0.291999   -0.212908
      2          8           0       -0.255321   -0.665256   -1.454255
      3          6           0       -0.330945   -1.454221    0.816316
      4          1           0       -0.180394   -1.130438    1.853734
      5          1           0       -1.340665   -1.873010    0.714272
      6          1           0        0.397068   -2.233949    0.570583
      7         17           0       -1.750985    1.682835    0.447885
      8          6           0        1.659981    0.357308    0.161500
      9          7           0        2.794552    0.637606    0.191803
 ---------------------------------------------------------------------
                    Distance matrix (angstroms):
                    1          2          3          4          5
     1  C    0.000000
     2  O    1.297687   0.000000
     3  C    1.558443   2.404928   0.000000
     4  H    2.230287   3.341377   1.097150   0.000000
     5  H    2.161827   2.709087   1.097876   1.787740   0.000000
     6  H    2.175937   2.643176   1.094698   1.788205   1.780629
     7  Cl   2.600000   3.371747   3.463145   3.515348   3.589340
     8  C    2.000000   2.706415   2.770236   2.909299   3.779385
     9  N    3.156100   3.702523   3.812412   3.839049   4.865818
                    6          7          8          9
     6  H    0.000000
     7  Cl   4.468824   0.000000
     8  C    2.911513   3.670657   0.000000
     9  N    3.759951   4.671187   1.169075   0.000000
 Stoichiometry    C3H3ClNO(1-)
 Framework group  C1[X(C3H3ClNO)]
 Deg. of freedom    21
 Full point group                 C1      NOp   1
 Largest Abelian subgroup         C1      NOp   1
 Largest concise Abelian subgroup C1      NOp   1
                         Standard orientation:                         
 ---------------------------------------------------------------------
 Center     Atomic      Atomic             Coordinates (Angstroms)
 Number     Number       Type             X           Y           Z
 ---------------------------------------------------------------------
      1          6           0        0.180669    0.580638    0.207917
      2          8           0        0.380947    1.129378    1.366694
      3          6           0        0.415442    1.531796   -1.004075
      4          1           0        0.334708    1.022820   -1.972663
      5          1           0       -0.338276    2.328476   -0.953658
      6          1           0        1.408265    1.984027   -0.913782
      7         17           0       -2.074050   -0.684960   -0.065035
      8          6           0        1.594654   -0.802164   -0.089583
      9          7           0        2.523140   -1.512520   -0.096201
 ---------------------------------------------------------------------
 Rotational constants (GHZ):           3.0208062           1.5557078           1.2747152
 Leave Link  202 at Wed Jan  8 01:28:21 2020, MaxMem=  4294967296 cpu:               1.4 elap:               0.1
 (Enter /home/cwagen/sw/g16/g16/l301.exe)
 Standard basis: 6-31+G(d) (6D, 7F)
 Ernie: Thresh=  0.10000D-02 Tol=  0.10000D-05 Strict=F.
 There are   124 symmetry adapted cartesian basis functions of A   symmetry.
 There are   124 symmetry adapted basis functions of A   symmetry.
   124 basis functions,   228 primitive gaussians,   124 cartesian basis functions
    27 alpha electrons       27 beta electrons
       nuclear repulsion energy       225.0794801052 Hartrees.
 IExCor=  402 DFT=T Ex+Corr=B3LYP ExCW=0 ScaHFX=  0.200000
 ScaDFX=  0.800000  0.720000  1.000000  0.810000 ScalE2=  1.000000  1.000000
 IRadAn=      5 IRanWt=     -1 IRanGd=            0 ICorTp=0 IEmpDi=  4
 NAtoms=    9 NActive=    9 NUniq=    9 SFac= 1.00D+00 NAtFMM=   60 NAOKFM=F Big=F
 Integral buffers will be    131072 words long.
 Raffenetti 2 integral format.
 Two-electron integral symmetry is turned on.
 ------------------------------------------------------------------------------
 Polarizable Continuum Model (PCM)
 =================================
 Model                : PCM.
 Atomic radii         : SMD-Coulomb.
 Polarization charges : Total charges.
 Charge compensation  : None.
 Solution method      : On-the-fly selection.
 Cavity type          : VdW (van der Waals Surface) (Alpha=1.000).
 Cavity algorithm     : GePol (No added spheres)
                        Default sphere list used, NSphG=    9.
                        Lebedev-Laikov grids with approx.  5.0 points / Ang**2.
                        Smoothing algorithm: York/Karplus (Gamma=1.0000).
                        Polarization charges: spherical gaussians, with
                                              point-specific exponents (IZeta= 3).
                        Self-potential: point-specific (ISelfS= 7).
                        Self-field    : sphere-specific E.n sum rule (ISelfD= 2).
 1st derivatives      : Analytical E(r).r(x)/FMM algorithm (CHGder, D1EAlg=3).
                        Cavity 1st derivative terms included.
 Solvent              : TetraHydroFuran, Eps=   7.425700 Eps(inf)=   1.974025
 ------------------------------------------------------------------------------
 Spheres list:
 ISph  on   Nord     Re0    Alpha      Xe            Ye            Ze
    1   C      1    1.8500  1.000      0.180669      0.580638      0.207917
    2   O      2    2.2940  1.000      0.380947      1.129378      1.366694
    3   C      3    1.8500  1.000      0.415442      1.531796     -1.004075
    4   H      4    1.2000  1.000      0.334708      1.022820     -1.972663
    5   H      5    1.2000  1.000     -0.338276      2.328476     -0.953658
    6   H      6    1.2000  1.000      1.408265      1.984027     -0.913782
    7  Cl      7    2.3800  1.000     -2.074050     -0.684960     -0.065035
    8   C      8    1.8500  1.000      1.594654     -0.802164     -0.089583
    9   N      9    1.8900  1.000      2.523140     -1.512520     -0.096201
 ------------------------------------------------------------------------------
 GePol: Number of generator spheres                  =       9
 GePol: Total number of spheres                      =       9
 GePol: Number of exposed spheres                    =       9 (100.00%)
 GePol: Number of points                             =    1252
 GePol: Average weight of points                     =       0.14
 GePol: Minimum weight of points                     =   0.14D-06
 GePol: Maximum weight of points                     =    0.18138
 GePol: Number of points with low weight             =      23
 GePol: Fraction of low-weight points (<1% of avg)   =       1.84%
 GePol: Cavity surface area                          =    171.745 Ang**2
 GePol: Cavity volume                                =    154.571 Ang**3
 ------------------------------------------------------------------------------
 Atomic radii for non-electrostatic terms: SMD-CDS.
 ------------------------------------------------------------------------------
 PCM non-electrostatic energy =         0.0001647530 Hartrees.
 Nuclear repulsion after PCM non-electrostatic terms =      225.0796448582 Hartrees.
 Leave Link  301 at Wed Jan  8 01:28:21 2020, MaxMem=  4294967296 cpu:               1.9 elap:               0.2
 (Enter /home/cwagen/sw/g16/g16/l302.exe)
 NPDir=0 NMtPBC=     1 NCelOv=     1 NCel=       1 NClECP=     1 NCelD=      1
         NCelK=      1 NCelE2=     1 NClLst=     1 CellRange=     0.0.
 One-electron integrals computed using PRISM.
 One-electron integral symmetry used in STVInt
 NBasis=   124 RedAO= T EigKep=  1.26D-04  NBF=   124
 NBsUse=   124 1.00D-06 EigRej= -1.00D+00 NBFU=   124
 Precomputing XC quadrature grid using
 IXCGrd= 4 IRadAn=           5 IRanWt=          -1 IRanGd=           0 AccXCQ= 0.00D+00.
 Generated NRdTot=       0 NPtTot=           0 NUsed=           0 NTot=          32
 NSgBfM=   124   124   124   124   124 MxSgAt=     9 MxSgA2=     9.
 Leave Link  302 at Wed Jan  8 01:28:24 2020, MaxMem=  4294967296 cpu:              27.6 elap:               2.2
 (Enter /home/cwagen/sw/g16/g16/l303.exe)
 DipDrv:  MaxL=1.
 Leave Link  303 at Wed Jan  8 01:28:24 2020, MaxMem=  4294967296 cpu:               2.2 elap:               0.2
 (Enter /home/cwagen/sw/g16/g16/l401.exe)
 ExpMin= 4.38D-02 ExpMax= 2.52D+04 ExpMxC= 3.78D+03 IAcc=3 IRadAn=         5 AccDes= 0.00D+00
 Harris functional with IExCor=  402 and IRadAn=       5 diagonalized for initial guess.
 HarFok:  IExCor=  402 AccDes= 0.00D+00 IRadAn=         5 IDoV= 1 UseB2=F ITyADJ=14
 ICtDFT=  3500011 ScaDFX=  1.000000  1.000000  1.000000  1.000000
 FoFCou: FMM=F IPFlag=           0 FMFlag=      100000 FMFlg1=           0
         NFxFlg=           0 DoJE=T BraDBF=F KetDBF=T FulRan=T
         wScrn=  0.000000 ICntrl=       500 IOpCl=  0 I1Cent=   200000004 NGrid=           0
         NMat0=    1 NMatS0=      1 NMatT0=    0 NMatD0=    1 NMtDS0=    0 NMtDT0=    0
 Petite list used in FoFCou.
 Harris En= -706.360704373317    
 JPrj=0 DoOrth=F DoCkMO=F.
 Leave Link  401 at Wed Jan  8 01:28:26 2020, MaxMem=  4294967296 cpu:              32.3 elap:               2.4
 (Enter /home/cwagen/sw/g16/g16/l502.exe)
 Keep R1 ints in memory in canonical form, NReq=45236517.
 FoFCou: FMM=F IPFlag=           0 FMFlag=           0 FMFlg1=           0
         NFxFlg=           0 DoJE=F BraDBF=F KetDBF=F FulRan=T
         wScrn=  0.000000 ICntrl=       600 IOpCl=  0 I1Cent=           0 NGrid=           0
         NMat0=    1 NMatS0=   7750 NMatT0=    0 NMatD0=    1 NMtDS0=    0 NMtDT0=    0
 Symmetry not used in FoFCou.
 Two-electron integral symmetry not used.
 Closed shell SCF:
 Using DIIS extrapolation, IDIIS=  1040.
 NGot=  4294967296 LenX=  4264898079 LenY=  4264882262
 Requested convergence on RMS density matrix=1.00D-08 within 128 cycles.
 Requested convergence on MAX density matrix=1.00D-06.
 Requested convergence on             energy=1.00D-06.
 No special actions if energy rises.

 Cycle   1  Pass 1  IDiag  1:
 Inv3:  Mode=1 IEnd=     4702512.
 Iteration    1 A*A^-1 deviation from unit magnitude is 3.77D-15 for   1230.
 Iteration    1 A*A^-1 deviation from orthogonality  is 1.39D-15 for   1243   1242.
 Iteration    1 A^-1*A deviation from unit magnitude is 3.55D-15 for   1230.
 Iteration    1 A^-1*A deviation from orthogonality  is 1.26D-15 for   1243   1242.
 E= -706.190199813588    
 DIIS: error= 2.33D-02 at cycle   1 NSaved=   1.
 NSaved= 1 IEnMin= 1 EnMin= -706.190199813588     IErMin= 1 ErrMin= 2.33D-02
 ErrMax= 2.33D-02  0.00D+00 EMaxC= 1.00D-01 BMatC= 2.10D-01 BMatP= 2.10D-01
 IDIUse=3 WtCom= 7.67D-01 WtEn= 2.33D-01
 Coeff-Com:  0.100D+01
 Coeff-En:   0.100D+01
 Coeff:      0.100D+01
 Gap=     0.141 Goal=   None    Shift=    0.000
 GapD=    0.141 DampG=1.000 DampE=0.500 DampFc=0.5000 IDamp=-1.
 Damping current iteration by 5.00D-01
 RMSDP=1.04D-02 MaxDP=2.31D-01              OVMax= 4.34D-01

 Cycle   2  Pass 1  IDiag  1:
 E= -706.101256669451     Delta-E=        0.088943144137 Rises=F Damp=T
 DIIS: error= 1.86D-02 at cycle   2 NSaved=   2.
 NSaved= 2 IEnMin= 1 EnMin= -706.190199813588     IErMin= 2 ErrMin= 1.86D-02
 ErrMax= 1.86D-02  0.00D+00 EMaxC= 1.00D-01 BMatC= 1.43D-01 BMatP= 2.10D-01
 IDIUse=3 WtCom= 8.14D-01 WtEn= 1.86D-01
 Coeff-Com:  0.441D+00 0.559D+00
 Coeff-En:   0.623D+00 0.377D+00
 Coeff:      0.475D+00 0.525D+00
 Gap=     0.121 Goal=   None    Shift=    0.000
 RMSDP=4.26D-03 MaxDP=9.15D-02 DE= 8.89D-02 OVMax= 2.67D-01

 Cycle   3  Pass 1  IDiag  1:
 E= -706.318225309251     Delta-E=       -0.216968639800 Rises=F Damp=F
 DIIS: error= 1.67D-02 at cycle   3 NSaved=   3.
 NSaved= 3 IEnMin= 3 EnMin= -706.318225309251     IErMin= 3 ErrMin= 1.67D-02
 ErrMax= 1.67D-02  0.00D+00 EMaxC= 1.00D-01 BMatC= 5.75D-02 BMatP= 1.43D-01
 IDIUse=3 WtCom= 8.33D-01 WtEn= 1.67D-01
 EnCoef did     1 forward-backward iterations
 Coeff-Com:  0.199D+00 0.364D+00 0.437D+00
 Coeff-En:   0.257D-01 0.174D-01 0.957D+00
 Coeff:      0.170D+00 0.306D+00 0.524D+00
 Gap=     0.166 Goal=   None    Shift=    0.000
 RMSDP=2.66D-03 MaxDP=5.95D-02 DE=-2.17D-01 OVMax= 1.14D-01

 Cycle   4  Pass 1  IDiag  1:
 E= -706.363601523557     Delta-E=       -0.045376214306 Rises=F Damp=F
 DIIS: error= 8.67D-03 at cycle   4 NSaved=   4.
 NSaved= 4 IEnMin= 4 EnMin= -706.363601523557     IErMin= 4 ErrMin= 8.67D-03
 ErrMax= 8.67D-03  0.00D+00 EMaxC= 1.00D-01 BMatC= 1.35D-02 BMatP= 5.75D-02
 IDIUse=3 WtCom= 9.13D-01 WtEn= 8.67D-02
 Coeff-Com:  0.666D-01 0.993D-01 0.324D+00 0.510D+00
 Coeff-En:   0.000D+00 0.000D+00 0.202D+00 0.798D+00
 Coeff:      0.609D-01 0.907D-01 0.313D+00 0.535D+00
 Gap=     0.155 Goal=   None    Shift=    0.000
 RMSDP=1.29D-03 MaxDP=2.86D-02 DE=-4.54D-02 OVMax= 5.76D-02

 Cycle   5  Pass 1  IDiag  1:
 E= -706.373036149298     Delta-E=       -0.009434625741 Rises=F Damp=F
 DIIS: error= 2.88D-03 at cycle   5 NSaved=   5.
 NSaved= 5 IEnMin= 5 EnMin= -706.373036149298     IErMin= 5 ErrMin= 2.88D-03
 ErrMax= 2.88D-03  0.00D+00 EMaxC= 1.00D-01 BMatC= 2.56D-03 BMatP= 1.35D-02
 IDIUse=3 WtCom= 9.71D-01 WtEn= 2.88D-02
 Coeff-Com:  0.103D-01 0.276D-02 0.143D+00 0.396D+00 0.448D+00
 Coeff-En:   0.000D+00 0.000D+00 0.000D+00 0.195D+00 0.805D+00
 Coeff:      0.999D-02 0.268D-02 0.139D+00 0.390D+00 0.458D+00
 Gap=     0.155 Goal=   None    Shift=    0.000
 RMSDP=5.33D-04 MaxDP=1.12D-02 DE=-9.43D-03 OVMax= 2.26D-02

 Cycle   6  Pass 1  IDiag  1:
 E= -706.375388214467     Delta-E=       -0.002352065169 Rises=F Damp=F
 DIIS: error= 6.40D-04 at cycle   6 NSaved=   6.
 NSaved= 6 IEnMin= 6 EnMin= -706.375388214467     IErMin= 6 ErrMin= 6.40D-04
 ErrMax= 6.40D-04  0.00D+00 EMaxC= 1.00D-01 BMatC= 1.44D-04 BMatP= 2.56D-03
 IDIUse=3 WtCom= 9.94D-01 WtEn= 6.40D-03
 Coeff-Com:  0.219D-02-0.529D-02 0.551D-01 0.169D+00 0.273D+00 0.506D+00
 Coeff-En:   0.000D+00 0.000D+00 0.000D+00 0.000D+00 0.119D-01 0.988D+00
 Coeff:      0.217D-02-0.525D-02 0.547D-01 0.168D+00 0.271D+00 0.509D+00
 Gap=     0.156 Goal=   None    Shift=    0.000
 RMSDP=9.77D-05 MaxDP=1.95D-03 DE=-2.35D-03 OVMax= 3.15D-03

 Cycle   7  Pass 1  IDiag  1:
 E= -706.375514436292     Delta-E=       -0.000126221825 Rises=F Damp=F
 DIIS: error= 2.08D-04 at cycle   7 NSaved=   7.
 NSaved= 7 IEnMin= 7 EnMin= -706.375514436292     IErMin= 7 ErrMin= 2.08D-04
 ErrMax= 2.08D-04  0.00D+00 EMaxC= 1.00D-01 BMatC= 1.13D-05 BMatP= 1.44D-04
 IDIUse=3 WtCom= 9.98D-01 WtEn= 2.08D-03
 Coeff-Com:  0.863D-03-0.364D-02 0.156D-01 0.447D-01 0.103D+00 0.268D+00
 Coeff-Com:  0.572D+00
 Coeff-En:   0.000D+00 0.000D+00 0.000D+00 0.000D+00 0.000D+00 0.000D+00
 Coeff-En:   0.100D+01
 Coeff:      0.861D-03-0.364D-02 0.156D-01 0.446D-01 0.103D+00 0.267D+00
 Coeff:      0.573D+00
 Gap=     0.155 Goal=   None    Shift=    0.000
 RMSDP=5.53D-05 MaxDP=1.40D-03 DE=-1.26D-04 OVMax= 2.05D-03

 Cycle   8  Pass 1  IDiag  1:
 E= -706.375525493476     Delta-E=       -0.000011057184 Rises=F Damp=F
 DIIS: error= 7.19D-05 at cycle   8 NSaved=   8.
 NSaved= 8 IEnMin= 8 EnMin= -706.375525493476     IErMin= 8 ErrMin= 7.19D-05
 ErrMax= 7.19D-05  0.00D+00 EMaxC= 1.00D-01 BMatC= 1.60D-06 BMatP= 1.13D-05
 IDIUse=1 WtCom= 1.00D+00 WtEn= 0.00D+00
 Coeff-Com:  0.302D-03-0.174D-02 0.237D-02 0.400D-02 0.278D-01 0.943D-01
 Coeff-Com:  0.338D+00 0.534D+00
 Coeff:      0.302D-03-0.174D-02 0.237D-02 0.400D-02 0.278D-01 0.943D-01
 Coeff:      0.338D+00 0.534D+00
 Gap=     0.155 Goal=   None    Shift=    0.000
 RMSDP=1.41D-05 MaxDP=5.74D-04 DE=-1.11D-05 OVMax= 7.24D-04

 Cycle   9  Pass 1  IDiag  1:
 E= -706.375527157956     Delta-E=       -0.000001664480 Rises=F Damp=F
 DIIS: error= 1.77D-05 at cycle   9 NSaved=   9.
 NSaved= 9 IEnMin= 9 EnMin= -706.375527157956     IErMin= 9 ErrMin= 1.77D-05
 ErrMax= 1.77D-05  0.00D+00 EMaxC= 1.00D-01 BMatC= 6.70D-08 BMatP= 1.60D-06
 IDIUse=1 WtCom= 1.00D+00 WtEn= 0.00D+00
 Coeff-Com:  0.104D-03-0.292D-03-0.501D-03-0.287D-02 0.596D-03 0.660D-02
 Coeff-Com:  0.441D-01 0.178D+00 0.774D+00
 Coeff:      0.104D-03-0.292D-03-0.501D-03-0.287D-02 0.596D-03 0.660D-02
 Coeff:      0.441D-01 0.178D+00 0.774D+00
 Gap=     0.155 Goal=   None    Shift=    0.000
 RMSDP=4.17D-06 MaxDP=1.31D-04 DE=-1.66D-06 OVMax= 1.68D-04

 Cycle  10  Pass 1  IDiag  1:
 E= -706.375527238040     Delta-E=       -0.000000080084 Rises=F Damp=F
 DIIS: error= 4.72D-06 at cycle  10 NSaved=  10.
 NSaved=10 IEnMin=10 EnMin= -706.375527238040     IErMin=10 ErrMin= 4.72D-06
 ErrMax= 4.72D-06  0.00D+00 EMaxC= 1.00D-01 BMatC= 4.76D-09 BMatP= 6.70D-08
 IDIUse=1 WtCom= 1.00D+00 WtEn= 0.00D+00
 Coeff-Com:  0.271D-04-0.639D-04-0.275D-03-0.117D-02-0.730D-03-0.139D-02
 Coeff-Com:  0.850D-03 0.502D-01 0.361D+00 0.591D+00
 Coeff:      0.271D-04-0.639D-04-0.275D-03-0.117D-02-0.730D-03-0.139D-02
 Coeff:      0.850D-03 0.502D-01 0.361D+00 0.591D+00
 Gap=     0.155 Goal=   None    Shift=    0.000
 RMSDP=1.05D-06 MaxDP=2.91D-05 DE=-8.01D-08 OVMax= 4.92D-05

 Cycle  11  Pass 1  IDiag  1:
 E= -706.375527244244     Delta-E=       -0.000000006204 Rises=F Damp=F
 DIIS: error= 8.99D-07 at cycle  11 NSaved=  11.
 NSaved=11 IEnMin=11 EnMin= -706.375527244244     IErMin=11 ErrMin= 8.99D-07
 ErrMax= 8.99D-07  0.00D+00 EMaxC= 1.00D-01 BMatC= 4.06D-10 BMatP= 4.76D-09
 IDIUse=1 WtCom= 1.00D+00 WtEn= 0.00D+00
 Coeff-Com: -0.677D-05 0.263D-04-0.725D-04-0.117D-03-0.553D-03-0.203D-02
 Coeff-Com: -0.675D-02-0.812D-02 0.263D-01 0.240D+00 0.751D+00
 Coeff:     -0.677D-05 0.263D-04-0.725D-04-0.117D-03-0.553D-03-0.203D-02
 Coeff:     -0.675D-02-0.812D-02 0.263D-01 0.240D+00 0.751D+00
 Gap=     0.155 Goal=   None    Shift=    0.000
 RMSDP=4.07D-07 MaxDP=1.17D-05 DE=-6.20D-09 OVMax= 7.09D-06

 Cycle  12  Pass 1  IDiag  1:
 E= -706.375527244796     Delta-E=       -0.000000000552 Rises=F Damp=F
 DIIS: error= 1.59D-07 at cycle  12 NSaved=  12.
 NSaved=12 IEnMin=12 EnMin= -706.375527244796     IErMin=12 ErrMin= 1.59D-07
 ErrMax= 1.59D-07  0.00D+00 EMaxC= 1.00D-01 BMatC= 7.97D-12 BMatP= 4.06D-10
 IDIUse=1 WtCom= 1.00D+00 WtEn= 0.00D+00
 Coeff-Com: -0.383D-05 0.730D-05-0.321D-05 0.294D-04-0.384D-04-0.218D-03
 Coeff-Com: -0.740D-03-0.298D-02-0.128D-01 0.187D-01 0.877D-01 0.910D+00
 Coeff:     -0.383D-05 0.730D-05-0.321D-05 0.294D-04-0.384D-04-0.218D-03
 Coeff:     -0.740D-03-0.298D-02-0.128D-01 0.187D-01 0.877D-01 0.910D+00
 Gap=     0.155 Goal=   None    Shift=    0.000
 RMSDP=5.76D-08 MaxDP=1.19D-06 DE=-5.52D-10 OVMax= 1.77D-06

 Cycle  13  Pass 1  IDiag  1:
 E= -706.375527244809     Delta-E=       -0.000000000013 Rises=F Damp=F
 DIIS: error= 3.03D-08 at cycle  13 NSaved=  13.
 NSaved=13 IEnMin=13 EnMin= -706.375527244809     IErMin=13 ErrMin= 3.03D-08
 ErrMax= 3.03D-08  0.00D+00 EMaxC= 1.00D-01 BMatC= 2.94D-13 BMatP= 7.97D-12
 IDIUse=1 WtCom= 1.00D+00 WtEn= 0.00D+00
 Coeff-Com: -0.238D-06-0.343D-06 0.199D-05 0.594D-05 0.205D-04 0.598D-04
 Coeff-Com:  0.242D-03 0.687D-04-0.328D-02-0.703D-02-0.282D-01 0.103D+00
 Coeff-Com:  0.936D+00
 Coeff:     -0.238D-06-0.343D-06 0.199D-05 0.594D-05 0.205D-04 0.598D-04
 Coeff:      0.242D-03 0.687D-04-0.328D-02-0.703D-02-0.282D-01 0.103D+00
 Coeff:      0.936D+00
 Gap=     0.155 Goal=   None    Shift=    0.000
 RMSDP=1.61D-08 MaxDP=4.39D-07 DE=-1.25D-11 OVMax= 5.06D-07

 Cycle  14  Pass 1  IDiag  1:
 E= -706.375527244809     Delta-E=        0.000000000000 Rises=F Damp=F
 DIIS: error= 5.99D-09 at cycle  14 NSaved=  14.
 NSaved=14 IEnMin=13 EnMin= -706.375527244809     IErMin=14 ErrMin= 5.99D-09
 ErrMax= 5.99D-09  0.00D+00 EMaxC= 1.00D-01 BMatC= 1.56D-14 BMatP= 2.94D-13
 IDIUse=1 WtCom= 1.00D+00 WtEn= 0.00D+00
 Coeff-Com:  0.152D-06-0.269D-06 0.398D-06 0.228D-06 0.194D-05 0.552D-05
 Coeff-Com:  0.286D-04 0.220D-04 0.758D-04-0.463D-03-0.307D-02-0.116D-01
 Coeff-Com:  0.592D-01 0.956D+00
 Coeff:      0.152D-06-0.269D-06 0.398D-06 0.228D-06 0.194D-05 0.552D-05
 Coeff:      0.286D-04 0.220D-04 0.758D-04-0.463D-03-0.307D-02-0.116D-01
 Coeff:      0.592D-01 0.956D+00
 Gap=     0.155 Goal=   None    Shift=    0.000
 RMSDP=2.25D-09 MaxDP=6.85D-08 DE= 0.00D+00 OVMax= 1.05D-07

 Error on total polarization charges =  0.02320
 SCF Done:  E(RB3LYP) =  -706.375527245     A.U. after   14 cycles
            NFock= 14  Conv=0.22D-08     -V/T= 2.0063
 KE= 7.019222330831D+02 PE=-2.127600635911D+03 EE= 4.942232307252D+02
 SMD-CDS (non-electrostatic) energy       (kcal/mol) =       0.10
 (included in total energy above)
 Leave Link  502 at Wed Jan  8 01:29:15 2020, MaxMem=  4294967296 cpu:             574.2 elap:              49.0
 (Enter /home/cwagen/sw/g16/g16/l601.exe)
 Copying SCF densities to generalized density rwf, IOpCl= 0 IROHF=0.

 **********************************************************************

            Population analysis using the SCF density.

 **********************************************************************

 Orbital symmetries:
       Occupied  (A) (A) (A) (A) (A) (A) (A) (A) (A) (A) (A) (A)
                 (A) (A) (A) (A) (A) (A) (A) (A) (A) (A) (A) (A)
                 (A) (A) (A)
       Virtual   (A) (A) (A) (A) (A) (A) (A) (A) (A) (A) (A) (A)
                 (A) (A) (A) (A) (A) (A) (A) (A) (A) (A) (A) (A)
                 (A) (A) (A) (A) (A) (A) (A) (A) (A) (A) (A) (A)
                 (A) (A) (A) (A) (A) (A) (A) (A) (A) (A) (A) (A)
                 (A) (A) (A) (A) (A) (A) (A) (A) (A) (A) (A) (A)
                 (A) (A) (A) (A) (A) (A) (A) (A) (A) (A) (A) (A)
                 (A) (A) (A) (A) (A) (A) (A) (A) (A) (A) (A) (A)
                 (A) (A) (A) (A) (A) (A) (A) (A) (A) (A) (A) (A)
                 (A)
 The electronic state is 1-A.
 Alpha  occ. eigenvalues -- -101.46118 -19.16666 -14.31446 -10.34415 -10.20145
 Alpha  occ. eigenvalues --  -10.19646  -9.37384  -7.13457  -7.13019  -7.13016
 Alpha  occ. eigenvalues --   -1.01469  -0.87338  -0.73226  -0.70685  -0.54832
 Alpha  occ. eigenvalues --   -0.45987  -0.42888  -0.42148  -0.38979  -0.35459
 Alpha  occ. eigenvalues --   -0.35017  -0.31468  -0.31350  -0.26763  -0.25039
 Alpha  occ. eigenvalues --   -0.24503  -0.24430
 Alpha virt. eigenvalues --   -0.08917  -0.00035   0.03319   0.04557   0.04864
 Alpha virt. eigenvalues --    0.06130   0.06555   0.07607   0.08832   0.09610
 Alpha virt. eigenvalues --    0.09994   0.10134   0.11108   0.12036   0.13339
 Alpha virt. eigenvalues --    0.14164   0.14990   0.16529   0.16899   0.20655
 Alpha virt. eigenvalues --    0.22920   0.23999   0.24440   0.25637   0.25928
 Alpha virt. eigenvalues --    0.26917   0.28196   0.29155   0.32258   0.33356
 Alpha virt. eigenvalues --    0.35244   0.37236   0.41443   0.60557   0.62554
 Alpha virt. eigenvalues --    0.64807   0.66203   0.67857   0.68270   0.72176
 Alpha virt. eigenvalues --    0.74135   0.75666   0.76023   0.78860   0.79476
 Alpha virt. eigenvalues --    0.82710   0.87802   0.93048   0.95418   0.96103
 Alpha virt. eigenvalues --    0.96920   0.98018   0.98636   1.01092   1.02065
 Alpha virt. eigenvalues --    1.04394   1.09437   1.13899   1.17085   1.22318
 Alpha virt. eigenvalues --    1.29155   1.31338   1.33381   1.39502   1.47363
 Alpha virt. eigenvalues --    1.48660   1.52192   1.56403   1.56757   1.57283
 Alpha virt. eigenvalues --    1.62228   1.67869   1.77470   1.82319   1.89497
 Alpha virt. eigenvalues --    1.90904   1.97558   1.99018   2.00140   2.12110
 Alpha virt. eigenvalues --    2.19183   2.24254   2.29057   2.48512   2.49409
 Alpha virt. eigenvalues --    2.61680   2.63878   2.68172   2.72514   2.96338
 Alpha virt. eigenvalues --    3.07261   4.04002   4.14253   4.26809   4.30222
 Alpha virt. eigenvalues --    4.38484   4.44834
          Condensed to atoms (all electrons):
               1          2          3          4          5          6
     1  C    5.088874   0.549819   0.169772  -0.062864  -0.059268   0.001201
     2  O    0.549819   8.075436  -0.142326   0.008225  -0.000506  -0.011580
     3  C    0.169772  -0.142326   5.703464   0.373358   0.376467   0.369411
     4  H   -0.062864   0.008225   0.373358   0.463758  -0.021949  -0.027510
     5  H   -0.059268  -0.000506   0.376467  -0.021949   0.458592  -0.023391
     6  H    0.001201  -0.011580   0.369411  -0.027510  -0.023391   0.448533
     7  Cl   0.109051  -0.035622  -0.058977   0.004028  -0.001715   0.001123
     8  C   -0.211313  -0.116902  -0.093534   0.015769   0.020622  -0.023584
     9  N   -0.024517  -0.003616   0.000922  -0.000864  -0.000060  -0.000003
               7          8          9
     1  C    0.109051  -0.211313  -0.024517
     2  O   -0.035622  -0.116902  -0.003616
     3  C   -0.058977  -0.093534   0.000922
     4  H    0.004028   0.015769  -0.000864
     5  H   -0.001715   0.020622  -0.000060
     6  H    0.001123  -0.023584  -0.000003
     7  Cl  17.649348  -0.030233  -0.006527
     8  C   -0.030233   5.769397   0.629863
     9  N   -0.006527   0.629863   6.997058
 Mulliken charges:
               1
     1  C    0.439244
     2  O   -0.322928
     3  C   -0.698558
     4  H    0.248050
     5  H    0.251208
     6  H    0.265800
     7  Cl  -0.630476
     8  C    0.039916
     9  N   -0.592256
 Sum of Mulliken charges =  -1.00000
 Mulliken charges with hydrogens summed into heavy atoms:
               1
     1  C    0.439244
     2  O   -0.322928
     3  C    0.066501
     7  Cl  -0.630476
     8  C    0.039916
     9  N   -0.592256
 Electronic spatial extent (au):  <R**2>=            948.8939
 Charge=             -1.0000 electrons
 Dipole moment (field-independent basis, Debye):
    X=              0.9772    Y=              5.9012    Z=             -2.8067  Tot=              6.6074
 Quadrupole moment (field-independent basis, Debye-Ang):
   XX=            -74.3448   YY=            -52.2998   ZZ=            -48.8328
   XY=              5.5432   XZ=             -1.1662   YZ=             -5.1420
 Traceless Quadrupole moment (field-independent basis, Debye-Ang):
   XX=            -15.8524   YY=              6.1926   ZZ=              9.6597
   XY=              5.5432   XZ=             -1.1662   YZ=             -5.1420
 Octapole moment (field-independent basis, Debye-Ang**2):
  XXX=            -15.4032  YYY=             25.8296  ZZZ=             -4.8771  XYY=            -12.6118
  XXY=             39.7987  XXZ=              2.9306  XZZ=             -0.6549  YZZ=              0.9759
  YYZ=             -4.4311  XYZ=             -2.7060
 Hexadecapole moment (field-independent basis, Debye-Ang**3):
 XXXX=           -981.6576 YYYY=           -395.0723 ZZZZ=           -185.1715 XXXY=             71.4558
 XXXZ=              4.2166 YYYX=             35.2866 YYYZ=             -9.4517 ZZZX=             -1.3262
 ZZZY=             -5.9347 XXYY=           -244.0600 XXZZ=           -168.4248 YYZZ=            -98.3858
 XXYZ=             -4.6960 YYXZ=              0.1122 ZZXY=              2.3539
 N-N= 2.250796448582D+02 E-N=-2.127600636063D+03  KE= 7.019222330831D+02
 No NMR shielding tensors so no spin-rotation constants.
 Leave Link  601 at Wed Jan  8 01:29:16 2020, MaxMem=  4294967296 cpu:              11.6 elap:               1.0
 (Enter /home/cwagen/sw/g16/g16/l701.exe)
 ... and contract with generalized density number  0.
 Compute integral first derivatives.
 D1PCM: PCM CHGder 1st derivatives, ID1Alg=3 FixD1E=F DoIter=F DoCFld=F I1PDM=0.
 GePol: Maximum number of non-zero 1st derivatives   =     395
 Leave Link  701 at Wed Jan  8 01:29:21 2020, MaxMem=  4294967296 cpu:              60.6 elap:               5.1
 (Enter /home/cwagen/sw/g16/g16/l702.exe)
 L702 exits ... SP integral derivatives will be done elsewhere.
 Leave Link  702 at Wed Jan  8 01:29:22 2020, MaxMem=  4294967296 cpu:               0.9 elap:               0.1
 (Enter /home/cwagen/sw/g16/g16/l703.exe)
 Integral derivatives from FoFJK, PRISM(SPDF).
 Compute integral first derivatives, UseDBF=F ICtDFT=           0.
 Calling FoFJK, ICntrl=      2127 FMM=F ISym2X=0 I1Cent= 0 IOpClX= 0 NMat=1 NMatS=1 NMatT=0.
 FoFJK:  IHMeth= 1 ICntrl=    2127 DoSepK=F KAlg= 0 I1Cent=           0 FoldK=F
 IRaf=         0 NMat=       1 IRICut=       1 DoRegI=T DoRafI=F ISym2E= 0 IDoP0=0 IntGTp=1.
 FoFCou: FMM=F IPFlag=           0 FMFlag=      100000 FMFlg1=         800
         NFxFlg=           0 DoJE=F BraDBF=F KetDBF=F FulRan=T
         wScrn=  0.000000 ICntrl=      2127 IOpCl=  0 I1Cent=           0 NGrid=           0
         NMat0=    1 NMatS0=      1 NMatT0=    0 NMatD0=    1 NMtDS0=    0 NMtDT0=    0
 Symmetry not used in FoFCou.
 Leave Link  703 at Wed Jan  8 01:29:24 2020, MaxMem=  4294967296 cpu:              30.2 elap:               2.4
 (Enter /home/cwagen/sw/g16/g16/l716.exe)
 Dipole        = 3.84473865D-01 2.32172178D+00-1.10425762D+00
 ***** Axes restored to original set *****
 -------------------------------------------------------------------
 Center     Atomic                   Forces (Hartrees/Bohr)
 Number     Number              X              Y              Z
 -------------------------------------------------------------------
      1        6           0.047688361   -0.077201356   -0.098783422
      2        8          -0.005380791    0.060650356    0.107119733
      3        6          -0.017089517    0.025285510    0.009958578
      4        1          -0.000495679    0.001609319   -0.003660672
      5        1           0.001145103    0.001152314    0.000150724
      6        1           0.002167286    0.005285822   -0.004417452
      7       17           0.013038404   -0.015775953   -0.003828597
      8        6          -0.041467955   -0.000238562   -0.007629373
      9        7           0.000394787   -0.000767450    0.001090480
 -------------------------------------------------------------------
 Cartesian Forces:  Max     0.107119733 RMS     0.036762203
 Leave Link  716 at Wed Jan  8 01:29:24 2020, MaxMem=  4294967296 cpu:               1.0 elap:               0.1
 (Enter /home/cwagen/sw/g16/g16/l103.exe)

 GradGradGradGradGradGradGradGradGradGradGradGradGradGradGradGradGradGrad
 Berny optimization.
 FormGI is forming the generalized inverse of G from B-inverse, IUseBI=4.
 Internal  Forces:  Max     0.119672292 RMS     0.026146134
 Search for a local minimum.
 Step number   1 out of a maximum of   41
 All quantities printed in internal units (Hartrees-Bohrs-Radians)
 RMS Force = .25727D-01 SwitMx=.10000D-02 MixMth= 1
 Mixed Optimization -- RFO/linear search
 Second derivative matrix not updated -- first step.
 ITU=  0
     Eigenvalues ---    0.00230   0.04746   0.04746   0.05330   0.05908
     Eigenvalues ---    0.07453   0.10176   0.16000   0.16000   0.16000
     Eigenvalues ---    0.25000   0.25000   0.25000   0.26946   0.33918
     Eigenvalues ---    0.33999   0.34275   0.67840   1.220341000.00000
     Eigenvalues --- 1000.000001000.000001000.000001000.000001000.00000
     Eigenvalues --- 1000.000001000.000001000.000001000.000001000.00000
     Eigenvalues --- 1000.00000
 RFO step:  Lambda=-4.07403964D-02 EMin= 2.30000000D-03
 Linear search not attempted -- first point.
 Maximum step size (   0.300) exceeded in Quadratic search.
    -- Step size scaled by   0.967
 Iteration  1 RMS(Cart)=  0.07342531 RMS(Int)=  0.00789809
 Iteration  2 RMS(Cart)=  0.00807922 RMS(Int)=  0.00405067
 Iteration  3 RMS(Cart)=  0.00006346 RMS(Int)=  0.00405029
 Iteration  4 RMS(Cart)=  0.00000140 RMS(Int)=  0.00405029
 Iteration  5 RMS(Cart)=  0.00000002 RMS(Int)=  0.00405029
 Iteration  1 RMS(Cart)=  0.00000000 RMS(Int)=  0.00000000
 ITry= 1 IFail=0 DXMaxC= 1.85D-01 DCOld= 1.00D+10 DXMaxT= 3.00D-01 DXLimC= 3.00D+00 Rises=F
 Variable       Old X    -DE/DX   Delta X   Delta X   Delta X     New X
                                 (Linear)    (Quad)   (Total)
    R1        2.45227  -0.11967   0.00000  -0.16098  -0.16098   2.29129
    R2        2.94503  -0.02225   0.00000  -0.06940  -0.06940   2.87563
    R3        4.91329  -0.02075   0.00000   0.00000   0.00000   4.91329
    R4        3.77945  -0.03960   0.00000   0.00000   0.00000   3.77945
    R5        2.07331  -0.00306   0.00000  -0.00776  -0.00776   2.06555
    R6        2.07468  -0.00149   0.00000  -0.00379  -0.00379   2.07090
    R7        2.06868  -0.00146   0.00000  -0.00370  -0.00370   2.06498
    R8        2.20923   0.00024   0.00000   0.00019   0.00019   2.20942
    A1        1.99667   0.04687   0.00000   0.16665   0.16093   2.15760
    A2        2.01908  -0.01960   0.00000  -0.08073  -0.07629   1.94278
    A3        1.89239  -0.00990   0.00000   0.02099   0.00583   1.89822
    A4        1.92419  -0.02171   0.00000  -0.09425  -0.09058   1.83361
    A5        1.77194   0.01680   0.00000   0.06819   0.05812   1.83006
    A6        1.83479  -0.01251   0.00000  -0.07808  -0.07663   1.75816
    A7        1.97398  -0.00209   0.00000  -0.01092  -0.01119   1.96279
    A8        1.87942   0.00157   0.00000   0.01061   0.01066   1.89009
    A9        1.90140  -0.00958   0.00000  -0.04848  -0.04876   1.85264
   A10        1.90356   0.00115   0.00000   0.00968   0.00971   1.91328
   A11        1.90837   0.00513   0.00000   0.01920   0.01858   1.92695
   A12        1.89554   0.00403   0.00000   0.02117   0.02127   1.91681
   A13        3.09684  -0.00252   0.00000  -0.02762  -0.02762   3.06922
   A14        2.90208   0.00144   0.00000   0.01575   0.01575   2.91783
    D1        3.04510   0.00780   0.00000   0.06045   0.06513   3.11023
    D2       -1.13357   0.00901   0.00000   0.07303   0.07755  -1.05602
    D3        0.91915   0.00950   0.00000   0.07790   0.08221   1.00136
    D4       -0.92685   0.00198   0.00000   0.00777   0.00739  -0.91946
    D5        1.17766   0.00319   0.00000   0.02035   0.01982   1.19748
    D6       -3.05280   0.00368   0.00000   0.02522   0.02447  -3.02833
    D7        1.01121  -0.01196   0.00000  -0.08174  -0.08552   0.92569
    D8        3.11572  -0.01074   0.00000  -0.06916  -0.07309   3.04263
    D9       -1.11475  -0.01026   0.00000  -0.06429  -0.06844  -1.18319
         Item               Value     Threshold  Converged?
 Maximum Force            0.119672     0.000450     NO 
 RMS     Force            0.025727     0.000300     NO 
 Maximum Displacement     0.185485     0.001800     NO 
 RMS     Displacement     0.072718     0.001200     NO 
 Predicted change in Energy=-2.323266D-02
 Lowest energy point so far.  Saving SCF results.
 GradGradGradGradGradGradGradGradGradGradGradGradGradGradGradGradGradGrad

 Leave Link  103 at Wed Jan  8 01:29:33 2020, MaxMem=  4294967296 cpu:             107.1 elap:               9.3
 (Enter /home/cwagen/sw/g16/g16/l202.exe)
                          Input orientation:                          
 ---------------------------------------------------------------------
 Center     Atomic      Atomic             Coordinates (Angstroms)
 Number     Number       Type             X           Y           Z
 ---------------------------------------------------------------------
      1          6           0       -0.152540   -0.390153   -0.247721
      2          8           0       -0.245518   -0.602202   -1.437906
      3          6           0       -0.355122   -1.458488    0.816817
      4          1           0       -0.197493   -1.075294    1.828278
      5          1           0       -1.375987   -1.846253    0.725115
      6          1           0        0.363669   -2.250569    0.593138
      7         17           0       -1.674862    1.587374    0.481609
      8          6           0        1.656860    0.373589    0.130124
      9          7           0        2.780021    0.690873    0.199476
 ---------------------------------------------------------------------
                    Distance matrix (angstroms):
                    1          2          3          4          5
     1  C    0.000000
     2  O    1.212498   0.000000
     3  C    1.521716   2.414336   0.000000
     4  H    2.186597   3.300618   1.093041   0.000000
     5  H    2.136225   2.739395   1.095872   1.788909   0.000000
     6  H    2.105864   2.685770   1.092742   1.794923   1.790891
     7  Cl   2.600000   3.243734   3.336369   3.329555   3.455202
     8  C    2.000000   2.651402   2.806444   2.902002   3.805244
     9  N    3.157296   3.675180   3.850972   3.825955   4.897520
                    6          7          8          9
     6  H    0.000000
     7  Cl   4.347167   0.000000
     8  C    2.961914   3.563312   0.000000
     9  N    3.826984   4.552943   1.169174   0.000000
 Stoichiometry    C3H3ClNO(1-)
 Framework group  C1[X(C3H3ClNO)]
 Deg. of freedom    21
 Full point group                 C1      NOp   1
 RotChk:  IX=0 Diff= 8.48D-02
 Largest Abelian subgroup         C1      NOp   1
 Largest concise Abelian subgroup C1      NOp   1
                         Standard orientation:                         
 ---------------------------------------------------------------------
 Center     Atomic      Atomic             Coordinates (Angstroms)
 Number     Number       Type             X           Y           Z
 ---------------------------------------------------------------------
      1          6           0        0.198494    0.659103    0.234124
      2          8           0        0.303528    1.067482    1.370938
      3          6           0        0.257149    1.557488   -0.992694
      4          1           0        0.173723    0.995269   -1.926336
      5          1           0       -0.560488    2.284128   -0.926350
      6          1           0        1.218115    2.075465   -0.944415
      7         17           0       -1.963012   -0.754258   -0.066375
      8          6           0        1.600198   -0.732126   -0.081642
      9          7           0        2.539513   -1.425590   -0.142966
 ---------------------------------------------------------------------
 Rotational constants (GHZ):           3.0442781           1.6398751           1.3354507
 Leave Link  202 at Wed Jan  8 01:29:34 2020, MaxMem=  4294967296 cpu:               1.1 elap:               0.1
 (Enter /home/cwagen/sw/g16/g16/l301.exe)
 Standard basis: 6-31+G(d) (6D, 7F)
 Ernie: Thresh=  0.10000D-02 Tol=  0.10000D-05 Strict=F.
 There are   124 symmetry adapted cartesian basis functions of A   symmetry.
 There are   124 symmetry adapted basis functions of A   symmetry.
   124 basis functions,   228 primitive gaussians,   124 cartesian basis functions
    27 alpha electrons       27 beta electrons
       nuclear repulsion energy       229.3811180995 Hartrees.
 IExCor=  402 DFT=T Ex+Corr=B3LYP ExCW=0 ScaHFX=  0.200000
 ScaDFX=  0.800000  0.720000  1.000000  0.810000 ScalE2=  1.000000  1.000000
 IRadAn=      5 IRanWt=     -1 IRanGd=            0 ICorTp=0 IEmpDi=  4
 NAtoms=    9 NActive=    9 NUniq=    9 SFac= 1.00D+00 NAtFMM=   60 NAOKFM=F Big=F
 Integral buffers will be    131072 words long.
 Raffenetti 2 integral format.
 Two-electron integral symmetry is turned on.
 ------------------------------------------------------------------------------
 Polarizable Continuum Model (PCM)
 =================================
 Model                : PCM.
 Atomic radii         : SMD-Coulomb.
 Polarization charges : Total charges.
 Charge compensation  : None.
 Solution method      : On-the-fly selection.
 Cavity type          : VdW (van der Waals Surface) (Alpha=1.000).
 Cavity algorithm     : GePol (No added spheres)
                        Default sphere list used, NSphG=    9.
                        Lebedev-Laikov grids with approx.  5.0 points / Ang**2.
                        Smoothing algorithm: York/Karplus (Gamma=1.0000).
                        Polarization charges: spherical gaussians, with
                                              point-specific exponents (IZeta= 3).
                        Self-potential: point-specific (ISelfS= 7).
                        Self-field    : sphere-specific E.n sum rule (ISelfD= 2).
 1st derivatives      : Analytical E(r).r(x)/FMM algorithm (CHGder, D1EAlg=3).
                        Cavity 1st derivative terms included.
 Solvent              : TetraHydroFuran, Eps=   7.425700 Eps(inf)=   1.974025
 ------------------------------------------------------------------------------
 Spheres list:
 ISph  on   Nord     Re0    Alpha      Xe            Ye            Ze
    1   C      1    1.8500  1.000      0.198494      0.659103      0.234124
    2   O      2    2.2940  1.000      0.303528      1.067482      1.370938
    3   C      3    1.8500  1.000      0.257149      1.557488     -0.992694
    4   H      4    1.2000  1.000      0.173723      0.995269     -1.926336
    5   H      5    1.2000  1.000     -0.560488      2.284128     -0.926350
    6   H      6    1.2000  1.000      1.218115      2.075465     -0.944415
    7  Cl      7    2.3800  1.000     -1.963012     -0.754258     -0.066375
    8   C      8    1.8500  1.000      1.600198     -0.732126     -0.081642
    9   N      9    1.8900  1.000      2.539513     -1.425590     -0.142966
 ------------------------------------------------------------------------------
 GePol: Number of generator spheres                  =       9
 GePol: Total number of spheres                      =       9
 GePol: Number of exposed spheres                    =       9 (100.00%)
 GePol: Number of points                             =    1236
 GePol: Average weight of points                     =       0.14
 GePol: Minimum weight of points                     =   0.70D-08
 GePol: Maximum weight of points                     =    0.18138
 GePol: Number of points with low weight             =      29
 GePol: Fraction of low-weight points (<1% of avg)   =       2.35%
 GePol: Cavity surface area                          =    168.823 Ang**2
 GePol: Cavity volume                                =    152.642 Ang**3
 ------------------------------------------------------------------------------
 Atomic radii for non-electrostatic terms: SMD-CDS.
 ------------------------------------------------------------------------------
 PCM non-electrostatic energy =         0.0000324956 Hartrees.
 Nuclear repulsion after PCM non-electrostatic terms =      229.3811505951 Hartrees.
 Leave Link  301 at Wed Jan  8 01:29:34 2020, MaxMem=  4294967296 cpu:               1.9 elap:               0.2
 (Enter /home/cwagen/sw/g16/g16/l302.exe)
 NPDir=0 NMtPBC=     1 NCelOv=     1 NCel=       1 NClECP=     1 NCelD=      1
         NCelK=      1 NCelE2=     1 NClLst=     1 CellRange=     0.0.
 One-electron integrals computed using PRISM.
 One-electron integral symmetry used in STVInt
 NBasis=   124 RedAO= T EigKep=  1.06D-04  NBF=   124
 NBsUse=   124 1.00D-06 EigRej= -1.00D+00 NBFU=   124
 Precomputing XC quadrature grid using
 IXCGrd= 4 IRadAn=           5 IRanWt=          -1 IRanGd=           0 AccXCQ= 0.00D+00.
 Generated NRdTot=       0 NPtTot=           0 NUsed=           0 NTot=          32
 NSgBfM=   124   124   124   124   124 MxSgAt=     9 MxSgA2=     9.
 Leave Link  302 at Wed Jan  8 01:29:36 2020, MaxMem=  4294967296 cpu:              31.6 elap:               2.7
 (Enter /home/cwagen/sw/g16/g16/l303.exe)
 DipDrv:  MaxL=1.
 Leave Link  303 at Wed Jan  8 01:29:37 2020, MaxMem=  4294967296 cpu:               2.2 elap:               0.3
 (Enter /home/cwagen/sw/g16/g16/l401.exe)
 Initial guess from the checkpoint file:  "/scratch/users/cwagen/cwagen_scan_260_200/Gau-3665.chk"
 B after Tr=     0.000000    0.000000    0.000000
         Rot=    0.999674   -0.008206   -0.004263   -0.023779 Ang=  -2.92 deg.
 Guess basis will be translated and rotated to current coordinates.
 JPrj=2 DoOrth=T DoCkMO=T.
 Generating alternative initial guess.
 ExpMin= 4.38D-02 ExpMax= 2.52D+04 ExpMxC= 3.78D+03 IAcc=2 IRadAn=         4 AccDes= 0.00D+00
 Harris functional with IExCor=  402 and IRadAn=       4 diagonalized for initial guess.
 HarFok:  IExCor=  402 AccDes= 0.00D+00 IRadAn=         4 IDoV= 1 UseB2=F ITyADJ=14
 ICtDFT=  3500011 ScaDFX=  1.000000  1.000000  1.000000  1.000000
 FoFCou: FMM=F IPFlag=           0 FMFlag=      100000 FMFlg1=           0
         NFxFlg=           0 DoJE=T BraDBF=F KetDBF=T FulRan=T
         wScrn=  0.000000 ICntrl=       500 IOpCl=  0 I1Cent=   200000004 NGrid=           0
         NMat0=    1 NMatS0=      1 NMatT0=    0 NMatD0=    1 NMtDS0=    0 NMtDT0=    0
 Petite list used in FoFCou.
 Harris En= -706.385258687059    
 Leave Link  401 at Wed Jan  8 01:29:40 2020, MaxMem=  4294967296 cpu:              36.2 elap:               2.8
 (Enter /home/cwagen/sw/g16/g16/l502.exe)
 Keep R1 ints in memory in canonical form, NReq=45236517.
 FoFCou: FMM=F IPFlag=           0 FMFlag=           0 FMFlg1=           0
         NFxFlg=           0 DoJE=F BraDBF=F KetDBF=F FulRan=T
         wScrn=  0.000000 ICntrl=       600 IOpCl=  0 I1Cent=           0 NGrid=           0
         NMat0=    1 NMatS0=   7750 NMatT0=    0 NMatD0=    1 NMtDS0=    0 NMtDT0=    0
 Symmetry not used in FoFCou.
 Two-electron integral symmetry not used.
 Closed shell SCF:
 Using DIIS extrapolation, IDIIS=  1040.
 NGot=  4294967296 LenX=  4264898079 LenY=  4264882262
 Requested convergence on RMS density matrix=1.00D-08 within 128 cycles.
 Requested convergence on MAX density matrix=1.00D-06.
 Requested convergence on             energy=1.00D-06.
 No special actions if energy rises.

 Cycle   1  Pass 1  IDiag  1:
 Inv3:  Mode=1 IEnd=     4583088.
 Iteration    1 A*A^-1 deviation from unit magnitude is 3.33D-15 for   1236.
 Iteration    1 A*A^-1 deviation from orthogonality  is 1.46D-15 for   1233   1060.
 Iteration    1 A^-1*A deviation from unit magnitude is 3.33D-15 for   1226.
 Iteration    1 A^-1*A deviation from orthogonality  is 1.53D-15 for   1114    241.
 E= -706.388371166275    
 DIIS: error= 5.55D-03 at cycle   1 NSaved=   1.
 NSaved= 1 IEnMin= 1 EnMin= -706.388371166275     IErMin= 1 ErrMin= 5.55D-03
 ErrMax= 5.55D-03  0.00D+00 EMaxC= 1.00D-01 BMatC= 1.02D-02 BMatP= 1.02D-02
 IDIUse=3 WtCom= 9.44D-01 WtEn= 5.55D-02
 Coeff-Com:  0.100D+01
 Coeff-En:   0.100D+01
 Coeff:      0.100D+01
 Gap=     0.580 Goal=   None    Shift=    0.000
 GapD=    0.580 DampG=2.000 DampE=1.000 DampFc=2.0000 IDamp=-1.
 RMSDP=2.09D-03 MaxDP=4.47D-02              OVMax= 4.54D-02

 Cycle   2  Pass 1  IDiag  1:
 E= -706.404210671033     Delta-E=       -0.015839504758 Rises=F Damp=F
 DIIS: error= 1.89D-03 at cycle   2 NSaved=   2.
 NSaved= 2 IEnMin= 2 EnMin= -706.404210671033     IErMin= 2 ErrMin= 1.89D-03
 ErrMax= 1.89D-03  0.00D+00 EMaxC= 1.00D-01 BMatC= 7.98D-04 BMatP= 1.02D-02
 IDIUse=3 WtCom= 9.81D-01 WtEn= 1.89D-02
 Coeff-Com:  0.916D-01 0.908D+00
 Coeff-En:   0.000D+00 0.100D+01
 Coeff:      0.899D-01 0.910D+00
 Gap=     0.182 Goal=   None    Shift=    0.000
 RMSDP=5.80D-04 MaxDP=1.37D-02 DE=-1.58D-02 OVMax= 2.46D-02

 Cycle   3  Pass 1  IDiag  1:
 E= -706.403543750447     Delta-E=        0.000666920586 Rises=F Damp=F
 DIIS: error= 2.40D-03 at cycle   3 NSaved=   3.
 NSaved= 3 IEnMin= 2 EnMin= -706.404210671033     IErMin= 2 ErrMin= 1.89D-03
 ErrMax= 2.40D-03  0.00D+00 EMaxC= 1.00D-01 BMatC= 1.56D-03 BMatP= 7.98D-04
 IDIUse=3 WtCom= 1.70D-01 WtEn= 8.30D-01
 Coeff-Com: -0.223D-01 0.596D+00 0.427D+00
 Coeff-En:   0.000D+00 0.636D+00 0.364D+00
 Coeff:     -0.379D-02 0.629D+00 0.374D+00
 Gap=     0.174 Goal=   None    Shift=    0.000
 RMSDP=4.10D-04 MaxDP=9.62D-03 DE= 6.67D-04 OVMax= 1.56D-02

 Cycle   4  Pass 1  IDiag  1:
 E= -706.404931730207     Delta-E=       -0.001387979759 Rises=F Damp=F
 DIIS: error= 6.22D-04 at cycle   4 NSaved=   4.
 NSaved= 4 IEnMin= 4 EnMin= -706.404931730207     IErMin= 4 ErrMin= 6.22D-04
 ErrMax= 6.22D-04  0.00D+00 EMaxC= 1.00D-01 BMatC= 8.21D-05 BMatP= 7.98D-04
 IDIUse=3 WtCom= 9.94D-01 WtEn= 6.22D-03
 Coeff-Com: -0.230D-01 0.273D+00 0.236D+00 0.514D+00
 Coeff-En:   0.000D+00 0.000D+00 0.000D+00 0.100D+01
 Coeff:     -0.228D-01 0.272D+00 0.234D+00 0.517D+00
 Gap=     0.173 Goal=   None    Shift=    0.000
 RMSDP=1.19D-04 MaxDP=2.45D-03 DE=-1.39D-03 OVMax= 2.88D-03

 Cycle   5  Pass 1  IDiag  1:
 E= -706.404990158813     Delta-E=       -0.000058428606 Rises=F Damp=F
 DIIS: error= 2.33D-04 at cycle   5 NSaved=   5.
 NSaved= 5 IEnMin= 5 EnMin= -706.404990158813     IErMin= 5 ErrMin= 2.33D-04
 ErrMax= 2.33D-04  0.00D+00 EMaxC= 1.00D-01 BMatC= 1.37D-05 BMatP= 8.21D-05
 IDIUse=3 WtCom= 9.98D-01 WtEn= 2.33D-03
 Coeff-Com: -0.816D-02 0.842D-01 0.948D-01 0.309D+00 0.520D+00
 Coeff-En:   0.000D+00 0.000D+00 0.000D+00 0.142D+00 0.858D+00
 Coeff:     -0.814D-02 0.840D-01 0.946D-01 0.309D+00 0.521D+00
 Gap=     0.174 Goal=   None    Shift=    0.000
 RMSDP=6.75D-05 MaxDP=2.25D-03 DE=-5.84D-05 OVMax= 1.75D-03

 Cycle   6  Pass 1  IDiag  1:
 E= -706.405004813110     Delta-E=       -0.000014654297 Rises=F Damp=F
 DIIS: error= 6.44D-05 at cycle   6 NSaved=   6.
 NSaved= 6 IEnMin= 6 EnMin= -706.405004813110     IErMin= 6 ErrMin= 6.44D-05
 ErrMax= 6.44D-05  0.00D+00 EMaxC= 1.00D-01 BMatC= 1.15D-06 BMatP= 1.37D-05
 IDIUse=1 WtCom= 1.00D+00 WtEn= 0.00D+00
 Coeff-Com: -0.234D-02 0.171D-01 0.278D-01 0.119D+00 0.287D+00 0.551D+00
 Coeff:     -0.234D-02 0.171D-01 0.278D-01 0.119D+00 0.287D+00 0.551D+00
 Gap=     0.174 Goal=   None    Shift=    0.000
 RMSDP=1.35D-05 MaxDP=3.63D-04 DE=-1.47D-05 OVMax= 3.94D-04

 Cycle   7  Pass 1  IDiag  1:
 E= -706.405005737433     Delta-E=       -0.000000924323 Rises=F Damp=F
 DIIS: error= 4.14D-05 at cycle   7 NSaved=   7.
 NSaved= 7 IEnMin= 7 EnMin= -706.405005737433     IErMin= 7 ErrMin= 4.14D-05
 ErrMax= 4.14D-05  0.00D+00 EMaxC= 1.00D-01 BMatC= 2.72D-07 BMatP= 1.15D-06
 IDIUse=1 WtCom= 1.00D+00 WtEn= 0.00D+00
 Coeff-Com: -0.518D-03-0.201D-03 0.566D-02 0.413D-01 0.134D+00 0.369D+00
 Coeff-Com:  0.451D+00
 Coeff:     -0.518D-03-0.201D-03 0.566D-02 0.413D-01 0.134D+00 0.369D+00
 Coeff:      0.451D+00
 Gap=     0.174 Goal=   None    Shift=    0.000
 RMSDP=4.83D-06 MaxDP=1.15D-04 DE=-9.24D-07 OVMax= 2.14D-04

 Cycle   8  Pass 1  IDiag  1:
 E= -706.405005961876     Delta-E=       -0.000000224443 Rises=F Damp=F
 DIIS: error= 1.41D-05 at cycle   8 NSaved=   8.
 NSaved= 8 IEnMin= 8 EnMin= -706.405005961876     IErMin= 8 ErrMin= 1.41D-05
 ErrMax= 1.41D-05  0.00D+00 EMaxC= 1.00D-01 BMatC= 2.80D-08 BMatP= 2.72D-07
 IDIUse=1 WtCom= 1.00D+00 WtEn= 0.00D+00
 Coeff-Com:  0.133D-03-0.338D-02-0.231D-02 0.244D-02 0.296D-01 0.110D+00
 Coeff-Com:  0.275D+00 0.588D+00
 Coeff:      0.133D-03-0.338D-02-0.231D-02 0.244D-02 0.296D-01 0.110D+00
 Coeff:      0.275D+00 0.588D+00
 Gap=     0.174 Goal=   None    Shift=    0.000
 RMSDP=2.22D-06 MaxDP=6.29D-05 DE=-2.24D-07 OVMax= 5.19D-05

 Cycle   9  Pass 1  IDiag  1:
 E= -706.405005987065     Delta-E=       -0.000000025188 Rises=F Damp=F
 DIIS: error= 2.29D-06 at cycle   9 NSaved=   9.
 NSaved= 9 IEnMin= 9 EnMin= -706.405005987065     IErMin= 9 ErrMin= 2.29D-06
 ErrMax= 2.29D-06  0.00D+00 EMaxC= 1.00D-01 BMatC= 1.67D-09 BMatP= 2.80D-08
 IDIUse=1 WtCom= 1.00D+00 WtEn= 0.00D+00
 Coeff-Com:  0.950D-04-0.154D-02-0.176D-02-0.168D-02 0.503D-02 0.214D-01
 Coeff-Com:  0.948D-01 0.267D+00 0.617D+00
 Coeff:      0.950D-04-0.154D-02-0.176D-02-0.168D-02 0.503D-02 0.214D-01
 Coeff:      0.948D-01 0.267D+00 0.617D+00
 Gap=     0.174 Goal=   None    Shift=    0.000
 RMSDP=6.80D-07 MaxDP=2.14D-05 DE=-2.52D-08 OVMax= 2.66D-05

 Cycle  10  Pass 1  IDiag  1:
 E= -706.405005989125     Delta-E=       -0.000000002061 Rises=F Damp=F
 DIIS: error= 6.51D-07 at cycle  10 NSaved=  10.
 NSaved=10 IEnMin=10 EnMin= -706.405005989125     IErMin=10 ErrMin= 6.51D-07
 ErrMax= 6.51D-07  0.00D+00 EMaxC= 1.00D-01 BMatC= 1.32D-10 BMatP= 1.67D-09
 IDIUse=1 WtCom= 1.00D+00 WtEn= 0.00D+00
 Coeff-Com:  0.256D-04-0.221D-03-0.531D-03-0.887D-03-0.109D-02-0.466D-02
 Coeff-Com:  0.462D-02 0.392D-01 0.257D+00 0.706D+00
 Coeff:      0.256D-04-0.221D-03-0.531D-03-0.887D-03-0.109D-02-0.466D-02
 Coeff:      0.462D-02 0.392D-01 0.257D+00 0.706D+00
 Gap=     0.174 Goal=   None    Shift=    0.000
 RMSDP=1.77D-07 MaxDP=5.64D-06 DE=-2.06D-09 OVMax= 5.39D-06

 Cycle  11  Pass 1  IDiag  1:
 E= -706.405005989289     Delta-E=       -0.000000000163 Rises=F Damp=F
 DIIS: error= 1.72D-07 at cycle  11 NSaved=  11.
 NSaved=11 IEnMin=11 EnMin= -706.405005989289     IErMin=11 ErrMin= 1.72D-07
 ErrMax= 1.72D-07  0.00D+00 EMaxC= 1.00D-01 BMatC= 2.51D-12 BMatP= 1.32D-10
 IDIUse=1 WtCom= 1.00D+00 WtEn= 0.00D+00
 Coeff-Com:  0.254D-05 0.165D-04-0.552D-04-0.185D-03-0.543D-03-0.234D-02
 Coeff-Com: -0.382D-02-0.148D-02 0.410D-01 0.193D+00 0.774D+00
 Coeff:      0.254D-05 0.165D-04-0.552D-04-0.185D-03-0.543D-03-0.234D-02
 Coeff:     -0.382D-02-0.148D-02 0.410D-01 0.193D+00 0.774D+00
 Gap=     0.174 Goal=   None    Shift=    0.000
 RMSDP=6.91D-08 MaxDP=2.63D-06 DE=-1.63D-10 OVMax= 8.88D-07

 Cycle  12  Pass 1  IDiag  1:
 E= -706.405005989291     Delta-E=       -0.000000000003 Rises=F Damp=F
 DIIS: error= 2.63D-08 at cycle  12 NSaved=  12.
 NSaved=12 IEnMin=12 EnMin= -706.405005989291     IErMin=12 ErrMin= 2.63D-08
 ErrMax= 2.63D-08  0.00D+00 EMaxC= 1.00D-01 BMatC= 1.81D-13 BMatP= 2.51D-12
 IDIUse=1 WtCom= 1.00D+00 WtEn= 0.00D+00
 Coeff-Com: -0.210D-06 0.113D-04 0.971D-05-0.203D-04-0.930D-04-0.354D-03
 Coeff-Com: -0.122D-02-0.155D-02 0.614D-03 0.195D-01 0.201D+00 0.782D+00
 Coeff:     -0.210D-06 0.113D-04 0.971D-05-0.203D-04-0.930D-04-0.354D-03
 Coeff:     -0.122D-02-0.155D-02 0.614D-03 0.195D-01 0.201D+00 0.782D+00
 Gap=     0.174 Goal=   None    Shift=    0.000
 RMSDP=9.96D-09 MaxDP=3.46D-07 DE=-2.61D-12 OVMax= 1.88D-07

 Error on total polarization charges =  0.02347
 SCF Done:  E(RB3LYP) =  -706.405005989     A.U. after   12 cycles
            NFock= 12  Conv=0.10D-07     -V/T= 2.0059
 KE= 7.022268576150D+02 PE=-2.136494268643D+03 EE= 4.984812544436D+02
 SMD-CDS (non-electrostatic) energy       (kcal/mol) =       0.02
 (included in total energy above)
 Leave Link  502 at Wed Jan  8 01:30:15 2020, MaxMem=  4294967296 cpu:             515.5 elap:              35.7
 (Enter /home/cwagen/sw/g16/g16/l701.exe)
 ... and contract with generalized density number  0.
 Compute integral first derivatives.
 D1PCM: PCM CHGder 1st derivatives, ID1Alg=3 FixD1E=F DoIter=F DoCFld=F I1PDM=0.
 GePol: Maximum number of non-zero 1st derivatives   =     385
 Leave Link  701 at Wed Jan  8 01:30:21 2020, MaxMem=  4294967296 cpu:              72.0 elap:               6.1
 (Enter /home/cwagen/sw/g16/g16/l702.exe)
 L702 exits ... SP integral derivatives will be done elsewhere.
 Leave Link  702 at Wed Jan  8 01:30:21 2020, MaxMem=  4294967296 cpu:               0.8 elap:               0.1
 (Enter /home/cwagen/sw/g16/g16/l703.exe)
 Integral derivatives from FoFJK, PRISM(SPDF).
 Compute integral first derivatives, UseDBF=F ICtDFT=           0.
 Calling FoFJK, ICntrl=      2127 FMM=F ISym2X=0 I1Cent= 0 IOpClX= 0 NMat=1 NMatS=1 NMatT=0.
 FoFJK:  IHMeth= 1 ICntrl=    2127 DoSepK=F KAlg= 0 I1Cent=           0 FoldK=F
 IRaf=         0 NMat=       1 IRICut=       1 DoRegI=T DoRafI=F ISym2E= 0 IDoP0=0 IntGTp=1.
 FoFCou: FMM=F IPFlag=           0 FMFlag=      100000 FMFlg1=         800
         NFxFlg=           0 DoJE=F BraDBF=F KetDBF=F FulRan=T
         wScrn=  0.000000 ICntrl=      2127 IOpCl=  0 I1Cent=           0 NGrid=           0
         NMat0=    1 NMatS0=      1 NMatT0=    0 NMatD0=    1 NMtDS0=    0 NMtDT0=    0
 Symmetry not used in FoFCou.
 Leave Link  703 at Wed Jan  8 01:30:24 2020, MaxMem=  4294967296 cpu:              32.9 elap:               2.6
 (Enter /home/cwagen/sw/g16/g16/l716.exe)
 Dipole        = 4.53371463D-01 2.76636916D+00-9.32628000D-01
 ***** Axes restored to original set *****
 -------------------------------------------------------------------
 Center     Atomic                   Forces (Hartrees/Bohr)
 Number     Number              X              Y              Z
 -------------------------------------------------------------------
      1        6           0.041024976   -0.027367440   -0.038588866
      2        8          -0.007720687    0.023800510    0.038779969
      3        6          -0.009733183    0.020030745    0.006656718
      4        1           0.000331880   -0.000091169   -0.001915163
      5        1           0.000753776    0.000127227   -0.000449277
      6        1           0.001922266    0.000056700   -0.000954929
      7       17           0.007717714   -0.009574107   -0.001657486
      8        6          -0.035082238   -0.007512481   -0.001877803
      9        7           0.000785495    0.000530016    0.000006836
 -------------------------------------------------------------------
 Cartesian Forces:  Max     0.041024976 RMS     0.017262831
 Leave Link  716 at Wed Jan  8 01:30:24 2020, MaxMem=  4294967296 cpu:               1.0 elap:               0.1
 (Enter /home/cwagen/sw/g16/g16/l103.exe)

 GradGradGradGradGradGradGradGradGradGradGradGradGradGradGradGradGradGrad
 Berny optimization.
 Using GEDIIS/GDIIS optimizer.
 FormGI is forming the generalized inverse of G from B-inverse, IUseBI=4.
 Internal  Forces:  Max     0.041627713 RMS     0.012171160
 Search for a local minimum.
 Step number   2 out of a maximum of   41
 All quantities printed in internal units (Hartrees-Bohrs-Radians)
 RMS Force = .10639D-01 SwitMx=.10000D-02 MixMth= 1
 Mixed Optimization -- RFO/linear search
 Update second derivatives using D2CorX and points    1    2
 DE= -2.95D-02 DEPred=-2.32D-02 R= 1.27D+00
 TightC=F SS=  1.41D+00  RLast= 3.46D-01 DXNew= 5.0454D-01 1.0390D+00
 Trust test= 1.27D+00 RLast= 3.46D-01 DXMaxT set to 5.05D-01
 ITU=  1  0
 Use linear search instead of GDIIS.
     Eigenvalues ---    0.00230   0.04745   0.04760   0.05483   0.05633
     Eigenvalues ---    0.06094   0.08915   0.15997   0.16000   0.16134
     Eigenvalues ---    0.21369   0.25000   0.26043   0.26795   0.33916
     Eigenvalues ---    0.33986   0.34306   0.60510   1.220381000.00000
     Eigenvalues --- 1000.000001000.000001000.000001000.000001000.00000
     Eigenvalues --- 1000.000001000.000001000.000001000.000001000.00000
     Eigenvalues --- 1000.00000
 RFO step:  Lambda=-2.73201126D-03 EMin= 2.30054338D-03
 Quartic linear search produced a step of  0.59204.
 Iteration  1 RMS(Cart)=  0.07813743 RMS(Int)=  0.00854730
 Iteration  2 RMS(Cart)=  0.00737663 RMS(Int)=  0.00538484
 Iteration  3 RMS(Cart)=  0.00006201 RMS(Int)=  0.00538460
 Iteration  4 RMS(Cart)=  0.00000120 RMS(Int)=  0.00538460
 Iteration  5 RMS(Cart)=  0.00000001 RMS(Int)=  0.00538460
 Iteration  1 RMS(Cart)=  0.00000000 RMS(Int)=  0.00000000
 ITry= 1 IFail=0 DXMaxC= 1.78D-01 DCOld= 1.00D+10 DXMaxT= 5.05D-01 DXLimC= 3.00D+00 Rises=F
 Variable       Old X    -DE/DX   Delta X   Delta X   Delta X     New X
                                 (Linear)    (Quad)   (Total)
    R1        2.29129  -0.04163  -0.09531   0.00561  -0.08970   2.20159
    R2        2.87563  -0.01089  -0.04109  -0.00888  -0.04997   2.82565
    R3        4.91329  -0.01228   0.00000   0.00000   0.00000   4.91329
    R4        3.77945  -0.03404   0.00000   0.00000   0.00000   3.77945
    R5        2.06555  -0.00174  -0.00460  -0.00239  -0.00698   2.05856
    R6        2.07090  -0.00072  -0.00224  -0.00054  -0.00278   2.06812
    R7        2.06498   0.00143  -0.00219   0.00939   0.00720   2.07218
    R8        2.20942   0.00090   0.00011   0.00106   0.00117   2.21059
    A1        2.15760   0.02565   0.09528   0.04853   0.13511   2.29271
    A2        1.94278  -0.00847  -0.04517  -0.01605  -0.05307   1.88972
    A3        1.89822  -0.00214   0.00345   0.05207   0.03678   1.93499
    A4        1.83361  -0.01454  -0.05363  -0.05113  -0.09894   1.73467
    A5        1.83006  -0.00046   0.03441  -0.02699  -0.00837   1.82170
    A6        1.75816  -0.00549  -0.04537  -0.02105  -0.06777   1.69039
    A7        1.96279  -0.00072  -0.00663   0.00413  -0.00267   1.96012
    A8        1.89009   0.00023   0.00631  -0.00742  -0.00107   1.88902
    A9        1.85264  -0.00206  -0.02887   0.02628  -0.00277   1.84987
   A10        1.91328   0.00076   0.00575  -0.00030   0.00547   1.91875
   A11        1.92695   0.00081   0.01100  -0.01054   0.00008   1.92704
   A12        1.91681   0.00094   0.01259  -0.01196   0.00068   1.91749
   A13        3.06922   0.00072  -0.01635   0.07644   0.06008   3.12931
   A14        2.91783   0.00010   0.00932  -0.02726  -0.01793   2.89989
    D1        3.11023   0.00715   0.03856   0.02293   0.06674  -3.10622
    D2       -1.05602   0.00780   0.04591   0.02012   0.07118  -0.98484
    D3        1.00136   0.00792   0.04867   0.01629   0.06998   1.07134
    D4       -0.91946   0.00162   0.00438  -0.01297  -0.01066  -0.93012
    D5        1.19748   0.00228   0.01173  -0.01579  -0.00622   1.19126
    D6       -3.02833   0.00239   0.01449  -0.01962  -0.00741  -3.03574
    D7        0.92569  -0.00965  -0.05063  -0.06351  -0.11700   0.80869
    D8        3.04263  -0.00899  -0.04328  -0.06632  -0.11256   2.93007
    D9       -1.18319  -0.00888  -0.04052  -0.07015  -0.11375  -1.29694
         Item               Value     Threshold  Converged?
 Maximum Force            0.041628     0.000450     NO 
 RMS     Force            0.010639     0.000300     NO 
 Maximum Displacement     0.178103     0.001800     NO 
 RMS     Displacement     0.079875     0.001200     NO 
 Predicted change in Energy=-9.916772D-03
 Lowest energy point so far.  Saving SCF results.
 GradGradGradGradGradGradGradGradGradGradGradGradGradGradGradGradGradGrad

 Leave Link  103 at Wed Jan  8 01:30:34 2020, MaxMem=  4294967296 cpu:             110.9 elap:               9.6
 (Enter /home/cwagen/sw/g16/g16/l202.exe)
                          Input orientation:                          
 ---------------------------------------------------------------------
 Center     Atomic      Atomic             Coordinates (Angstroms)
 Number     Number       Type             X           Y           Z
 ---------------------------------------------------------------------
      1          6           0       -0.117657   -0.474933   -0.303787
      2          8           0       -0.251170   -0.573152   -1.456965
      3          6           0       -0.361347   -1.447491    0.805530
      4          1           0       -0.163961   -1.014794    1.785573
      5          1           0       -1.402470   -1.779703    0.747110
      6          1           0        0.310765   -2.293513    0.618611
      7         17           0       -1.601428    1.493126    0.523960
      8          6           0        1.647500    0.353548    0.141005
      9          7           0        2.738797    0.765789    0.227892
 ---------------------------------------------------------------------
                    Distance matrix (angstroms):
                    1          2          3          4          5
     1  C    0.000000
     2  O    1.165029   0.000000
     3  C    1.495271   2.428063   0.000000
     4  H    2.158476   3.273638   1.089345   0.000000
     5  H    2.111291   2.763910   1.094401   1.788127   0.000000
     6  H    2.083650   2.753803   1.096552   1.795073   1.793234
     7  Cl   2.600000   3.164927   3.203796   3.153989   3.286455
     8  C    2.000000   2.649005   2.778633   2.803275   3.771000
     9  N    3.159336   3.683939   3.852683   3.744709   4.888681
                    6          7          8          9
     6  H    0.000000
     7  Cl   4.243121   0.000000
     8  C    3.003648   3.464221   0.000000
     9  N    3.925217   4.410695   1.169795   0.000000
 Stoichiometry    C3H3ClNO(1-)
 Framework group  C1[X(C3H3ClNO)]
 Deg. of freedom    21
 Full point group                 C1      NOp   1
 RotChk:  IX=0 Diff= 9.93D-02
 Largest Abelian subgroup         C1      NOp   1
 Largest concise Abelian subgroup C1      NOp   1
                         Standard orientation:                         
 ---------------------------------------------------------------------
 Center     Atomic      Atomic             Coordinates (Angstroms)
 Number     Number       Type             X           Y           Z
 ---------------------------------------------------------------------
      1          6           0        0.206210    0.741555    0.251718
      2          8           0        0.234640    1.100309    1.359770
      3          6           0        0.123304    1.503946   -1.031918
      4          1           0        0.081218    0.847862   -1.900512
      5          1           0       -0.769663    2.135741   -0.997869
      6          1           0        1.022135    2.130940   -1.069445
      7         17           0       -1.852355   -0.818163   -0.047596
      8          6           0        1.607367   -0.645505   -0.084176
      9          7           0        2.522564   -1.372602   -0.130706
 ---------------------------------------------------------------------
 Rotational constants (GHZ):           3.0330698           1.7313889           1.3987461
 Leave Link  202 at Wed Jan  8 01:30:34 2020, MaxMem=  4294967296 cpu:               1.6 elap:               0.2
 (Enter /home/cwagen/sw/g16/g16/l301.exe)
 Standard basis: 6-31+G(d) (6D, 7F)
 Ernie: Thresh=  0.10000D-02 Tol=  0.10000D-05 Strict=F.
 There are   124 symmetry adapted cartesian basis functions of A   symmetry.
 There are   124 symmetry adapted basis functions of A   symmetry.
   124 basis functions,   228 primitive gaussians,   124 cartesian basis functions
    27 alpha electrons       27 beta electrons
       nuclear repulsion energy       232.9161169286 Hartrees.
 IExCor=  402 DFT=T Ex+Corr=B3LYP ExCW=0 ScaHFX=  0.200000
 ScaDFX=  0.800000  0.720000  1.000000  0.810000 ScalE2=  1.000000  1.000000
 IRadAn=      5 IRanWt=     -1 IRanGd=            0 ICorTp=0 IEmpDi=  4
 NAtoms=    9 NActive=    9 NUniq=    9 SFac= 1.00D+00 NAtFMM=   60 NAOKFM=F Big=F
 Integral buffers will be    131072 words long.
 Raffenetti 2 integral format.
 Two-electron integral symmetry is turned on.
 ------------------------------------------------------------------------------
 Polarizable Continuum Model (PCM)
 =================================
 Model                : PCM.
 Atomic radii         : SMD-Coulomb.
 Polarization charges : Total charges.
 Charge compensation  : None.
 Solution method      : On-the-fly selection.
 Cavity type          : VdW (van der Waals Surface) (Alpha=1.000).
 Cavity algorithm     : GePol (No added spheres)
                        Default sphere list used, NSphG=    9.
                        Lebedev-Laikov grids with approx.  5.0 points / Ang**2.
                        Smoothing algorithm: York/Karplus (Gamma=1.0000).
                        Polarization charges: spherical gaussians, with
                                              point-specific exponents (IZeta= 3).
                        Self-potential: point-specific (ISelfS= 7).
                        Self-field    : sphere-specific E.n sum rule (ISelfD= 2).
 1st derivatives      : Analytical E(r).r(x)/FMM algorithm (CHGder, D1EAlg=3).
                        Cavity 1st derivative terms included.
 Solvent              : TetraHydroFuran, Eps=   7.425700 Eps(inf)=   1.974025
 ------------------------------------------------------------------------------
 Spheres list:
 ISph  on   Nord     Re0    Alpha      Xe            Ye            Ze
    1   C      1    1.8500  1.000      0.206210      0.741555      0.251718
    2   O      2    2.2940  1.000      0.234640      1.100309      1.359770
    3   C      3    1.8500  1.000      0.123304      1.503946     -1.031918
    4   H      4    1.2000  1.000      0.081218      0.847862     -1.900512
    5   H      5    1.2000  1.000     -0.769663      2.135741     -0.997869
    6   H      6    1.2000  1.000      1.022135      2.130940     -1.069445
    7  Cl      7    2.3800  1.000     -1.852355     -0.818163     -0.047596
    8   C      8    1.8500  1.000      1.607367     -0.645505     -0.084176
    9   N      9    1.8900  1.000      2.522564     -1.372602     -0.130706
 ------------------------------------------------------------------------------
 GePol: Number of generator spheres                  =       9
 GePol: Total number of spheres                      =       9
 GePol: Number of exposed spheres                    =       9 (100.00%)
 GePol: Number of points                             =    1233
 GePol: Average weight of points                     =       0.14
 GePol: Minimum weight of points                     =   0.37D-10
 GePol: Maximum weight of points                     =    0.18138
 GePol: Number of points with low weight             =      44
 GePol: Fraction of low-weight points (<1% of avg)   =       3.57%
 GePol: Cavity surface area                          =    166.571 Ang**2
 GePol: Cavity volume                                =    151.509 Ang**3
 ------------------------------------------------------------------------------
 Atomic radii for non-electrostatic terms: SMD-CDS.
 ------------------------------------------------------------------------------
 PCM non-electrostatic energy =         0.0000200925 Hartrees.
 Nuclear repulsion after PCM non-electrostatic terms =      232.9161370211 Hartrees.
 Leave Link  301 at Wed Jan  8 01:30:34 2020, MaxMem=  4294967296 cpu:               2.1 elap:               0.2
 (Enter /home/cwagen/sw/g16/g16/l302.exe)
 NPDir=0 NMtPBC=     1 NCelOv=     1 NCel=       1 NClECP=     1 NCelD=      1
         NCelK=      1 NCelE2=     1 NClLst=     1 CellRange=     0.0.
 One-electron integrals computed using PRISM.
 One-electron integral symmetry used in STVInt
 NBasis=   124 RedAO= T EigKep=  8.65D-05  NBF=   124
 NBsUse=   124 1.00D-06 EigRej= -1.00D+00 NBFU=   124
 Precomputing XC quadrature grid using
[...]
      7       17          -0.000751543    0.000786577    0.000448448
      8        6          -0.030394884   -0.015653028   -0.007970491
      9        7          -0.000072559    0.000137914    0.000062011
 -------------------------------------------------------------------
 Cartesian Forces:  Max     0.031003673 RMS     0.009569470
 Leave Link  716 at Wed Jan  8 01:35:50 2020, MaxMem=  4294967296 cpu:               0.8 elap:               0.1
 (Enter /home/cwagen/sw/g16/g16/l103.exe)

 GradGradGradGradGradGradGradGradGradGradGradGradGradGradGradGradGradGrad
 Berny optimization.
 Using GEDIIS/GDIIS optimizer.
 FormGI is forming the generalized inverse of G from B-inverse, IUseBI=4.
 Internal  Forces:  Max     0.035115924 RMS     0.006310505
 Search for a local minimum.
 Step number   9 out of a maximum of   41
 All quantities printed in internal units (Hartrees-Bohrs-Radians)
 RMS Force = .19538D-04 SwitMx=.10000D-02 MixMth= 2
 Mixed Optimization -- En-DIIS/RFO-DIIS
 Swapping is turned off.
 Update second derivatives using D2CorX and points    3    4    5    6    7
                                                      8    9
 DE= -4.19D-07 DEPred=-2.07D-07 R= 2.02D+00
 Trust test= 2.02D+00 RLast= 2.72D-03 DXMaxT set to 9.01D-01
 ITU=  0  1  1  1  1  1  1  1  0
     Eigenvalues ---    0.00250   0.01632   0.03697   0.04826   0.05569
     Eigenvalues ---    0.06037   0.08432   0.14441   0.16228   0.16532
     Eigenvalues ---    0.18127   0.23868   0.25140   0.29517   0.33958
     Eigenvalues ---    0.33986   0.34480   0.98418   1.222361000.00000
     Eigenvalues --- 1000.000001000.000001000.000001000.000001000.00000
     Eigenvalues --- 1000.000001000.000001000.000001000.000001000.00000
     Eigenvalues --- 1000.00000
 En-DIIS/RFO-DIIS/Sim-DIIS IScMMF=       -3 using points:     9    8    7    6    5
 RFO step:  Lambda=-1.33013297D-06.
 NNeg= 0 NGDIIS= 5 SimSw=  2.50D-01 Rises=F DC= -4.19D-07 SmlDif=  1.00D-05
 NRisDI= 0 DoIntr=F SqrtH=F CThrHd= 10.0 CDAdj=  3.0
 RMS Error=  0.3087739185D-03 NUsed= 5 OKEnD=F EnDIS=F
 InvSVX:  RCond= 8.16D-08 Info=           0 Equed=N FErr=  2.80D-13 BErr=  6.79D-17
 DIIS inversion failure, remove point   5.
 InvSVX:  RCond= 1.74D-07 Info=           0 Equed=N FErr=  1.87D-14 BErr=  7.29D-17
 RFO-DIIS uses    4 points instead of    5
 DidBck=F Rises=F RFO-DIIS coefs:    1.03620    0.11244   -0.20524    0.05660    0.00000
 Iteration  1 RMS(Cart)=  0.00058753 RMS(Int)=  0.00000014
 Iteration  2 RMS(Cart)=  0.00000013 RMS(Int)=  0.00000008
 Iteration  1 RMS(Cart)=  0.00000000 RMS(Int)=  0.00000000
 ITry= 1 IFail=0 DXMaxC= 1.62D-03 DCOld= 1.00D+10 DXMaxT= 9.01D-01 DXLimC= 3.00D+00 Rises=F
 Variable       Old X    -DE/DX   Delta X   Delta X   Delta X     New X
                                 (Linear)    (Quad)   (Total)
    R1        2.22406   0.00001  -0.00005   0.00003  -0.00001   2.22405
    R2        2.80954   0.00000   0.00001  -0.00004  -0.00003   2.80951
    R3        4.91329   0.00117   0.00000   0.00000   0.00000   4.91329
    R4        3.77945  -0.03512   0.00000   0.00000   0.00000   3.77945
    R5        2.05522   0.00000  -0.00002  -0.00001  -0.00003   2.05519
    R6        2.06747   0.00000  -0.00001   0.00002   0.00002   2.06749
    R7        2.07721   0.00000   0.00003  -0.00001   0.00002   2.07723
    R8        2.21010   0.00000   0.00001   0.00000   0.00000   2.21011
    A1        2.35382   0.00005   0.00007   0.00020   0.00027   2.35409
    A2        1.83729   0.00001   0.00011  -0.00013  -0.00002   1.83727
    A3        1.98261   0.00001  -0.00001   0.00008   0.00007   1.98269
    A4        1.65083  -0.00005  -0.00008  -0.00025  -0.00033   1.65049
    A5        1.84024  -0.00005  -0.00021  -0.00015  -0.00036   1.83988
    A6        1.61142   0.00004   0.00031   0.00015   0.00046   1.61187
    A7        1.94409  -0.00002   0.00008  -0.00018  -0.00010   1.94399
    A8        1.89840   0.00001   0.00012   0.00001   0.00013   1.89852
    A9        1.86020   0.00001  -0.00015   0.00012  -0.00003   1.86017
   A10        1.93118   0.00000  -0.00015   0.00014   0.00000   1.93117
   A11        1.91528   0.00000   0.00015  -0.00009   0.00006   1.91534
   A12        1.91321  -0.00001  -0.00005  -0.00001  -0.00006   1.91315
   A13        3.14909   0.00000  -0.00043   0.00019  -0.00025   3.14885
   A14        3.01568  -0.00001  -0.00039   0.00016  -0.00023   3.01544
    D1       -2.91979   0.00001   0.00022   0.00023   0.00046  -2.91934
    D2       -0.78675   0.00001   0.00017   0.00031   0.00048  -0.78628
    D3        1.27470   0.00001   0.00009   0.00037   0.00046   1.27516
    D4       -0.87935  -0.00002   0.00033  -0.00014   0.00020  -0.87915
    D5        1.25369  -0.00001   0.00028  -0.00007   0.00022   1.25391
    D6       -2.96804  -0.00001   0.00020   0.00000   0.00020  -2.96784
    D7        0.75591   0.00001   0.00061  -0.00007   0.00054   0.75645
    D8        2.88895   0.00001   0.00056   0.00001   0.00056   2.88951
    D9       -1.33279   0.00001   0.00048   0.00007   0.00055  -1.33224
         Item               Value     Threshold  Converged?
 Maximum Force            0.000052     0.000450     YES
 RMS     Force            0.000020     0.000300     YES
 Maximum Displacement     0.001620     0.001800     YES
 RMS     Displacement     0.000588     0.001200     YES
 Predicted change in Energy=-4.739146D-08
 Optimization completed.
    -- Stationary point found.
                           ----------------------------
                           !   Optimized Parameters   !
                           ! (Angstroms and Degrees)  !
 --------------------------                            --------------------------
 ! Name  Definition              Value          Derivative Info.                !
 --------------------------------------------------------------------------------
 ! R1    R(1,2)                  1.1769         -DE/DX =    0.0                 !
 ! R2    R(1,3)                  1.4867         -DE/DX =    0.0                 !
 ! R3    R(1,7)                  2.6            -DE/DX =    0.0012              !
 ! R4    R(1,8)                  2.0            -DE/DX =   -0.0351              !
 ! R5    R(3,4)                  1.0876         -DE/DX =    0.0                 !
 ! R6    R(3,5)                  1.0941         -DE/DX =    0.0                 !
 ! R7    R(3,6)                  1.0992         -DE/DX =    0.0                 !
 ! R8    R(8,9)                  1.1695         -DE/DX =    0.0                 !
 ! A1    A(2,1,3)              134.8637         -DE/DX =    0.0                 !
 ! A2    A(2,1,7)              105.2692         -DE/DX =    0.0                 !
 ! A3    A(2,1,8)              113.5954         -DE/DX =    0.0                 !
 ! A4    A(3,1,7)               94.5854         -DE/DX =   -0.0001              !
 ! A5    A(3,1,8)              105.4381         -DE/DX =   -0.0001              !
 ! A6    A(7,1,8)               92.3274         -DE/DX =    0.0                 !
 ! A7    A(1,3,4)              111.388          -DE/DX =    0.0                 !
 ! A8    A(1,3,5)              108.7702         -DE/DX =    0.0                 !
 ! A9    A(1,3,6)              106.5817         -DE/DX =    0.0                 !
 ! A10   A(4,3,5)              110.6482         -DE/DX =    0.0                 !
 ! A11   A(4,3,6)              109.7377         -DE/DX =    0.0                 !
 ! A12   A(5,3,6)              109.619          -DE/DX =    0.0                 !
 ! A13   L(1,8,9,6,-1)         180.4298         -DE/DX =    0.0                 !
 ! A14   L(1,8,9,6,-2)         172.7855         -DE/DX =    0.0                 !
 ! D1    D(2,1,3,4)           -167.2919         -DE/DX =    0.0                 !
 ! D2    D(2,1,3,5)            -45.0777         -DE/DX =    0.0                 !
 ! D3    D(2,1,3,6)             73.035          -DE/DX =    0.0                 !
 ! D4    D(7,1,3,4)            -50.383          -DE/DX =    0.0                 !
 ! D5    D(7,1,3,5)             71.8311         -DE/DX =    0.0                 !
 ! D6    D(7,1,3,6)           -170.0562         -DE/DX =    0.0                 !
 ! D7    D(8,1,3,4)             43.3102         -DE/DX =    0.0                 !
 ! D8    D(8,1,3,5)            165.5244         -DE/DX =    0.0                 !
 ! D9    D(8,1,3,6)            -76.363          -DE/DX =    0.0                 !
 --------------------------------------------------------------------------------
 Lowest energy point so far.  Saving SCF results.
 Largest change from initial coordinates is atom    5       0.194 Angstoms.
 GradGradGradGradGradGradGradGradGradGradGradGradGradGradGradGradGradGrad

 Leave Link  103 at Wed Jan  8 01:35:56 2020, MaxMem=  4294967296 cpu:              61.0 elap:               5.4
 (Enter /home/cwagen/sw/g16/g16/l202.exe)
                          Input orientation:                          
 ---------------------------------------------------------------------
 Center     Atomic      Atomic             Coordinates (Angstroms)
 Number     Number       Type             X           Y           Z
 ---------------------------------------------------------------------
      1          6           0       -0.079766   -0.545166   -0.349076
      2          8           0       -0.308029   -0.567679   -1.503431
      3          6           0       -0.372770   -1.447352    0.795744
      4          1           0       -0.178553   -0.957061    1.746909
      5          1           0       -1.416934   -1.767914    0.733062
      6          1           0        0.288089   -2.318779    0.685536
      7         17           0       -1.476477    1.438221    0.586539
      8          6           0        1.649184    0.350389    0.107776
      9          7           0        2.694283    0.844216    0.285870
 ---------------------------------------------------------------------
                    Distance matrix (angstroms):
                    1          2          3          4          5
     1  C    0.000000
     2  O    1.176923   0.000000
     3  C    1.486743   2.462564   0.000000
     4  H    2.138356   3.276140   1.087575   0.000000
     5  H    2.110487   2.769862   1.094060   1.794145   0.000000
     6  H    2.086011   2.865883   1.099212   1.788448   1.792433
     7  Cl   2.600000   3.123600   3.096525   2.961155   3.210034
     8  C    2.000000   2.696205   2.791679   2.781511   3.778792
     9  N    3.166842   3.769473   3.862392   3.692211   4.891351
                    6          7          8          9
     6  H    0.000000
     7  Cl   4.151933   0.000000
     8  C    3.051368   3.344001   0.000000
     9  N    3.994251   4.223563   1.169536   0.000000
 Stoichiometry    C3H3ClNO(1-)
 Framework group  C1[X(C3H3ClNO)]
 Deg. of freedom    21
 Full point group                 C1      NOp   1
 RotChk:  IX=0 Diff= 1.45D-15
 Largest Abelian subgroup         C1      NOp   1
 Largest concise Abelian subgroup C1      NOp   1
                         Standard orientation:                         
 ---------------------------------------------------------------------
 Center     Atomic      Atomic             Coordinates (Angstroms)
 Number     Number       Type             X           Y           Z
 ---------------------------------------------------------------------
      1          6           0        0.199014    0.831493    0.235473
      2          8           0        0.120457    1.216969    1.344700
      3          6           0       -0.017982    1.439274   -1.103900
      4          1           0       -0.053177    0.680860   -1.882610
      5          1           0       -0.948544    2.014240   -1.083002
      6          1           0        0.829858    2.115678   -1.282534
      7         17           0       -1.708163   -0.917289   -0.018373
      8          6           0        1.616053   -0.554316   -0.031985
      9          7           0        2.494925   -1.321618   -0.113520
 ---------------------------------------------------------------------
 Rotational constants (GHZ):           2.9077746           1.8514729           1.4582904
 Leave Link  202 at Wed Jan  8 01:35:56 2020, MaxMem=  4294967296 cpu:               1.0 elap:               0.1
 (Enter /home/cwagen/sw/g16/g16/l601.exe)
 Copying SCF densities to generalized density rwf, IOpCl= 0 IROHF=0.

 **********************************************************************

            Population analysis using the SCF density.

 **********************************************************************

 Orbital symmetries:
       Occupied  (A) (A) (A) (A) (A) (A) (A) (A) (A) (A) (A) (A)
                 (A) (A) (A) (A) (A) (A) (A) (A) (A) (A) (A) (A)
                 (A) (A) (A)
       Virtual   (A) (A) (A) (A) (A) (A) (A) (A) (A) (A) (A) (A)
                 (A) (A) (A) (A) (A) (A) (A) (A) (A) (A) (A) (A)
                 (A) (A) (A) (A) (A) (A) (A) (A) (A) (A) (A) (A)
                 (A) (A) (A) (A) (A) (A) (A) (A) (A) (A) (A) (A)
                 (A) (A) (A) (A) (A) (A) (A) (A) (A) (A) (A) (A)
                 (A) (A) (A) (A) (A) (A) (A) (A) (A) (A) (A) (A)
                 (A) (A) (A) (A) (A) (A) (A) (A) (A) (A) (A) (A)
                 (A) (A) (A) (A) (A) (A) (A) (A) (A) (A) (A) (A)
                 (A)
 The electronic state is 1-A.
 Alpha  occ. eigenvalues -- -101.42968 -19.18665 -14.30881 -10.34091 -10.19698
 Alpha  occ. eigenvalues --  -10.19284  -9.34366  -7.10267  -7.10076  -7.10069
 Alpha  occ. eigenvalues --   -1.09342  -0.86797  -0.75864  -0.68436  -0.54811
 Alpha  occ. eigenvalues --   -0.48462  -0.45946  -0.45282  -0.39652  -0.38169
 Alpha  occ. eigenvalues --   -0.36642  -0.31153  -0.31021  -0.28105  -0.22899
 Alpha  occ. eigenvalues --   -0.22448  -0.22426
 Alpha virt. eigenvalues --   -0.03215   0.00421   0.02745   0.04798   0.05114
 Alpha virt. eigenvalues --    0.06225   0.06828   0.07748   0.09014   0.09943
 Alpha virt. eigenvalues --    0.10268   0.10469   0.10877   0.12890   0.13621
 Alpha virt. eigenvalues --    0.14077   0.14294   0.16921   0.17302   0.20931
 Alpha virt. eigenvalues --    0.23219   0.24110   0.24992   0.25048   0.26278
 Alpha virt. eigenvalues --    0.27593   0.28815   0.29996   0.32571   0.34733
 Alpha virt. eigenvalues --    0.37227   0.41563   0.47661   0.61274   0.62962
 Alpha virt. eigenvalues --    0.64622   0.65832   0.68090   0.70054   0.72415
 Alpha virt. eigenvalues --    0.75008   0.77817   0.79392   0.80259   0.81440
 Alpha virt. eigenvalues --    0.82721   0.88759   0.94079   0.97658   0.98043
 Alpha virt. eigenvalues --    0.99253   0.99668   1.01297   1.01824   1.03149
 Alpha virt. eigenvalues --    1.04366   1.08268   1.15289   1.17785   1.27100
 Alpha virt. eigenvalues --    1.28325   1.31630   1.34271   1.38049   1.44689
 Alpha virt. eigenvalues --    1.52918   1.54279   1.56696   1.58149   1.58812
 Alpha virt. eigenvalues --    1.63297   1.67127   1.80704   1.82879   1.86153
 Alpha virt. eigenvalues --    1.90749   1.99287   2.00009   2.04618   2.14793
 Alpha virt. eigenvalues --    2.23759   2.26142   2.41570   2.54954   2.58874
 Alpha virt. eigenvalues --    2.63185   2.67971   2.71874   2.91026   3.09866
 Alpha virt. eigenvalues --    3.15120   4.08396   4.19080   4.27186   4.37618
 Alpha virt. eigenvalues --    4.41892   4.48013
          Condensed to atoms (all electrons):
               1          2          3          4          5          6
     1  C    5.462094   0.570996  -0.037854  -0.081807  -0.080211   0.014800
     2  O    0.570996   7.927315  -0.085095   0.007153   0.001403  -0.006095
     3  C   -0.037854  -0.085095   5.817993   0.404615   0.386906   0.333278
     4  H   -0.081807   0.007153   0.404615   0.428545  -0.019184  -0.023729
     5  H   -0.080211   0.001403   0.386906  -0.019184   0.445382  -0.022756
     6  H    0.014800  -0.006095   0.333278  -0.023729  -0.022756   0.456534
     7  Cl   0.227882  -0.069060  -0.116571  -0.003724  -0.005532   0.005360
     8  C   -0.471106  -0.097350  -0.061036   0.011636   0.026801  -0.024049
     9  N   -0.018190   0.000051  -0.004369   0.000136  -0.000111  -0.000638
               7          8          9
     1  C    0.227882  -0.471106  -0.018190
     2  O   -0.069060  -0.097350   0.000051
     3  C   -0.116571  -0.061036  -0.004369
     4  H   -0.003724   0.011636   0.000136
     5  H   -0.005532   0.026801  -0.000111
     6  H    0.005360  -0.024049  -0.000638
     7  Cl  17.820705  -0.081166  -0.012607
     8  C   -0.081166   6.026125   0.624066
     9  N   -0.012607   0.624066   7.029619
 Mulliken charges:
               1
     1  C    0.413396
     2  O   -0.249318
     3  C   -0.637867
     4  H    0.276358
     5  H    0.267301
     6  H    0.267295
     7  Cl  -0.765287
     8  C    0.046079
     9  N   -0.617957
 Sum of Mulliken charges =  -1.00000
 Mulliken charges with hydrogens summed into heavy atoms:
               1
     1  C    0.413396
     2  O   -0.249318
     3  C    0.173087
     7  Cl  -0.765287
     8  C    0.046079
     9  N   -0.617957
 Electronic spatial extent (au):  <R**2>=            861.2008
 Charge=             -1.0000 electrons
 Dipole moment (field-independent basis, Debye):
    X=              0.9521    Y=              7.9701    Z=             -2.6359  Tot=              8.4485
 Quadrupole moment (field-independent basis, Debye-Ang):
   XX=            -73.2683   YY=            -52.5020   ZZ=            -47.1348
   XY=              2.3185   XZ=              0.5694   YZ=             -4.8258
 Traceless Quadrupole moment (field-independent basis, Debye-Ang):
   XX=            -15.6333   YY=              5.1330   ZZ=             10.5002
   XY=              2.3185   XZ=              0.5694   YZ=             -4.8258
 Octapole moment (field-independent basis, Debye-Ang**2):
  XXX=            -21.5969  YYY=             29.8477  ZZZ=             -3.5628  XYY=             -6.7780
  XXY=             41.1452  XXZ=              3.1912  XZZ=             -0.0159  YZZ=              3.5607
  YYZ=             -4.6536  XYZ=             -1.3802
 Hexadecapole moment (field-independent basis, Debye-Ang**3):
 XXXX=           -844.7086 YYYY=           -399.4690 ZZZZ=           -185.9453 XXXY=             47.8296
 XXXZ=              7.2886 YYYX=             16.9942 YYYZ=             -9.2367 ZZZX=              0.8344
 ZZZY=             -4.0718 XXYY=           -219.7084 XXZZ=           -147.1339 YYZZ=            -98.6150
 XXYZ=             -4.3454 YYXZ=              1.5361 ZZXY=              0.4099
 N-N= 2.345227782701D+02 E-N=-2.147042013213D+03  KE= 7.024112983523D+02
 No NMR shielding tensors so no spin-rotation constants.
 Leave Link  601 at Wed Jan  8 01:35:57 2020, MaxMem=  4294967296 cpu:              16.2 elap:               1.3
 (Enter /home/cwagen/sw/g16/g16/l9999.exe)
 1\1\GINC-NODE062\FOpt\RB3LYP\6-31+G(d)\C3H3Cl1N1O1(1-)\CWAGEN\08-Jan-2
 020\0\\#p opt=modredundant b3lyp/6-31+g(d) scrf=(smd, solvent=tetrahyd
 rofuran)\\title\\-1,1\C,-0.0797658592,-0.5451659219,-0.3490757547\O,-0
 .3080292004,-0.5676789466,-1.5034309273\C,-0.3727700814,-1.447352136,0
 .7957444338\H,-0.1785530838,-0.9570606544,1.7469087646\H,-1.4169342808
 ,-1.7679142111,0.7330623997\H,0.2880893386,-2.3187792347,0.6855358929\
 Cl,-1.476476546,1.4382211833,0.5865389359\C,1.6491839103,0.3503891758,
 0.1077762653\N,2.6942832925,0.8442162456,0.2858700297\\Version=AS64L-G
 16RevA.03\State=1-A\HF=-706.4166123\RMSD=3.345e-09\RMSF=9.569e-03\Dipo
 le=-0.3650759,-3.301921,0.1114801\Quadrupole=-11.5791282,5.954588,5.62
 45402,2.0456462,0.2836597,-4.0589026\PG=C01 [X(C3H3Cl1N1O1)]\\@


 WHEN YOU REACH FOR THE STARS, YOU MAY NOT QUITE GET ONE,
 BUT YOU WON'T COME UP WITH A HANDFUL OF MUD, EITHER.

                                         -- LEO BURNETT (AD AGENCY HEAD)
 Job cpu time:       0 days  1 hours 35 minutes 34.7 seconds.
 Elapsed time:       0 days  0 hours  7 minutes 37.3 seconds.
 File lengths (MBytes):  RWF=     38 Int=      0 D2E=      0 Chk=      3 Scr=      1
 Normal termination of Gaussian 16 at Wed Jan  8 01:35:57 2020.
