 Entering Gaussian System, Link 0=g16
 Input=scan_200_140.gjf
 Output=scan_200_140.out
 Initial command:
 /home/cwagen/sw/g16/g16/l1.exe "/scratch/users/cwagen/cwagen_scan_200_140/Gau-21800.inp" -scrdir="/scratch/users/cwagen/cwagen_scan_200_140/"
 Entering Link 1 = /home/cwagen/sw/g16/g16/l1.exe PID=     21801.
  
 Copyright (c) 1988,1990,1992,1993,1995,1998,2003,2009,2016,
            Gaussian, Inc.  All Rights Reserved.
  
 This is part of the Gaussian(R) 16 program.  It is based on
 the Gaussian(R) 09 system (copyright 2009, Gaussian, Inc.),
 the Gaussian(R) 03 system (copyright 2003, Gaussian, Inc.),
 the Gaussian(R) 98 system (copyright 1998, Gaussian, Inc.),
 the Gaussian(R) 94 system (copyright 1995, Gaussian, Inc.),
 the Gaussian 92(TM) system (copyright 1992, Gaussian, Inc.),
 the Gaussian 90(TM) system (copyright 1990, Gaussian, Inc.),
 the Gaussian 88(TM) system (copyright 1988, Gaussian, Inc.),
 the Gaussian 86(TM) system (copyright 1986, Carnegie Mellon
 University), and the Gaussian 82(TM) system (copyright 1983,
 Carnegie Mellon University). Gaussian is a federally registered
 trademark of Gaussian, Inc.
  
 This software contains proprietary and confidential information,
 including trade secrets, belonging to Gaussian, Inc.
  
 This software is provided under written license and may be
 used, copied, transmitted, or stored only in accord with that
 written license.
  
 The following legend is applicable only to US Government
 contracts under FAR:
  
                    RESTRICTED RIGHTS LEGEND
  
 Use, reproduction and disclosure by the US Government is
 subject to restrictions as set forth in subparagraphs (a)
 and (c) of the Commercial Computer Software - Restricted
 Rights clause in FAR 52.227-19.
  
 Gaussian, Inc.
 340 Quinnipiac St., Bldg. 40, Wallingford CT 06492
  
  
 ---------------------------------------------------------------
 Warning -- This program may not be used in any manner that
 competes with the business of Gaussian, Inc. or will provide
 assistance to any competitor of Gaussian, Inc.  The licensee
 of this program is prohibited from giving any competitor of
 Gaussian, Inc. access to this program.  By using this program,
 the user acknowledges that Gaussian, Inc. is engaged in the
 business of creating and licensing software in the field of
 computational chemistry and represents and warrants to the
 licensee that it is not a competitor of Gaussian, Inc. and that
 it will not use this program in any manner prohibited above.
 ---------------------------------------------------------------
  

 Cite this work as:
 Gaussian 16, Revision A.03,
 M. J. Frisch, G. W. Trucks, H. B. Schlegel, G. E. Scuseria, 
 M. A. Robb, J. R. Cheeseman, G. Scalmani, V. Barone, 
 G. A. Petersson, H. Nakatsuji, X. Li, M. Caricato, A. V. Marenich, 
 J. Bloino, B. G. Janesko, R. Gomperts, B. Mennucci, H. P. Hratchian, 
 J. V. Ortiz, A. F. Izmaylov, J. L. Sonnenberg, D. Williams-Young, 
 F. Ding, F. Lipparini, F. Egidi, J. Goings, B. Peng, A. Petrone, 
 T. Henderson, D. Ranasinghe, V. G. Zakrzewski, J. Gao, N. Rega, 
 G. Zheng, W. Liang, M. Hada, M. Ehara, K. Toyota, R. Fukuda, 
 J. Hasegawa, M. Ishida, T. Nakajima, Y. Honda, O. Kitao, H. Nakai, 
 T. Vreven, K. Throssell, J. A. Montgomery, Jr., J. E. Peralta, 
 F. Ogliaro, M. J. Bearpark, J. J. Heyd, E. N. Brothers, K. N. Kudin, 
 V. N. Staroverov, T. A. Keith, R. Kobayashi, J. Normand, 
 K. Raghavachari, A. P. Rendell, J. C. Burant, S. S. Iyengar, 
 J. Tomasi, M. Cossi, J. M. Millam, M. Klene, C. Adamo, R. Cammi, 
 J. W. Ochterski, R. L. Martin, K. Morokuma, O. Farkas, 
 J. B. Foresman, and D. J. Fox, Gaussian, Inc., Wallingford CT, 2016.
 
 ******************************************
 Gaussian 16:  AS64L-G16RevA.03 25-Dec-2016
                 8-Jan-2020 
 ******************************************
 %nprocshared=16
 Will use up to   16 processors via shared memory.
 %mem=32GB
 ----------------------------------------------------------------------
 #p opt=modredundant b3lyp/6-31+g(d) scrf=(smd, solvent=tetrahydrofuran
 )
 ----------------------------------------------------------------------
 1/18=120,19=15,26=3,38=1/1,3;
 2/9=110,12=2,17=6,18=5,40=1/2;
 3/5=1,6=6,7=11,11=2,25=1,30=1,70=32201,71=1,72=20,74=-5/1,2,3;
 4//1;
 5/5=2,38=5,53=20/2;
 6/7=2,8=2,9=2,10=2,28=1/1;
 7//1,2,3,16;
 1/18=20,19=15,26=3/3(2);
 2/9=110/2;
 99//99;
 2/9=110/2;
 3/5=1,6=6,7=11,11=2,25=1,30=1,70=32205,71=1,72=20,74=-5/1,2,3;
 4/5=5,16=3,69=1/1;
 5/5=2,38=5,53=20/2;
 7//1,2,3,16;
 1/18=20,19=15,26=3/3(-5);
 2/9=110/2;
 6/7=2,8=2,9=2,10=2,19=2,28=1/1;
 99/9=1/99;
 Leave Link    1 at Wed Jan  8 00:11:39 2020, MaxMem=  4294967296 cpu:               1.4 elap:               0.1
 (Enter /home/cwagen/sw/g16/g16/l101.exe)
 -----
 title
 -----
 Symbolic Z-matrix:
 Charge = -1 Multiplicity = 1
 6                    -0.19426  -0.292    -0.21291 
 8                    -0.25532  -0.66526  -1.45426 
 6                    -0.33095  -1.45422   0.81632 
 1                    -0.18039  -1.13044   1.85373 
 1                    -1.34067  -1.87301   0.71427 
 1                     0.39707  -2.23395   0.57058 
 17                   -1.39174   1.2271    0.29539 
 6                     1.10371   0.16252   0.04918 
 7                     2.23828   0.44281   0.07948 
 
 The following ModRedundant input section has been read:
 B       1       7 F                                                           
 B       1       8 F                                                           
 
 ITRead=  0  0  0  0  0  0  0  0  0
 MicOpt= -1 -1 -1 -1 -1 -1 -1 -1 -1
 NAtoms=      9 NQM=        9 NQMF=       0 NMMI=      0 NMMIF=      0
                NMic=       0 NMicF=      0.
                    Isotopes and Nuclear Properties:
 (Nuclear quadrupole moments (NQMom) in fm**2, nuclear magnetic moments (NMagM)
  in nuclear magnetons)

  Atom         1           2           3           4           5           6           7           8           9
 IAtWgt=          12          16          12           1           1           1          35          12          14
 AtmWgt=  12.0000000  15.9949146  12.0000000   1.0078250   1.0078250   1.0078250  34.9688527  12.0000000  14.0030740
 NucSpn=           0           0           0           1           1           1           3           0           2
 AtZEff=   0.0000000   0.0000000   0.0000000   0.0000000   0.0000000   0.0000000   0.0000000   0.0000000   0.0000000
 NQMom=    0.0000000   0.0000000   0.0000000   0.0000000   0.0000000   0.0000000  -8.1650000   0.0000000   2.0440000
 NMagM=    0.0000000   0.0000000   0.0000000   2.7928460   2.7928460   2.7928460   0.8218740   0.0000000   0.4037610
 AtZNuc=   6.0000000   8.0000000   6.0000000   1.0000000   1.0000000   1.0000000  17.0000000   6.0000000   7.0000000
 Leave Link  101 at Wed Jan  8 00:11:40 2020, MaxMem=  4294967296 cpu:               8.1 elap:               0.6
 (Enter /home/cwagen/sw/g16/g16/l103.exe)

 GradGradGradGradGradGradGradGradGradGradGradGradGradGradGradGradGradGrad
 Berny optimization.
 Initialization pass.
                           ----------------------------
                           !    Initial Parameters    !
                           ! (Angstroms and Degrees)  !
 --------------------------                            --------------------------
 ! Name  Definition              Value          Derivative Info.                !
 --------------------------------------------------------------------------------
 ! R1    R(1,2)                  1.2977         estimate D2E/DX2                !
 ! R2    R(1,3)                  1.5584         estimate D2E/DX2                !
 ! R3    R(1,7)                  2.0            Frozen                          !
 ! R4    R(1,8)                  1.4            Frozen                          !
 ! R5    R(3,4)                  1.0971         estimate D2E/DX2                !
 ! R6    R(3,5)                  1.0979         estimate D2E/DX2                !
 ! R7    R(3,6)                  1.0947         estimate D2E/DX2                !
 ! R8    R(8,9)                  1.1691         estimate D2E/DX2                !
 ! A1    A(2,1,3)              114.4006         estimate D2E/DX2                !
 ! A2    A(2,1,7)              115.6846         estimate D2E/DX2                !
 ! A3    A(2,1,8)              108.426          estimate D2E/DX2                !
 ! A4    A(3,1,7)              110.248          estimate D2E/DX2                !
 ! A5    A(3,1,8)              101.5248         estimate D2E/DX2                !
 ! A6    A(7,1,8)              105.1256         estimate D2E/DX2                !
 ! A7    A(1,3,4)              113.1005         estimate D2E/DX2                !
 ! A8    A(1,3,5)              107.683          estimate D2E/DX2                !
 ! A9    A(1,3,6)              108.9421         estimate D2E/DX2                !
 ! A10   A(4,3,5)              109.0662         estimate D2E/DX2                !
 ! A11   A(4,3,6)              109.3417         estimate D2E/DX2                !
 ! A12   A(5,3,6)              108.6067         estimate D2E/DX2                !
 ! A13   L(1,8,9,6,-1)         177.6911         estimate D2E/DX2                !
 ! A14   L(1,8,9,6,-2)         167.8199         estimate D2E/DX2                !
 ! D1    D(2,1,3,4)            174.4714         estimate D2E/DX2                !
 ! D2    D(2,1,3,5)            -64.9488         estimate D2E/DX2                !
 ! D3    D(2,1,3,6)             52.6633         estimate D2E/DX2                !
 ! D4    D(7,1,3,4)            -53.1046         estimate D2E/DX2                !
 ! D5    D(7,1,3,5)             67.4752         estimate D2E/DX2                !
 ! D6    D(7,1,3,6)           -174.9127         estimate D2E/DX2                !
 ! D7    D(8,1,3,4)             57.938          estimate D2E/DX2                !
 ! D8    D(8,1,3,5)            178.5177         estimate D2E/DX2                !
 ! D9    D(8,1,3,6)            -63.8702         estimate D2E/DX2                !
 --------------------------------------------------------------------------------
 Trust Radius=3.00D-01 FncErr=1.00D-07 GrdErr=1.00D-06 EigMax=2.50D+02 EigMin=1.00D-04
 Number of steps in this run=     41 maximum allowed number of steps=    100.
 GradGradGradGradGradGradGradGradGradGradGradGradGradGradGradGradGradGrad

 Leave Link  103 at Wed Jan  8 00:11:40 2020, MaxMem=  4294967296 cpu:               1.0 elap:               0.3
 (Enter /home/cwagen/sw/g16/g16/l202.exe)
                          Input orientation:                          
 ---------------------------------------------------------------------
 Center     Atomic      Atomic             Coordinates (Angstroms)
 Number     Number       Type             X           Y           Z
 ---------------------------------------------------------------------
      1          6           0       -0.194263   -0.291999   -0.212908
      2          8           0       -0.255321   -0.665256   -1.454255
      3          6           0       -0.330945   -1.454221    0.816316
      4          1           0       -0.180394   -1.130438    1.853734
      5          1           0       -1.340665   -1.873010    0.714272
      6          1           0        0.397068   -2.233949    0.570583
      7         17           0       -1.391741    1.227104    0.295394
      8          6           0        1.103708    0.162516    0.049178
      9          7           0        2.238279    0.442814    0.079481
 ---------------------------------------------------------------------
                    Distance matrix (angstroms):
                    1          2          3          4          5
     1  C    0.000000
     2  O    1.297687   0.000000
     3  C    1.558443   2.404928   0.000000
     4  H    2.230287   3.341377   1.097150   0.000000
     5  H    2.161827   2.709087   1.097876   1.787740   0.000000
     6  H    2.175937   2.643176   1.094698   1.788205   1.780629
     7  Cl   2.000000   2.816691   2.930214   3.074702   3.128702
     8  C    1.400000   2.189172   2.293593   2.564580   3.249719
     9  N    2.557870   3.130208   3.277587   3.387192   4.309853
                    6          7          8          9
     6  H    0.000000
     7  Cl   3.905695   0.000000
     8  C    2.552302   2.724195   0.000000
     9  N    3.285772   3.720050   1.169075   0.000000
 Stoichiometry    C3H3ClNO(1-)
 Framework group  C1[X(C3H3ClNO)]
 Deg. of freedom    21
 Full point group                 C1      NOp   1
 Largest Abelian subgroup         C1      NOp   1
 Largest concise Abelian subgroup C1      NOp   1
                         Standard orientation:                         
 ---------------------------------------------------------------------
 Center     Atomic      Atomic             Coordinates (Angstroms)
 Number     Number       Type             X           Y           Z
 ---------------------------------------------------------------------
      1          6           0        0.129119    0.357448    0.212886
      2          8           0        0.345420    0.748684    1.431139
      3          6           0        0.391907    1.447371   -0.869590
      4          1           0        0.296258    1.067941   -1.894588
      5          1           0       -0.337996    2.252928   -0.715799
      6          1           0        1.397627    1.855258   -0.726344
      7         17           0       -1.633219   -0.530436   -0.112426
      8          6           0        1.089950   -0.604820   -0.120047
      9          7           0        1.997088   -1.335455   -0.220091
 ---------------------------------------------------------------------
 Rotational constants (GHZ):           3.8153045           2.3294513           1.9862246
 Leave Link  202 at Wed Jan  8 00:11:41 2020, MaxMem=  4294967296 cpu:               2.1 elap:               0.2
 (Enter /home/cwagen/sw/g16/g16/l301.exe)
 Standard basis: 6-31+G(d) (6D, 7F)
 Ernie: Thresh=  0.10000D-02 Tol=  0.10000D-05 Strict=F.
 There are   124 symmetry adapted cartesian basis functions of A   symmetry.
 There are   124 symmetry adapted basis functions of A   symmetry.
   124 basis functions,   228 primitive gaussians,   124 cartesian basis functions
    27 alpha electrons       27 beta electrons
       nuclear repulsion energy       260.5265709838 Hartrees.
 IExCor=  402 DFT=T Ex+Corr=B3LYP ExCW=0 ScaHFX=  0.200000
 ScaDFX=  0.800000  0.720000  1.000000  0.810000 ScalE2=  1.000000  1.000000
 IRadAn=      5 IRanWt=     -1 IRanGd=            0 ICorTp=0 IEmpDi=  4
 NAtoms=    9 NActive=    9 NUniq=    9 SFac= 1.00D+00 NAtFMM=   60 NAOKFM=F Big=F
 Integral buffers will be    131072 words long.
 Raffenetti 2 integral format.
 Two-electron integral symmetry is turned on.
 ------------------------------------------------------------------------------
 Polarizable Continuum Model (PCM)
 =================================
 Model                : PCM.
 Atomic radii         : SMD-Coulomb.
 Polarization charges : Total charges.
 Charge compensation  : None.
 Solution method      : On-the-fly selection.
 Cavity type          : VdW (van der Waals Surface) (Alpha=1.000).
 Cavity algorithm     : GePol (No added spheres)
                        Default sphere list used, NSphG=    9.
                        Lebedev-Laikov grids with approx.  5.0 points / Ang**2.
                        Smoothing algorithm: York/Karplus (Gamma=1.0000).
                        Polarization charges: spherical gaussians, with
                                              point-specific exponents (IZeta= 3).
                        Self-potential: point-specific (ISelfS= 7).
                        Self-field    : sphere-specific E.n sum rule (ISelfD= 2).
 1st derivatives      : Analytical E(r).r(x)/FMM algorithm (CHGder, D1EAlg=3).
                        Cavity 1st derivative terms included.
 Solvent              : TetraHydroFuran, Eps=   7.425700 Eps(inf)=   1.974025
 ------------------------------------------------------------------------------
 Spheres list:
 ISph  on   Nord     Re0    Alpha      Xe            Ye            Ze
    1   C      1    1.8500  1.000      0.129119      0.357448      0.212886
    2   O      2    2.2940  1.000      0.345420      0.748684      1.431139
    3   C      3    1.8500  1.000      0.391907      1.447371     -0.869590
    4   H      4    1.2000  1.000      0.296258      1.067941     -1.894588
    5   H      5    1.2000  1.000     -0.337996      2.252928     -0.715799
    6   H      6    1.2000  1.000      1.397627      1.855258     -0.726344
    7  Cl      7    2.3800  1.000     -1.633219     -0.530436     -0.112426
    8   C      8    1.8500  1.000      1.089950     -0.604820     -0.120047
    9   N      9    1.8900  1.000      1.997088     -1.335455     -0.220091
 ------------------------------------------------------------------------------
 GePol: Number of generator spheres                  =       9
 GePol: Total number of spheres                      =       9
 GePol: Number of exposed spheres                    =       9 (100.00%)
 GePol: Number of points                             =    1118
 GePol: Average weight of points                     =       0.14
 GePol: Minimum weight of points                     =   0.39D-07
 GePol: Maximum weight of points                     =    0.18138
 GePol: Number of points with low weight             =      34
 GePol: Fraction of low-weight points (<1% of avg)   =       3.04%
 GePol: Cavity surface area                          =    152.099 Ang**2
 GePol: Cavity volume                                =    140.359 Ang**3
 ------------------------------------------------------------------------------
 Atomic radii for non-electrostatic terms: SMD-CDS.
 ------------------------------------------------------------------------------
 PCM non-electrostatic energy =        -0.0010799809 Hartrees.
 Nuclear repulsion after PCM non-electrostatic terms =      260.5254910028 Hartrees.
 Leave Link  301 at Wed Jan  8 00:11:41 2020, MaxMem=  4294967296 cpu:               2.6 elap:               0.2
 (Enter /home/cwagen/sw/g16/g16/l302.exe)
 NPDir=0 NMtPBC=     1 NCelOv=     1 NCel=       1 NClECP=     1 NCelD=      1
         NCelK=      1 NCelE2=     1 NClLst=     1 CellRange=     0.0.
 One-electron integrals computed using PRISM.
 One-electron integral symmetry used in STVInt
 NBasis=   124 RedAO= T EigKep=  2.48D-05  NBF=   124
 NBsUse=   124 1.00D-06 EigRej= -1.00D+00 NBFU=   124
 Precomputing XC quadrature grid using
 IXCGrd= 4 IRadAn=           5 IRanWt=          -1 IRanGd=           0 AccXCQ= 0.00D+00.
 Generated NRdTot=       0 NPtTot=           0 NUsed=           0 NTot=          32
 NSgBfM=   124   124   124   124   124 MxSgAt=     9 MxSgA2=     9.
 Leave Link  302 at Wed Jan  8 00:11:43 2020, MaxMem=  4294967296 cpu:              24.4 elap:               1.8
 (Enter /home/cwagen/sw/g16/g16/l303.exe)
 DipDrv:  MaxL=1.
 Leave Link  303 at Wed Jan  8 00:11:43 2020, MaxMem=  4294967296 cpu:               4.1 elap:               0.6
 (Enter /home/cwagen/sw/g16/g16/l401.exe)
 ExpMin= 4.38D-02 ExpMax= 2.52D+04 ExpMxC= 3.78D+03 IAcc=3 IRadAn=         5 AccDes= 0.00D+00
 Harris functional with IExCor=  402 and IRadAn=       5 diagonalized for initial guess.
 HarFok:  IExCor=  402 AccDes= 0.00D+00 IRadAn=         5 IDoV= 1 UseB2=F ITyADJ=14
 ICtDFT=  3500011 ScaDFX=  1.000000  1.000000  1.000000  1.000000
 FoFCou: FMM=F IPFlag=           0 FMFlag=      100000 FMFlg1=           0
         NFxFlg=           0 DoJE=T BraDBF=F KetDBF=T FulRan=T
         wScrn=  0.000000 ICntrl=       500 IOpCl=  0 I1Cent=   200000004 NGrid=           0
         NMat0=    1 NMatS0=      1 NMatT0=    0 NMatD0=    1 NMtDS0=    0 NMtDT0=    0
 Petite list used in FoFCou.
 Harris En= -706.420486061407    
 JPrj=0 DoOrth=F DoCkMO=F.
 Leave Link  401 at Wed Jan  8 00:11:45 2020, MaxMem=  4294967296 cpu:              24.3 elap:               1.8
 (Enter /home/cwagen/sw/g16/g16/l502.exe)
 Keep R1 ints in memory in canonical form, NReq=45236517.
 FoFCou: FMM=F IPFlag=           0 FMFlag=           0 FMFlg1=           0
         NFxFlg=           0 DoJE=F BraDBF=F KetDBF=F FulRan=T
         wScrn=  0.000000 ICntrl=       600 IOpCl=  0 I1Cent=           0 NGrid=           0
         NMat0=    1 NMatS0=   7750 NMatT0=    0 NMatD0=    1 NMtDS0=    0 NMtDT0=    0
 Symmetry not used in FoFCou.
 Two-electron integral symmetry not used.
 Closed shell SCF:
 Using DIIS extrapolation, IDIIS=  1040.
 NGot=  4294967296 LenX=  4264898079 LenY=  4264882262
 Requested convergence on RMS density matrix=1.00D-08 within 128 cycles.
 Requested convergence on MAX density matrix=1.00D-06.
 Requested convergence on             energy=1.00D-06.
 No special actions if energy rises.

 Cycle   1  Pass 1  IDiag  1:
 Inv3:  Mode=1 IEnd=     3749772.
 Iteration    1 A*A^-1 deviation from unit magnitude is 3.89D-15 for   1105.
 Iteration    1 A*A^-1 deviation from orthogonality  is 1.77D-15 for   1117    898.
 Iteration    1 A^-1*A deviation from unit magnitude is 4.11D-15 for   1105.
 Iteration    1 A^-1*A deviation from orthogonality  is 1.63D-15 for   1117    898.
 E= -706.188127025585    
 DIIS: error= 2.77D-02 at cycle   1 NSaved=   1.
 NSaved= 1 IEnMin= 1 EnMin= -706.188127025585     IErMin= 1 ErrMin= 2.77D-02
 ErrMax= 2.77D-02  0.00D+00 EMaxC= 1.00D-01 BMatC= 2.44D-01 BMatP= 2.44D-01
 IDIUse=3 WtCom= 7.23D-01 WtEn= 2.77D-01
 Coeff-Com:  0.100D+01
 Coeff-En:   0.100D+01
 Coeff:      0.100D+01
 Gap=     0.349 Goal=   None    Shift=    0.000
 GapD=    0.349 DampG=1.000 DampE=0.500 DampFc=0.5000 IDamp=-1.
 Damping current iteration by 5.00D-01
 RMSDP=3.41D-01 MaxDP=1.93D+01              OVMax= 5.94D-01

 Cycle   2  Pass 1  IDiag  1:
 E= -706.104871740278     Delta-E=        0.083255285306 Rises=F Damp=T
 DIIS: error= 1.94D-02 at cycle   2 NSaved=   2.
 NSaved= 2 IEnMin= 1 EnMin= -706.188127025585     IErMin= 2 ErrMin= 1.94D-02
 ErrMax= 1.94D-02  0.00D+00 EMaxC= 1.00D-01 BMatC= 1.24D-01 BMatP= 2.44D-01
 IDIUse=3 WtCom= 8.06D-01 WtEn= 1.94D-01
 Coeff-Com:  0.398D+00 0.602D+00
 Coeff-En:   0.604D+00 0.396D+00
 Coeff:      0.438D+00 0.562D+00
 Gap=     0.210 Goal=   None    Shift=    0.000
 RMSDP=1.65D-01 MaxDP=9.40D+00 DE= 8.33D-02 OVMax= 4.64D-01

 Cycle   3  Pass 1  IDiag  1:
 E= -706.364173765967     Delta-E=       -0.259302025689 Rises=F Damp=F
 DIIS: error= 1.13D-02 at cycle   3 NSaved=   3.
 NSaved= 3 IEnMin= 3 EnMin= -706.364173765967     IErMin= 3 ErrMin= 1.13D-02
 ErrMax= 1.13D-02  0.00D+00 EMaxC= 1.00D-01 BMatC= 5.08D-02 BMatP= 1.24D-01
 IDIUse=3 WtCom= 8.87D-01 WtEn= 1.13D-01
 Coeff-Com:  0.172D+00 0.379D+00 0.449D+00
 Coeff-En:   0.000D+00 0.000D+00 0.100D+01
 Coeff:      0.153D+00 0.336D+00 0.511D+00
 Gap=     0.205 Goal=   None    Shift=    0.000
 RMSDP=4.57D-03 MaxDP=1.72D-01 DE=-2.59D-01 OVMax= 6.75D-02

 Cycle   4  Pass 1  IDiag  1:
 E= -706.406612936843     Delta-E=       -0.042439170876 Rises=F Damp=F
 DIIS: error= 4.35D-03 at cycle   4 NSaved=   4.
 NSaved= 4 IEnMin= 4 EnMin= -706.406612936843     IErMin= 4 ErrMin= 4.35D-03
 ErrMax= 4.35D-03  0.00D+00 EMaxC= 1.00D-01 BMatC= 5.78D-03 BMatP= 5.08D-02
 IDIUse=3 WtCom= 9.56D-01 WtEn= 4.35D-02
 Coeff-Com:  0.162D-01 0.120D+00 0.264D+00 0.600D+00
 Coeff-En:   0.000D+00 0.000D+00 0.345D-01 0.965D+00
 Coeff:      0.155D-01 0.114D+00 0.254D+00 0.616D+00
 Gap=     0.199 Goal=   None    Shift=    0.000
 RMSDP=1.40D-03 MaxDP=4.86D-02 DE=-4.24D-02 OVMax= 3.25D-02

 Cycle   5  Pass 1  IDiag  1:
 E= -706.409154309725     Delta-E=       -0.002541372881 Rises=F Damp=F
 DIIS: error= 2.97D-03 at cycle   5 NSaved=   5.
 NSaved= 5 IEnMin= 5 EnMin= -706.409154309725     IErMin= 5 ErrMin= 2.97D-03
 ErrMax= 2.97D-03  0.00D+00 EMaxC= 1.00D-01 BMatC= 2.84D-03 BMatP= 5.78D-03
 IDIUse=3 WtCom= 9.70D-01 WtEn= 2.97D-02
 Coeff-Com: -0.147D-01 0.357D-01 0.113D+00 0.462D+00 0.403D+00
 Coeff-En:   0.000D+00 0.000D+00 0.000D+00 0.351D+00 0.649D+00
 Coeff:     -0.143D-01 0.346D-01 0.110D+00 0.459D+00 0.410D+00
 Gap=     0.196 Goal=   None    Shift=    0.000
 RMSDP=8.25D-04 MaxDP=3.29D-02 DE=-2.54D-03 OVMax= 1.76D-02

 Cycle   6  Pass 1  IDiag  1:
 E= -706.411612405380     Delta-E=       -0.002458095655 Rises=F Damp=F
 DIIS: error= 4.98D-04 at cycle   6 NSaved=   6.
 NSaved= 6 IEnMin= 6 EnMin= -706.411612405380     IErMin= 6 ErrMin= 4.98D-04
 ErrMax= 4.98D-04  0.00D+00 EMaxC= 1.00D-01 BMatC= 8.90D-05 BMatP= 2.84D-03
 IDIUse=3 WtCom= 9.95D-01 WtEn= 4.98D-03
 Coeff-Com: -0.890D-02 0.866D-02 0.294D-01 0.172D+00 0.219D+00 0.580D+00
 Coeff-En:   0.000D+00 0.000D+00 0.000D+00 0.000D+00 0.000D+00 0.100D+01
 Coeff:     -0.886D-02 0.861D-02 0.292D-01 0.171D+00 0.218D+00 0.582D+00
 Gap=     0.197 Goal=   None    Shift=    0.000
 RMSDP=3.85D-04 MaxDP=1.71D-02 DE=-2.46D-03 OVMax= 2.26D-03

 Cycle   7  Pass 1  IDiag  1:
 E= -706.411691221254     Delta-E=       -0.000078815874 Rises=F Damp=F
 DIIS: error= 1.25D-04 at cycle   7 NSaved=   7.
 NSaved= 7 IEnMin= 7 EnMin= -706.411691221254     IErMin= 7 ErrMin= 1.25D-04
 ErrMax= 1.25D-04  0.00D+00 EMaxC= 1.00D-01 BMatC= 4.51D-06 BMatP= 8.90D-05
 IDIUse=3 WtCom= 9.99D-01 WtEn= 1.25D-03
 Coeff-Com: -0.232D-02 0.967D-03 0.730D-03 0.237D-01 0.527D-01 0.239D+00
 Coeff-Com:  0.686D+00
 Coeff-En:   0.000D+00 0.000D+00 0.000D+00 0.000D+00 0.000D+00 0.000D+00
 Coeff-En:   0.100D+01
 Coeff:     -0.232D-02 0.965D-03 0.729D-03 0.237D-01 0.527D-01 0.238D+00
 Coeff:      0.686D+00
 Gap=     0.197 Goal=   None    Shift=    0.000
 RMSDP=6.00D-05 MaxDP=2.33D-03 DE=-7.88D-05 OVMax= 8.40D-04

 Cycle   8  Pass 1  IDiag  1:
 E= -706.411695913327     Delta-E=       -0.000004692073 Rises=F Damp=F
 DIIS: error= 3.32D-05 at cycle   8 NSaved=   8.
 NSaved= 8 IEnMin= 8 EnMin= -706.411695913327     IErMin= 8 ErrMin= 3.32D-05
 ErrMax= 3.32D-05  0.00D+00 EMaxC= 1.00D-01 BMatC= 3.37D-07 BMatP= 4.51D-06
 IDIUse=1 WtCom= 1.00D+00 WtEn= 0.00D+00
 Coeff-Com: -0.491D-03-0.111D-03-0.148D-02 0.200D-03 0.109D-01 0.692D-01
 Coeff-Com:  0.307D+00 0.615D+00
 Coeff:     -0.491D-03-0.111D-03-0.148D-02 0.200D-03 0.109D-01 0.692D-01
 Coeff:      0.307D+00 0.615D+00
 Gap=     0.197 Goal=   None    Shift=    0.000
 RMSDP=3.53D-05 MaxDP=1.63D-03 DE=-4.69D-06 OVMax= 1.74D-04

 Cycle   9  Pass 1  IDiag  1:
 E= -706.411696234749     Delta-E=       -0.000000321422 Rises=F Damp=F
 DIIS: error= 1.02D-05 at cycle   9 NSaved=   9.
 NSaved= 9 IEnMin= 9 EnMin= -706.411696234749     IErMin= 9 ErrMin= 1.02D-05
 ErrMax= 1.02D-05  0.00D+00 EMaxC= 1.00D-01 BMatC= 3.01D-08 BMatP= 3.37D-07
 IDIUse=1 WtCom= 1.00D+00 WtEn= 0.00D+00
 Coeff-Com:  0.277D-04-0.135D-03-0.645D-03-0.196D-02-0.709D-03 0.357D-02
 Coeff-Com:  0.573D-01 0.275D+00 0.668D+00
 Coeff:      0.277D-04-0.135D-03-0.645D-03-0.196D-02-0.709D-03 0.357D-02
 Coeff:      0.573D-01 0.275D+00 0.668D+00
 Gap=     0.197 Goal=   None    Shift=    0.000
 RMSDP=6.31D-06 MaxDP=2.44D-04 DE=-3.21D-07 OVMax= 4.34D-05

 Cycle  10  Pass 1  IDiag  1:
 E= -706.411696267136     Delta-E=       -0.000000032387 Rises=F Damp=F
 DIIS: error= 1.28D-06 at cycle  10 NSaved=  10.
 NSaved=10 IEnMin=10 EnMin= -706.411696267136     IErMin=10 ErrMin= 1.28D-06
 ErrMax= 1.28D-06  0.00D+00 EMaxC= 1.00D-01 BMatC= 4.22D-10 BMatP= 3.01D-08
 IDIUse=1 WtCom= 1.00D+00 WtEn= 0.00D+00
 Coeff-Com:  0.251D-04-0.272D-04-0.466D-04-0.286D-03-0.691D-03-0.256D-02
 Coeff-Com: -0.496D-02 0.216D-01 0.120D+00 0.867D+00
 Coeff:      0.251D-04-0.272D-04-0.466D-04-0.286D-03-0.691D-03-0.256D-02
 Coeff:     -0.496D-02 0.216D-01 0.120D+00 0.867D+00
 Gap=     0.197 Goal=   None    Shift=    0.000
 RMSDP=2.55D-06 MaxDP=1.00D-04 DE=-3.24D-08 OVMax= 1.01D-05

 Cycle  11  Pass 1  IDiag  1:
 E= -706.411696267662     Delta-E=       -0.000000000526 Rises=F Damp=F
 DIIS: error= 3.52D-07 at cycle  11 NSaved=  11.
 NSaved=11 IEnMin=11 EnMin= -706.411696267662     IErMin=11 ErrMin= 3.52D-07
 ErrMax= 3.52D-07  0.00D+00 EMaxC= 1.00D-01 BMatC= 3.72D-11 BMatP= 4.22D-10
 IDIUse=1 WtCom= 1.00D+00 WtEn= 0.00D+00
 Coeff-Com:  0.717D-05-0.454D-05 0.181D-04 0.244D-05-0.175D-03-0.857D-03
 Coeff-Com: -0.381D-02-0.374D-02 0.104D-01 0.267D+00 0.732D+00
 Coeff:      0.717D-05-0.454D-05 0.181D-04 0.244D-05-0.175D-03-0.857D-03
 Coeff:     -0.381D-02-0.374D-02 0.104D-01 0.267D+00 0.732D+00
 Gap=     0.197 Goal=   None    Shift=    0.000
 RMSDP=2.61D-07 MaxDP=9.64D-06 DE=-5.26D-10 OVMax= 2.09D-06

 Cycle  12  Pass 1  IDiag  1:
 E= -706.411696267698     Delta-E=       -0.000000000035 Rises=F Damp=F
 DIIS: error= 1.07D-07 at cycle  12 NSaved=  12.
 NSaved=12 IEnMin=12 EnMin= -706.411696267698     IErMin=12 ErrMin= 1.07D-07
 ErrMax= 1.07D-07  0.00D+00 EMaxC= 1.00D-01 BMatC= 5.60D-12 BMatP= 3.72D-11
 IDIUse=1 WtCom= 1.00D+00 WtEn= 0.00D+00
 Coeff-Com:  0.140D-05-0.755D-06 0.130D-04 0.229D-04-0.167D-04-0.170D-03
 Coeff-Com: -0.121D-02-0.305D-02-0.428D-02 0.489D-01 0.302D+00 0.658D+00
 Coeff:      0.140D-05-0.755D-06 0.130D-04 0.229D-04-0.167D-04-0.170D-03
 Coeff:     -0.121D-02-0.305D-02-0.428D-02 0.489D-01 0.302D+00 0.658D+00
 Gap=     0.197 Goal=   None    Shift=    0.000
 RMSDP=8.44D-08 MaxDP=4.00D-06 DE=-3.55D-11 OVMax= 7.71D-07

 Cycle  13  Pass 1  IDiag  1:
 E= -706.411696267707     Delta-E=       -0.000000000010 Rises=F Damp=F
 DIIS: error= 3.94D-08 at cycle  13 NSaved=  13.
 NSaved=13 IEnMin=13 EnMin= -706.411696267707     IErMin=13 ErrMin= 3.94D-08
 ErrMax= 3.94D-08  0.00D+00 EMaxC= 1.00D-01 BMatC= 5.90D-13 BMatP= 5.60D-12
 IDIUse=1 WtCom= 1.00D+00 WtEn= 0.00D+00
 Coeff-Com:  0.171D-06-0.339D-06 0.326D-05 0.594D-05 0.115D-04 0.190D-04
 Coeff-Com: -0.157D-04-0.617D-03-0.214D-02-0.823D-02 0.255D-01 0.196D+00
 Coeff-Com:  0.789D+00
 Coeff:      0.171D-06-0.339D-06 0.326D-05 0.594D-05 0.115D-04 0.190D-04
 Coeff:     -0.157D-04-0.617D-03-0.214D-02-0.823D-02 0.255D-01 0.196D+00
 Coeff:      0.789D+00
 Gap=     0.197 Goal=   None    Shift=    0.000
 RMSDP=1.76D-08 MaxDP=5.25D-07 DE=-9.66D-12 OVMax= 2.77D-07

 Cycle  14  Pass 1  IDiag  1:
 E= -706.411696267705     Delta-E=        0.000000000002 Rises=F Damp=F
 DIIS: error= 1.16D-08 at cycle  14 NSaved=  14.
 NSaved=14 IEnMin=13 EnMin= -706.411696267707     IErMin=14 ErrMin= 1.16D-08
 ErrMax= 1.16D-08  0.00D+00 EMaxC= 1.00D-01 BMatC= 2.74D-14 BMatP= 5.90D-13
 IDIUse=1 WtCom= 1.00D+00 WtEn= 0.00D+00
 Coeff-Com:  0.365D-07-0.130D-06 0.721D-06 0.148D-05 0.519D-05 0.142D-04
 Coeff-Com:  0.459D-04-0.650D-04-0.485D-03-0.454D-02-0.551D-02 0.260D-01
 Coeff-Com:  0.215D+00 0.769D+00
 Coeff:      0.365D-07-0.130D-06 0.721D-06 0.148D-05 0.519D-05 0.142D-04
 Coeff:      0.459D-04-0.650D-04-0.485D-03-0.454D-02-0.551D-02 0.260D-01
 Coeff:      0.215D+00 0.769D+00
 Gap=     0.197 Goal=   None    Shift=    0.000
 RMSDP=5.47D-09 MaxDP=2.98D-07 DE= 2.27D-12 OVMax= 6.63D-08

 Error on total polarization charges =  0.02219
 SCF Done:  E(RB3LYP) =  -706.411696268     A.U. after   14 cycles
            NFock= 14  Conv=0.55D-08     -V/T= 2.0051
 KE= 7.028225281531D+02 PE=-2.199793847340D+03 EE= 5.300341319159D+02
 SMD-CDS (non-electrostatic) energy       (kcal/mol) =      -0.68
 (included in total energy above)
 Leave Link  502 at Wed Jan  8 00:12:22 2020, MaxMem=  4294967296 cpu:             507.0 elap:              37.5
 (Enter /home/cwagen/sw/g16/g16/l601.exe)
 Copying SCF densities to generalized density rwf, IOpCl= 0 IROHF=0.

 **********************************************************************

            Population analysis using the SCF density.

 **********************************************************************

 Orbital symmetries:
       Occupied  (A) (A) (A) (A) (A) (A) (A) (A) (A) (A) (A) (A)
                 (A) (A) (A) (A) (A) (A) (A) (A) (A) (A) (A) (A)
                 (A) (A) (A)
       Virtual   (A) (A) (A) (A) (A) (A) (A) (A) (A) (A) (A) (A)
                 (A) (A) (A) (A) (A) (A) (A) (A) (A) (A) (A) (A)
                 (A) (A) (A) (A) (A) (A) (A) (A) (A) (A) (A) (A)
                 (A) (A) (A) (A) (A) (A) (A) (A) (A) (A) (A) (A)
                 (A) (A) (A) (A) (A) (A) (A) (A) (A) (A) (A) (A)
                 (A) (A) (A) (A) (A) (A) (A) (A) (A) (A) (A) (A)
                 (A) (A) (A) (A) (A) (A) (A) (A) (A) (A) (A) (A)
                 (A) (A) (A) (A) (A) (A) (A) (A) (A) (A) (A) (A)
                 (A)
 The electronic state is 1-A.
 Alpha  occ. eigenvalues -- -101.48476 -19.07082 -14.31862 -10.27316 -10.21006
 Alpha  occ. eigenvalues --  -10.16248  -9.40075  -7.16260  -7.15611  -7.15594
 Alpha  occ. eigenvalues --   -0.96848  -0.88237  -0.77123  -0.71475  -0.62313
 Alpha  occ. eigenvalues --   -0.45316  -0.42555  -0.40295  -0.36965  -0.35883
 Alpha  occ. eigenvalues --   -0.35348  -0.31497  -0.30625  -0.27022  -0.26651
 Alpha  occ. eigenvalues --   -0.22104  -0.20310
 Alpha virt. eigenvalues --   -0.00603   0.02689   0.04621   0.04861   0.05667
 Alpha virt. eigenvalues --    0.07134   0.07572   0.09639   0.09943   0.10059
 Alpha virt. eigenvalues --    0.10364   0.11501   0.12920   0.13795   0.14548
 Alpha virt. eigenvalues --    0.14782   0.16824   0.17686   0.20752   0.22311
 Alpha virt. eigenvalues --    0.24911   0.25506   0.26353   0.26838   0.27899
 Alpha virt. eigenvalues --    0.28580   0.30604   0.33314   0.35542   0.36604
 Alpha virt. eigenvalues --    0.38784   0.39718   0.45403   0.57303   0.59646
 Alpha virt. eigenvalues --    0.66259   0.67156   0.67999   0.69435   0.70725
 Alpha virt. eigenvalues --    0.74314   0.75197   0.80367   0.81526   0.83217
 Alpha virt. eigenvalues --    0.86096   0.89899   0.93912   0.95001   0.96641
 Alpha virt. eigenvalues --    0.99869   1.02192   1.05321   1.06591   1.08395
 Alpha virt. eigenvalues --    1.10082   1.11852   1.16634   1.18893   1.25705
 Alpha virt. eigenvalues --    1.32525   1.34155   1.36645   1.46885   1.49366
 Alpha virt. eigenvalues --    1.55168   1.56518   1.61057   1.72613   1.75828
 Alpha virt. eigenvalues --    1.78901   1.86198   1.89131   1.93261   1.96178
 Alpha virt. eigenvalues --    1.97572   2.03581   2.10063   2.13314   2.19487
 Alpha virt. eigenvalues --    2.26725   2.32369   2.35199   2.47362   2.52925
 Alpha virt. eigenvalues --    2.74546   2.86822   2.89325   2.97055   3.11058
 Alpha virt. eigenvalues --    3.32522   4.15152   4.24344   4.38235   4.38958
 Alpha virt. eigenvalues --    4.43193   4.80472
          Condensed to atoms (all electrons):
               1          2          3          4          5          6
     1  C    7.741180   0.628494   0.335841  -0.120338  -0.101349  -0.024124
     2  O    0.628494   8.498770  -0.208470   0.010949   0.001684  -0.008932
     3  C    0.335841  -0.208470   5.804431   0.358688   0.394936   0.385741
     4  H   -0.120338   0.010949   0.358688   0.505504  -0.023992  -0.031175
     5  H   -0.101349   0.001684   0.394936  -0.023992   0.485411  -0.023136
     6  H   -0.024124  -0.008932   0.385741  -0.031175  -0.023136   0.482333
     7  Cl  -0.338404  -0.105941  -0.169291   0.015816   0.002842   0.004988
     8  C   -2.253399  -0.202900  -0.204930   0.065364   0.040725  -0.018078
     9  N   -0.097964  -0.039274  -0.003565  -0.001449   0.000444  -0.001269
               7          8          9
     1  C   -0.338404  -2.253399  -0.097964
     2  O   -0.105941  -0.202900  -0.039274
     3  C   -0.169291  -0.204930  -0.003565
     4  H    0.015816   0.065364  -0.001449
     5  H    0.002842   0.040725   0.000444
     6  H    0.004988  -0.018078  -0.001269
     7  Cl  17.671637   0.258923  -0.030091
     8  C    0.258923   7.455304   0.538316
     9  N   -0.030091   0.538316   7.284073
 Mulliken charges:
               1
     1  C    0.230064
     2  O   -0.574380
     3  C   -0.693381
     4  H    0.220633
     5  H    0.222436
     6  H    0.233653
     7  Cl  -0.310479
     8  C    0.320675
     9  N   -0.649221
 Sum of Mulliken charges =  -1.00000
 Mulliken charges with hydrogens summed into heavy atoms:
               1
     1  C    0.230064
     2  O   -0.574380
     3  C   -0.016659
     7  Cl  -0.310479
     8  C    0.320675
     9  N   -0.649221
 Electronic spatial extent (au):  <R**2>=            685.9915
 Charge=             -1.0000 electrons
 Dipole moment (field-independent basis, Debye):
    X=             -0.9988    Y=              2.4910    Z=             -3.7170  Tot=              4.5846
 Quadrupole moment (field-independent basis, Debye-Ang):
   XX=            -60.1813   YY=            -51.5375   ZZ=            -52.4013
   XY=              4.6433   XZ=             -0.9777   YZ=             -4.8265
 Traceless Quadrupole moment (field-independent basis, Debye-Ang):
   XX=             -5.4746   YY=              3.1692   ZZ=              2.3054
   XY=              4.6433   XZ=             -0.9777   YZ=             -4.8265
 Octapole moment (field-independent basis, Debye-Ang**2):
  XXX=            -17.3363  YYY=              9.8636  ZZZ=             -9.7794  XYY=            -11.3457
  XXY=             19.3100  XXZ=              3.3374  XZZ=             -3.5773  YZZ=             -4.2479
  YYZ=             -1.2022  XYZ=             -3.1565
 Hexadecapole moment (field-independent basis, Debye-Ang**3):
 XXXX=           -556.0473 YYYY=           -313.6941 ZZZZ=           -201.4487 XXXY=             43.1208
 XXXZ=              6.6296 YYYX=             21.3347 YYYZ=             -5.2155 ZZZX=             -1.8081
 ZZZY=             -6.8775 XXYY=           -154.8561 XXZZ=           -118.1193 YYZZ=            -88.5857
 XXYZ=             -5.1904 YYXZ=              2.4902 ZZXY=              1.0425
 N-N= 2.605254910028D+02 E-N=-2.199793848094D+03  KE= 7.028225281531D+02
 No NMR shielding tensors so no spin-rotation constants.
 Leave Link  601 at Wed Jan  8 00:12:23 2020, MaxMem=  4294967296 cpu:              12.1 elap:               0.9
 (Enter /home/cwagen/sw/g16/g16/l701.exe)
 ... and contract with generalized density number  0.
 Compute integral first derivatives.
 D1PCM: PCM CHGder 1st derivatives, ID1Alg=3 FixD1E=F DoIter=F DoCFld=F I1PDM=0.
 GePol: Maximum number of non-zero 1st derivatives   =     361
 Leave Link  701 at Wed Jan  8 00:12:29 2020, MaxMem=  4294967296 cpu:              69.4 elap:               5.4
 (Enter /home/cwagen/sw/g16/g16/l702.exe)
 L702 exits ... SP integral derivatives will be done elsewhere.
 Leave Link  702 at Wed Jan  8 00:12:29 2020, MaxMem=  4294967296 cpu:               0.9 elap:               0.1
 (Enter /home/cwagen/sw/g16/g16/l703.exe)
 Integral derivatives from FoFJK, PRISM(SPDF).
 Compute integral first derivatives, UseDBF=F ICtDFT=           0.
 Calling FoFJK, ICntrl=      2127 FMM=F ISym2X=0 I1Cent= 0 IOpClX= 0 NMat=1 NMatS=1 NMatT=0.
 FoFJK:  IHMeth= 1 ICntrl=    2127 DoSepK=F KAlg= 0 I1Cent=           0 FoldK=F
 IRaf=         0 NMat=       1 IRICut=       1 DoRegI=T DoRafI=F ISym2E= 0 IDoP0=0 IntGTp=1.
 FoFCou: FMM=F IPFlag=           0 FMFlag=      100000 FMFlg1=         800
         NFxFlg=           0 DoJE=F BraDBF=F KetDBF=F FulRan=T
         wScrn=  0.000000 ICntrl=      2127 IOpCl=  0 I1Cent=           0 NGrid=           0
         NMat0=    1 NMatS0=      1 NMatT0=    0 NMatD0=    1 NMtDS0=    0 NMtDT0=    0
 Symmetry not used in FoFCou.
 Leave Link  703 at Wed Jan  8 00:12:31 2020, MaxMem=  4294967296 cpu:              34.4 elap:               2.3
 (Enter /home/cwagen/sw/g16/g16/l716.exe)
 Dipole        =-3.92941189D-01 9.80022057D-01-1.46239246D+00
 ***** Axes restored to original set *****
 -------------------------------------------------------------------
 Center     Atomic                   Forces (Hartrees/Bohr)
 Number     Number              X              Y              Z
 -------------------------------------------------------------------
      1        6          -0.006405707   -0.065411015   -0.023293330
      2        8          -0.017806783    0.010269191    0.005710641
      3        6          -0.029069364    0.004057715    0.005343856
      4        1          -0.000723085    0.000161257   -0.000437698
      5        1           0.000429005   -0.002510142    0.002231398
      6        1           0.000615905    0.002484226   -0.002027468
      7       17          -0.008396621    0.005699476    0.005924618
      8        6           0.067016759    0.047507652    0.000963025
      9        7          -0.005660107   -0.002258360    0.005584959
 -------------------------------------------------------------------
 Cartesian Forces:  Max     0.067016759 RMS     0.022098974
 Leave Link  716 at Wed Jan  8 00:12:31 2020, MaxMem=  4294967296 cpu:               1.0 elap:               0.1
 (Enter /home/cwagen/sw/g16/g16/l103.exe)

 GradGradGradGradGradGradGradGradGradGradGradGradGradGradGradGradGradGrad
 Berny optimization.
 FormGI is forming the generalized inverse of G from B-inverse, IUseBI=4.
 Internal  Forces:  Max     0.073013886 RMS     0.017013706
 Search for a local minimum.
 Step number   1 out of a maximum of   41
 All quantities printed in internal units (Hartrees-Bohrs-Radians)
 RMS Force = .11024D-01 SwitMx=.10000D-02 MixMth= 1
 Mixed Optimization -- RFO/linear search
 Second derivative matrix not updated -- first step.
 ITU=  0
     Eigenvalues ---    0.00230   0.04746   0.04746   0.05330   0.05908
     Eigenvalues ---    0.07453   0.10176   0.16000   0.16000   0.16000
     Eigenvalues ---    0.25000   0.25000   0.25000   0.26946   0.33918
     Eigenvalues ---    0.33999   0.34275   0.67840   1.220341000.00000
     Eigenvalues --- 1000.000001000.000001000.000001000.000001000.00000
     Eigenvalues --- 1000.000001000.000001000.000001000.000001000.00000
     Eigenvalues --- 1000.00000
 RFO step:  Lambda=-2.23130906D-02 EMin= 2.30000000D-03
 Linear search not attempted -- first point.
 Maximum step size (   0.300) exceeded in Quadratic search.
    -- Step size scaled by   0.970
 Iteration  1 RMS(Cart)=  0.10222660 RMS(Int)=  0.00747088
 Iteration  2 RMS(Cart)=  0.00779872 RMS(Int)=  0.00457617
 Iteration  3 RMS(Cart)=  0.00003580 RMS(Int)=  0.00457613
 Iteration  4 RMS(Cart)=  0.00000028 RMS(Int)=  0.00457613
 Iteration  1 RMS(Cart)=  0.00000000 RMS(Int)=  0.00000000
 ITry= 1 IFail=0 DXMaxC= 2.58D-01 DCOld= 1.00D+10 DXMaxT= 3.00D-01 DXLimC= 3.00D+00 Rises=F
 Variable       Old X    -DE/DX   Delta X   Delta X   Delta X     New X
                                 (Linear)    (Quad)   (Total)
    R1        2.45227  -0.00758   0.00000  -0.01049  -0.01049   2.44179
    R2        2.94503   0.00284   0.00000   0.00945   0.00945   2.95448
    R3        3.77945   0.01086   0.00000   0.00000   0.00000   3.77945
    R4        2.64562   0.07301   0.00000   0.00000   0.00000   2.64562
    R5        2.07331  -0.00048   0.00000  -0.00127  -0.00127   2.07204
    R6        2.07468   0.00036   0.00000   0.00096   0.00096   2.07565
    R7        2.06868  -0.00127   0.00000  -0.00337  -0.00337   2.06531
    R8        2.20923  -0.00589   0.00000  -0.00460  -0.00460   2.20463
    A1        1.99667   0.01087   0.00000   0.03634   0.02474   2.02140
    A2        2.01908  -0.00390   0.00000  -0.06990  -0.07523   1.94385
    A3        1.89239  -0.00353   0.00000   0.07502   0.06040   1.95279
    A4        1.92419  -0.02359   0.00000  -0.12460  -0.12412   1.80007
    A5        1.77194   0.03769   0.00000   0.17480   0.16791   1.93985
    A6        1.83479  -0.01329   0.00000  -0.05755  -0.04936   1.78543
    A7        1.97398  -0.00033   0.00000  -0.00219  -0.00238   1.97160
    A8        1.87942   0.00574   0.00000   0.03396   0.03401   1.91344
    A9        1.90140  -0.00505   0.00000  -0.02995  -0.02993   1.87147
   A10        1.90356  -0.00200   0.00000  -0.00502  -0.00518   1.89838
   A11        1.90837   0.00193   0.00000   0.00416   0.00394   1.91231
   A12        1.89554  -0.00025   0.00000  -0.00056  -0.00026   1.89529
   A13        3.10130  -0.00491   0.00000  -0.06818  -0.06818   3.03311
   A14        2.92901   0.01042   0.00000   0.14483   0.14483   3.07384
    D1        3.04510   0.01335   0.00000   0.13266   0.13468  -3.10340
    D2       -1.13357   0.01457   0.00000   0.14823   0.15036  -0.98321
    D3        0.91915   0.01472   0.00000   0.15023   0.15208   1.07123
    D4       -0.92685  -0.00474   0.00000  -0.05257  -0.04873  -0.97558
    D5        1.17766  -0.00352   0.00000  -0.03700  -0.03305   1.14461
    D6       -3.05280  -0.00337   0.00000  -0.03501  -0.03133  -3.08413
    D7        1.01121  -0.01034   0.00000  -0.07943  -0.08523   0.92598
    D8        3.11572  -0.00913   0.00000  -0.06386  -0.06955   3.04617
    D9       -1.11475  -0.00897   0.00000  -0.06186  -0.06783  -1.18257
         Item               Value     Threshold  Converged?
 Maximum Force            0.037688     0.000450     NO 
 RMS     Force            0.011024     0.000300     NO 
 Maximum Displacement     0.257818     0.001800     NO 
 RMS     Displacement     0.100075     0.001200     NO 
 Predicted change in Energy=-1.348061D-02
 Lowest energy point so far.  Saving SCF results.
 GradGradGradGradGradGradGradGradGradGradGradGradGradGradGradGradGradGrad

 Leave Link  103 at Wed Jan  8 00:12:36 2020, MaxMem=  4294967296 cpu:              62.5 elap:               4.2
 (Enter /home/cwagen/sw/g16/g16/l202.exe)
                          Input orientation:                          
 ---------------------------------------------------------------------
 Center     Atomic      Atomic             Coordinates (Angstroms)
 Number     Number       Type             X           Y           Z
 ---------------------------------------------------------------------
      1          6           0       -0.098110   -0.346199   -0.230255
      2          8           0       -0.300891   -0.671611   -1.464195
      3          6           0       -0.366605   -1.469812    0.823199
      4          1           0       -0.217028   -1.132695    1.855787
      5          1           0       -1.396374   -1.836869    0.716919
      6          1           0        0.320415   -2.290781    0.603032
      7         17           0       -1.327084    1.121940    0.347836
      8          6           0        1.163875    0.230343   -0.043194
      9          7           0        2.267527    0.579245    0.102665
 ---------------------------------------------------------------------
                    Distance matrix (angstroms):
                    1          2          3          4          5
     1  C    0.000000
     2  O    1.292138   0.000000
     3  C    1.563445   2.423554   0.000000
     4  H    2.232552   3.352896   1.096476   0.000000
     5  H    2.191968   2.704658   1.098386   1.784303   0.000000
     6  H    2.156601   2.698363   1.092913   1.788688   1.779430
     7  Cl   2.000000   2.748337   2.804580   2.930788   2.982545
     8  C    1.400000   2.231212   2.446126   2.714939   3.377279
     9  N    2.561937   3.258291   3.414155   3.489583   4.431601
                    6          7          8          9
     6  H    0.000000
     7  Cl   3.798163   0.000000
     8  C    2.735891   2.674459   0.000000
     9  N    3.504092   3.643605   1.166642   0.000000
 Stoichiometry    C3H3ClNO(1-)
 Framework group  C1[X(C3H3ClNO)]
 Deg. of freedom    21
 Full point group                 C1      NOp   1
 RotChk:  IX=0 Diff= 2.54D-01
 Largest Abelian subgroup         C1      NOp   1
 Largest concise Abelian subgroup C1      NOp   1
                         Standard orientation:                         
 ---------------------------------------------------------------------
 Center     Atomic      Atomic             Coordinates (Angstroms)
 Number     Number       Type             X           Y           Z
 ---------------------------------------------------------------------
      1          6           0        0.150137    0.401472    0.210691
      2          8           0        0.187378    0.858814    1.418612
      3          6           0        0.045499    1.475140   -0.920967
      4          1           0       -0.021227    1.035286   -1.923133
      5          1           0       -0.838504    2.104709   -0.751753
      6          1           0        0.937908    2.102638   -0.855321
      7         17           0       -1.468597   -0.734219   -0.089150
      8          6           0        1.194797   -0.496243   -0.039891
      9          7           0        2.149479   -1.130520   -0.257447
 ---------------------------------------------------------------------
 Rotational constants (GHZ):           3.6555938           2.4299996           2.0243408
 Leave Link  202 at Wed Jan  8 00:12:36 2020, MaxMem=  4294967296 cpu:               1.3 elap:               0.1
 (Enter /home/cwagen/sw/g16/g16/l301.exe)
 Standard basis: 6-31+G(d) (6D, 7F)
 Ernie: Thresh=  0.10000D-02 Tol=  0.10000D-05 Strict=F.
 There are   124 symmetry adapted cartesian basis functions of A   symmetry.
 There are   124 symmetry adapted basis functions of A   symmetry.
   124 basis functions,   228 primitive gaussians,   124 cartesian basis functions
    27 alpha electrons       27 beta electrons
       nuclear repulsion energy       261.3181617882 Hartrees.
 IExCor=  402 DFT=T Ex+Corr=B3LYP ExCW=0 ScaHFX=  0.200000
 ScaDFX=  0.800000  0.720000  1.000000  0.810000 ScalE2=  1.000000  1.000000
 IRadAn=      5 IRanWt=     -1 IRanGd=            0 ICorTp=0 IEmpDi=  4
 NAtoms=    9 NActive=    9 NUniq=    9 SFac= 1.00D+00 NAtFMM=   60 NAOKFM=F Big=F
 Integral buffers will be    131072 words long.
 Raffenetti 2 integral format.
 Two-electron integral symmetry is turned on.
 ------------------------------------------------------------------------------
 Polarizable Continuum Model (PCM)
 =================================
 Model                : PCM.
 Atomic radii         : SMD-Coulomb.
 Polarization charges : Total charges.
 Charge compensation  : None.
 Solution method      : On-the-fly selection.
 Cavity type          : VdW (van der Waals Surface) (Alpha=1.000).
 Cavity algorithm     : GePol (No added spheres)
                        Default sphere list used, NSphG=    9.
                        Lebedev-Laikov grids with approx.  5.0 points / Ang**2.
                        Smoothing algorithm: York/Karplus (Gamma=1.0000).
                        Polarization charges: spherical gaussians, with
                                              point-specific exponents (IZeta= 3).
                        Self-potential: point-specific (ISelfS= 7).
                        Self-field    : sphere-specific E.n sum rule (ISelfD= 2).
 1st derivatives      : Analytical E(r).r(x)/FMM algorithm (CHGder, D1EAlg=3).
                        Cavity 1st derivative terms included.
 Solvent              : TetraHydroFuran, Eps=   7.425700 Eps(inf)=   1.974025
 ------------------------------------------------------------------------------
 Spheres list:
 ISph  on   Nord     Re0    Alpha      Xe            Ye            Ze
    1   C      1    1.8500  1.000      0.150137      0.401472      0.210691
    2   O      2    2.2940  1.000      0.187378      0.858814      1.418612
    3   C      3    1.8500  1.000      0.045499      1.475140     -0.920967
    4   H      4    1.2000  1.000     -0.021227      1.035286     -1.923133
    5   H      5    1.2000  1.000     -0.838504      2.104709     -0.751753
    6   H      6    1.2000  1.000      0.937908      2.102638     -0.855321
    7  Cl      7    2.3800  1.000     -1.468597     -0.734219     -0.089150
    8   C      8    1.8500  1.000      1.194797     -0.496243     -0.039891
    9   N      9    1.8900  1.000      2.149479     -1.130520     -0.257447
 ------------------------------------------------------------------------------
 GePol: Number of generator spheres                  =       9
 GePol: Total number of spheres                      =       9
 GePol: Number of exposed spheres                    =       9 (100.00%)
 GePol: Number of points                             =    1124
 GePol: Average weight of points                     =       0.13
 GePol: Minimum weight of points                     =   0.16D-08
 GePol: Maximum weight of points                     =    0.18138
 GePol: Number of points with low weight             =      42
 GePol: Fraction of low-weight points (<1% of avg)   =       3.74%
 GePol: Cavity surface area                          =    151.508 Ang**2
 GePol: Cavity volume                                =    139.792 Ang**3
 ------------------------------------------------------------------------------
 Atomic radii for non-electrostatic terms: SMD-CDS.
 ------------------------------------------------------------------------------
 PCM non-electrostatic energy =        -0.0010929192 Hartrees.
 Nuclear repulsion after PCM non-electrostatic terms =      261.3170688690 Hartrees.
 Leave Link  301 at Wed Jan  8 00:12:36 2020, MaxMem=  4294967296 cpu:               2.1 elap:               0.2
 (Enter /home/cwagen/sw/g16/g16/l302.exe)
 NPDir=0 NMtPBC=     1 NCelOv=     1 NCel=       1 NClECP=     1 NCelD=      1
         NCelK=      1 NCelE2=     1 NClLst=     1 CellRange=     0.0.
 One-electron integrals computed using PRISM.
 One-electron integral symmetry used in STVInt
 NBasis=   124 RedAO= T EigKep=  2.45D-05  NBF=   124
 NBsUse=   124 1.00D-06 EigRej= -1.00D+00 NBFU=   124
 Precomputing XC quadrature grid using
 IXCGrd= 4 IRadAn=           5 IRanWt=          -1 IRanGd=           0 AccXCQ= 0.00D+00.
 Generated NRdTot=       0 NPtTot=           0 NUsed=           0 NTot=          32
 NSgBfM=   124   124   124   124   124 MxSgAt=     9 MxSgA2=     9.
 Leave Link  302 at Wed Jan  8 00:12:37 2020, MaxMem=  4294967296 cpu:              23.0 elap:               1.6
 (Enter /home/cwagen/sw/g16/g16/l303.exe)
 DipDrv:  MaxL=1.
 Leave Link  303 at Wed Jan  8 00:12:38 2020, MaxMem=  4294967296 cpu:               2.5 elap:               0.3
 (Enter /home/cwagen/sw/g16/g16/l401.exe)
 Initial guess from the checkpoint file:  "/scratch/users/cwagen/cwagen_scan_200_140/Gau-21801.chk"
 B after Tr=     0.000000    0.000000    0.000000
         Rot=    0.997018    0.014630   -0.007694   -0.075373 Ang=   8.85 deg.
 Guess basis will be translated and rotated to current coordinates.
 JPrj=2 DoOrth=T DoCkMO=T.
 Generating alternative initial guess.
 ExpMin= 4.38D-02 ExpMax= 2.52D+04 ExpMxC= 3.78D+03 IAcc=2 IRadAn=         4 AccDes= 0.00D+00
 Harris functional with IExCor=  402 and IRadAn=       4 diagonalized for initial guess.
 HarFok:  IExCor=  402 AccDes= 0.00D+00 IRadAn=         4 IDoV= 1 UseB2=F ITyADJ=14
 ICtDFT=  3500011 ScaDFX=  1.000000  1.000000  1.000000  1.000000
 FoFCou: FMM=F IPFlag=           0 FMFlag=      100000 FMFlg1=           0
         NFxFlg=           0 DoJE=T BraDBF=F KetDBF=T FulRan=T
         wScrn=  0.000000 ICntrl=       500 IOpCl=  0 I1Cent=   200000004 NGrid=           0
         NMat0=    1 NMatS0=      1 NMatT0=    0 NMatD0=    1 NMtDS0=    0 NMtDT0=    0
 Petite list used in FoFCou.
 Harris En= -706.430159849684    
 Leave Link  401 at Wed Jan  8 00:12:40 2020, MaxMem=  4294967296 cpu:              37.4 elap:               2.5
 (Enter /home/cwagen/sw/g16/g16/l502.exe)
 Keep R1 ints in memory in canonical form, NReq=45236517.
 FoFCou: FMM=F IPFlag=           0 FMFlag=           0 FMFlg1=           0
         NFxFlg=           0 DoJE=F BraDBF=F KetDBF=F FulRan=T
         wScrn=  0.000000 ICntrl=       600 IOpCl=  0 I1Cent=           0 NGrid=           0
         NMat0=    1 NMatS0=   7750 NMatT0=    0 NMatD0=    1 NMtDS0=    0 NMtDT0=    0
 Symmetry not used in FoFCou.
 Two-electron integral symmetry not used.
 Closed shell SCF:
 Using DIIS extrapolation, IDIIS=  1040.
 NGot=  4294967296 LenX=  4264898079 LenY=  4264882262
 Requested convergence on RMS density matrix=1.00D-08 within 128 cycles.
 Requested convergence on MAX density matrix=1.00D-06.
 Requested convergence on             energy=1.00D-06.
 No special actions if energy rises.

 Cycle   1  Pass 1  IDiag  1:
 Inv3:  Mode=1 IEnd=     3790128.
 Iteration    1 A*A^-1 deviation from unit magnitude is 3.22D-15 for   1111.
 Iteration    1 A*A^-1 deviation from orthogonality  is 1.31D-15 for    288     62.
 Iteration    1 A^-1*A deviation from unit magnitude is 3.11D-15 for   1118.
 Iteration    1 A^-1*A deviation from orthogonality  is 1.08D-15 for    287    119.
 E= -706.399459973457    
 DIIS: error= 6.35D-03 at cycle   1 NSaved=   1.
 NSaved= 1 IEnMin= 1 EnMin= -706.399459973457     IErMin= 1 ErrMin= 6.35D-03
 ErrMax= 6.35D-03  0.00D+00 EMaxC= 1.00D-01 BMatC= 1.45D-02 BMatP= 1.45D-02
 IDIUse=3 WtCom= 9.37D-01 WtEn= 6.35D-02
 Coeff-Com:  0.100D+01
 Coeff-En:   0.100D+01
 Coeff:      0.100D+01
 Gap=     0.551 Goal=   None    Shift=    0.000
 GapD=    0.551 DampG=2.000 DampE=1.000 DampFc=2.0000 IDamp=-1.
 RMSDP=5.52D-03 MaxDP=2.33D-01              OVMax= 4.71D-02

 Cycle   2  Pass 1  IDiag  1:
 E= -706.422282234570     Delta-E=       -0.022822261114 Rises=F Damp=F
 DIIS: error= 8.48D-04 at cycle   2 NSaved=   2.
 NSaved= 2 IEnMin= 2 EnMin= -706.422282234570     IErMin= 2 ErrMin= 8.48D-04
 ErrMax= 8.48D-04  0.00D+00 EMaxC= 1.00D-01 BMatC= 2.83D-04 BMatP= 1.45D-02
 IDIUse=3 WtCom= 9.92D-01 WtEn= 8.48D-03
 Coeff-Com: -0.394D-01 0.104D+01
 Coeff-En:   0.000D+00 0.100D+01
 Coeff:     -0.391D-01 0.104D+01
 Gap=     0.202 Goal=   None    Shift=    0.000
 RMSDP=5.36D-04 MaxDP=1.31D-02 DE=-2.28D-02 OVMax= 8.84D-03

 Cycle   3  Pass 1  IDiag  1:
 E= -706.422243567887     Delta-E=        0.000038666683 Rises=F Damp=F
 DIIS: error= 1.04D-03 at cycle   3 NSaved=   3.
 NSaved= 3 IEnMin= 2 EnMin= -706.422282234570     IErMin= 2 ErrMin= 8.48D-04
 ErrMax= 1.04D-03  0.00D+00 EMaxC= 1.00D-01 BMatC= 4.77D-04 BMatP= 2.83D-04
 IDIUse=3 WtCom= 2.37D-01 WtEn= 7.63D-01
 Coeff-Com: -0.353D-01 0.618D+00 0.417D+00
 Coeff-En:   0.000D+00 0.533D+00 0.467D+00
 Coeff:     -0.837D-02 0.553D+00 0.455D+00
 Gap=     0.202 Goal=   None    Shift=    0.000
 RMSDP=3.49D-04 MaxDP=1.12D-02 DE= 3.87D-05 OVMax= 8.88D-03

 Cycle   4  Pass 1  IDiag  1:
 E= -706.422540429039     Delta-E=       -0.000296861152 Rises=F Damp=F
 DIIS: error= 6.24D-04 at cycle   4 NSaved=   4.
 NSaved= 4 IEnMin= 4 EnMin= -706.422540429039     IErMin= 4 ErrMin= 6.24D-04
 ErrMax= 6.24D-04  0.00D+00 EMaxC= 1.00D-01 BMatC= 1.47D-04 BMatP= 2.83D-04
 IDIUse=3 WtCom= 9.94D-01 WtEn= 6.24D-03
 Coeff-Com: -0.145D-01 0.186D+00 0.346D+00 0.482D+00
 Coeff-En:   0.000D+00 0.000D+00 0.280D+00 0.720D+00
 Coeff:     -0.144D-01 0.185D+00 0.346D+00 0.483D+00
 Gap=     0.202 Goal=   None    Shift=    0.000
 RMSDP=1.71D-04 MaxDP=5.47D-03 DE=-2.97D-04 OVMax= 3.80D-03

 Cycle   5  Pass 1  IDiag  1:
 E= -706.422665199538     Delta-E=       -0.000124770499 Rises=F Damp=F
 DIIS: error= 1.18D-04 at cycle   5 NSaved=   5.
 NSaved= 5 IEnMin= 5 EnMin= -706.422665199538     IErMin= 5 ErrMin= 1.18D-04
 ErrMax= 1.18D-04  0.00D+00 EMaxC= 1.00D-01 BMatC= 4.56D-06 BMatP= 1.47D-04
 IDIUse=3 WtCom= 9.99D-01 WtEn= 1.18D-03
 Coeff-Com: -0.408D-02 0.392D-01 0.148D+00 0.264D+00 0.553D+00
 Coeff-En:   0.000D+00 0.000D+00 0.000D+00 0.000D+00 0.100D+01
 Coeff:     -0.407D-02 0.392D-01 0.148D+00 0.263D+00 0.554D+00
 Gap=     0.202 Goal=   None    Shift=    0.000
 RMSDP=3.10D-05 MaxDP=9.37D-04 DE=-1.25D-04 OVMax= 6.88D-04

 Cycle   6  Pass 1  IDiag  1:
 E= -706.422669533997     Delta-E=       -0.000004334459 Rises=F Damp=F
 DIIS: error= 3.06D-05 at cycle   6 NSaved=   6.
 NSaved= 6 IEnMin= 6 EnMin= -706.422669533997     IErMin= 6 ErrMin= 3.06D-05
 ErrMax= 3.06D-05  0.00D+00 EMaxC= 1.00D-01 BMatC= 3.13D-07 BMatP= 4.56D-06
 IDIUse=1 WtCom= 1.00D+00 WtEn= 0.00D+00
 Coeff-Com:  0.107D-03-0.101D-01 0.201D-01 0.567D-01 0.254D+00 0.679D+00
 Coeff:      0.107D-03-0.101D-01 0.201D-01 0.567D-01 0.254D+00 0.679D+00
 Gap=     0.202 Goal=   None    Shift=    0.000
 RMSDP=1.49D-05 MaxDP=5.63D-04 DE=-4.33D-06 OVMax= 1.87D-04

 Cycle   7  Pass 1  IDiag  1:
 E= -706.422669740619     Delta-E=       -0.000000206622 Rises=F Damp=F
 DIIS: error= 1.98D-05 at cycle   7 NSaved=   7.
 NSaved= 7 IEnMin= 7 EnMin= -706.422669740619     IErMin= 7 ErrMin= 1.98D-05
 ErrMax= 1.98D-05  0.00D+00 EMaxC= 1.00D-01 BMatC= 9.71D-08 BMatP= 3.13D-07
 IDIUse=1 WtCom= 1.00D+00 WtEn= 0.00D+00
 Coeff-Com:  0.391D-03-0.100D-01 0.302D-02 0.191D-01 0.131D+00 0.456D+00
 Coeff-Com:  0.401D+00
 Coeff:      0.391D-03-0.100D-01 0.302D-02 0.191D-01 0.131D+00 0.456D+00
 Coeff:      0.401D+00
 Gap=     0.202 Goal=   None    Shift=    0.000
 RMSDP=6.40D-06 MaxDP=2.22D-04 DE=-2.07D-07 OVMax= 1.57D-04

 Cycle   8  Pass 1  IDiag  1:
 E= -706.422669822343     Delta-E=       -0.000000081724 Rises=F Damp=F
 DIIS: error= 5.07D-06 at cycle   8 NSaved=   8.
 NSaved= 8 IEnMin= 8 EnMin= -706.422669822343     IErMin= 8 ErrMin= 5.07D-06
 ErrMax= 5.07D-06  0.00D+00 EMaxC= 1.00D-01 BMatC= 5.76D-09 BMatP= 9.71D-08
 IDIUse=1 WtCom= 1.00D+00 WtEn= 0.00D+00
 Coeff-Com:  0.213D-03-0.438D-02-0.125D-02 0.250D-02 0.398D-01 0.160D+00
 Coeff-Com:  0.229D+00 0.574D+00
 Coeff:      0.213D-03-0.438D-02-0.125D-02 0.250D-02 0.398D-01 0.160D+00
 Coeff:      0.229D+00 0.574D+00
 Gap=     0.202 Goal=   None    Shift=    0.000
 RMSDP=3.26D-06 MaxDP=1.46D-04 DE=-8.17D-08 OVMax= 3.11D-05

 Cycle   9  Pass 1  IDiag  1:
 E= -706.422669827541     Delta-E=       -0.000000005198 Rises=F Damp=F
 DIIS: error= 9.13D-07 at cycle   9 NSaved=   9.
 NSaved= 9 IEnMin= 9 EnMin= -706.422669827541     IErMin= 9 ErrMin= 9.13D-07
 ErrMax= 9.13D-07  0.00D+00 EMaxC= 1.00D-01 BMatC= 3.52D-10 BMatP= 5.76D-09
 IDIUse=1 WtCom= 1.00D+00 WtEn= 0.00D+00
 Coeff-Com:  0.300D-04-0.334D-03-0.934D-03-0.176D-02-0.246D-02-0.135D-02
 Coeff-Com:  0.394D-01 0.238D+00 0.730D+00
 Coeff:      0.300D-04-0.334D-03-0.934D-03-0.176D-02-0.246D-02-0.135D-02
 Coeff:      0.394D-01 0.238D+00 0.730D+00
 Gap=     0.202 Goal=   None    Shift=    0.000
 RMSDP=6.64D-07 MaxDP=2.47D-05 DE=-5.20D-09 OVMax= 1.13D-05

 Cycle  10  Pass 1  IDiag  1:
 E= -706.422669827941     Delta-E=       -0.000000000400 Rises=F Damp=F
 DIIS: error= 2.14D-07 at cycle  10 NSaved=  10.
 NSaved=10 IEnMin=10 EnMin= -706.422669827941     IErMin=10 ErrMin= 2.14D-07
 ErrMax= 2.14D-07  0.00D+00 EMaxC= 1.00D-01 BMatC= 1.88D-11 BMatP= 3.52D-10
 IDIUse=1 WtCom= 1.00D+00 WtEn= 0.00D+00
 Coeff-Com: -0.307D-05 0.181D-03-0.235D-03-0.783D-03-0.344D-02-0.107D-01
 Coeff-Com: -0.163D-02 0.499D-01 0.255D+00 0.711D+00
 Coeff:     -0.307D-05 0.181D-03-0.235D-03-0.783D-03-0.344D-02-0.107D-01
 Coeff:     -0.163D-02 0.499D-01 0.255D+00 0.711D+00
 Gap=     0.202 Goal=   None    Shift=    0.000
 RMSDP=1.67D-07 MaxDP=5.87D-06 DE=-4.00D-10 OVMax= 2.81D-06

 Cycle  11  Pass 1  IDiag  1:
 E= -706.422669827967     Delta-E=       -0.000000000026 Rises=F Damp=F
 DIIS: error= 8.76D-08 at cycle  11 NSaved=  11.
 NSaved=11 IEnMin=11 EnMin= -706.422669827967     IErMin=11 ErrMin= 8.76D-08
 ErrMax= 8.76D-08  0.00D+00 EMaxC= 1.00D-01 BMatC= 1.74D-12 BMatP= 1.88D-11
 IDIUse=1 WtCom= 1.00D+00 WtEn= 0.00D+00
 Coeff-Com: -0.275D-05 0.798D-04-0.136D-04-0.138D-03-0.961D-03-0.318D-02
 Coeff-Com: -0.353D-02 0.111D-02 0.333D-01 0.264D+00 0.709D+00
 Coeff:     -0.275D-05 0.798D-04-0.136D-04-0.138D-03-0.961D-03-0.318D-02
 Coeff:     -0.353D-02 0.111D-02 0.333D-01 0.264D+00 0.709D+00
 Gap=     0.202 Goal=   None    Shift=    0.000
 RMSDP=2.94D-08 MaxDP=5.52D-07 DE=-2.58D-11 OVMax= 9.32D-07

 Cycle  12  Pass 1  IDiag  1:
 E= -706.422669827967     Delta-E=        0.000000000000 Rises=F Damp=F
 DIIS: error= 1.79D-08 at cycle  12 NSaved=  12.
 NSaved=12 IEnMin=11 EnMin= -706.422669827967     IErMin=12 ErrMin= 1.79D-08
 ErrMax= 1.79D-08  0.00D+00 EMaxC= 1.00D-01 BMatC= 7.83D-14 BMatP= 1.74D-12
 IDIUse=1 WtCom= 1.00D+00 WtEn= 0.00D+00
 Coeff-Com: -0.466D-06 0.589D-05 0.114D-04 0.189D-04 0.320D-05 0.187D-04
 Coeff-Com: -0.687D-03-0.351D-02-0.100D-01 0.194D-01 0.191D+00 0.804D+00
 Coeff:     -0.466D-06 0.589D-05 0.114D-04 0.189D-04 0.320D-05 0.187D-04
 Coeff:     -0.687D-03-0.351D-02-0.100D-01 0.194D-01 0.191D+00 0.804D+00
 Gap=     0.202 Goal=   None    Shift=    0.000
 RMSDP=1.26D-08 MaxDP=5.69D-07 DE= 4.55D-13 OVMax= 3.39D-07

 Cycle  13  Pass 1  IDiag  1:
 E= -706.422669827967     Delta-E=        0.000000000000 Rises=F Damp=F
 DIIS: error= 6.87D-09 at cycle  13 NSaved=  13.
 NSaved=13 IEnMin=11 EnMin= -706.422669827967     IErMin=13 ErrMin= 6.87D-09
 ErrMax= 6.87D-09  0.00D+00 EMaxC= 1.00D-01 BMatC= 1.61D-14 BMatP= 7.83D-14
 IDIUse=1 WtCom= 1.00D+00 WtEn= 0.00D+00
 Coeff-Com:  0.262D-07-0.420D-05 0.642D-05 0.204D-04 0.853D-04 0.283D-03
 Coeff-Com: -0.139D-04-0.194D-02-0.801D-02-0.164D-01 0.219D-01 0.364D+00
 Coeff-Com:  0.640D+00
 Coeff:      0.262D-07-0.420D-05 0.642D-05 0.204D-04 0.853D-04 0.283D-03
 Coeff:     -0.139D-04-0.194D-02-0.801D-02-0.164D-01 0.219D-01 0.364D+00
 Coeff:      0.640D+00
 Gap=     0.202 Goal=   None    Shift=    0.000
 RMSDP=2.83D-09 MaxDP=5.48D-08 DE=-3.41D-13 OVMax= 8.28D-08

 Error on total polarization charges =  0.02229
 SCF Done:  E(RB3LYP) =  -706.422669828     A.U. after   13 cycles
            NFock= 13  Conv=0.28D-08     -V/T= 2.0051
 KE= 7.028367918362D+02 PE=-2.201466752013D+03 EE= 5.308902214795D+02
 SMD-CDS (non-electrostatic) energy       (kcal/mol) =      -0.69
 (included in total energy above)
 Leave Link  502 at Wed Jan  8 00:13:10 2020, MaxMem=  4294967296 cpu:             427.6 elap:              29.8
 (Enter /home/cwagen/sw/g16/g16/l701.exe)
 ... and contract with generalized density number  0.
 Compute integral first derivatives.
 D1PCM: PCM CHGder 1st derivatives, ID1Alg=3 FixD1E=F DoIter=F DoCFld=F I1PDM=0.
 GePol: Maximum number of non-zero 1st derivatives   =     346
 Leave Link  701 at Wed Jan  8 00:13:14 2020, MaxMem=  4294967296 cpu:              54.1 elap:               3.6
 (Enter /home/cwagen/sw/g16/g16/l702.exe)
 L702 exits ... SP integral derivatives will be done elsewhere.
 Leave Link  702 at Wed Jan  8 00:13:14 2020, MaxMem=  4294967296 cpu:               0.9 elap:               0.1
 (Enter /home/cwagen/sw/g16/g16/l703.exe)
 Integral derivatives from FoFJK, PRISM(SPDF).
 Compute integral first derivatives, UseDBF=F ICtDFT=           0.
 Calling FoFJK, ICntrl=      2127 FMM=F ISym2X=0 I1Cent= 0 IOpClX= 0 NMat=1 NMatS=1 NMatT=0.
 FoFJK:  IHMeth= 1 ICntrl=    2127 DoSepK=F KAlg= 0 I1Cent=           0 FoldK=F
 IRaf=         0 NMat=       1 IRICut=       1 DoRegI=T DoRafI=F ISym2E= 0 IDoP0=0 IntGTp=1.
 FoFCou: FMM=F IPFlag=           0 FMFlag=      100000 FMFlg1=         800
         NFxFlg=           0 DoJE=F BraDBF=F KetDBF=F FulRan=T
         wScrn=  0.000000 ICntrl=      2127 IOpCl=  0 I1Cent=           0 NGrid=           0
         NMat0=    1 NMatS0=      1 NMatT0=    0 NMatD0=    1 NMtDS0=    0 NMtDT0=    0
 Symmetry not used in FoFCou.
 Leave Link  703 at Wed Jan  8 00:13:16 2020, MaxMem=  4294967296 cpu:              33.6 elap:               2.3
 (Enter /home/cwagen/sw/g16/g16/l716.exe)
 Dipole        =-3.24620147D-01 9.24266237D-01-1.43073860D+00
 ***** Axes restored to original set *****
 -------------------------------------------------------------------
 Center     Atomic                   Forces (Hartrees/Bohr)
 Number     Number              X              Y              Z
 -------------------------------------------------------------------
      1        6          -0.039196357   -0.060895614   -0.028897909
      2        8          -0.000915270    0.002877952    0.007540240
      3        6          -0.003791661    0.008207773   -0.000382408
      4        1           0.000812781   -0.000253531   -0.000622602
      5        1           0.002350893    0.002449475   -0.001823220
      6        1           0.001874875   -0.001753040    0.000192807
      7       17          -0.015394567    0.020902990    0.010126985
      8        6           0.057751249    0.027898789    0.016473102
      9        7          -0.003491943    0.000565206   -0.002606996
 -------------------------------------------------------------------
 Cartesian Forces:  Max     0.060895614 RMS     0.020575857
 Leave Link  716 at Wed Jan  8 00:13:16 2020, MaxMem=  4294967296 cpu:               1.0 elap:               0.1
 (Enter /home/cwagen/sw/g16/g16/l103.exe)

 GradGradGradGradGradGradGradGradGradGradGradGradGradGradGradGradGradGrad
 Berny optimization.
 Using GEDIIS/GDIIS optimizer.
 FormGI is forming the generalized inverse of G from B-inverse, IUseBI=4.
 Internal  Forces:  Max     0.062476207 RMS     0.012663710
 Search for a local minimum.
 Step number   2 out of a maximum of   41
 All quantities printed in internal units (Hartrees-Bohrs-Radians)
 RMS Force = .32110D-02 SwitMx=.10000D-02 MixMth= 1
 Mixed Optimization -- RFO/linear search
 Update second derivatives using D2CorX and points    1    2
 DE= -1.10D-02 DEPred=-1.35D-02 R= 8.14D-01
 TightC=F SS=  1.41D+00  RLast= 4.11D-01 DXNew= 5.0454D-01 1.2331D+00
 Trust test= 8.14D-01 RLast= 4.11D-01 DXMaxT set to 5.05D-01
 ITU=  1  0
 Use linear search instead of GDIIS.
     Eigenvalues ---    0.00231   0.04699   0.05001   0.05339   0.05899
     Eigenvalues ---    0.08341   0.10004   0.15979   0.16000   0.16430
     Eigenvalues ---    0.23801   0.25000   0.25740   0.28896   0.33992
     Eigenvalues ---    0.34011   0.34448   0.67608   1.218741000.00000
     Eigenvalues --- 1000.000001000.000001000.000001000.000001000.00000
     Eigenvalues --- 1000.000001000.000001000.000001000.000001000.00000
     Eigenvalues --- 1000.00000
 RFO step:  Lambda=-2.27741010D-03 EMin= 2.30510559D-03
 Quartic linear search produced a step of  0.05642.
 Iteration  1 RMS(Cart)=  0.05460777 RMS(Int)=  0.00276498
 Iteration  2 RMS(Cart)=  0.00290224 RMS(Int)=  0.00060727
 Iteration  3 RMS(Cart)=  0.00000307 RMS(Int)=  0.00060726
 Iteration  4 RMS(Cart)=  0.00000000 RMS(Int)=  0.00060726
 Iteration  1 RMS(Cart)=  0.00000000 RMS(Int)=  0.00000000
 ITry= 1 IFail=0 DXMaxC= 1.82D-01 DCOld= 1.00D+10 DXMaxT= 5.05D-01 DXLimC= 3.00D+00 Rises=F
 Variable       Old X    -DE/DX   Delta X   Delta X   Delta X     New X
                                 (Linear)    (Quad)   (Total)
    R1        2.44179  -0.00778  -0.00059  -0.01246  -0.01305   2.42874
    R2        2.95448  -0.00827   0.00053  -0.03227  -0.03174   2.92274
    R3        3.77945   0.02773   0.00000   0.00000   0.00000   3.77945
    R4        2.64562   0.06248   0.00000   0.00000   0.00000   2.64562
    R5        2.07204  -0.00056  -0.00007  -0.00178  -0.00186   2.07018
    R6        2.07565  -0.00284   0.00005  -0.00886  -0.00881   2.06684
    R7        2.06531   0.00257  -0.00019   0.00786   0.00767   2.07297
    R8        2.20463  -0.00346  -0.00026  -0.00313  -0.00339   2.20124
    A1        2.02140   0.00244   0.00140   0.02073   0.02059   2.04200
    A2        1.94385   0.00124  -0.00424   0.00185  -0.00244   1.94141
    A3        1.95279   0.00197   0.00341   0.03044   0.03163   1.98442
    A4        1.80007  -0.00362  -0.00700  -0.03124  -0.03808   1.76199
    A5        1.93985   0.00007   0.00947   0.00742   0.01543   1.95529
    A6        1.78543  -0.00324  -0.00279  -0.04245  -0.04479   1.74064
    A7        1.97160   0.00040  -0.00013   0.00287   0.00272   1.97431
    A8        1.91344  -0.00378   0.00192  -0.02482  -0.02290   1.89053
    A9        1.87147   0.00082  -0.00169   0.00510   0.00340   1.87487
   A10        1.89838   0.00187  -0.00029   0.01173   0.01142   1.90980
   A11        1.91231  -0.00052   0.00022  -0.00215  -0.00195   1.91036
   A12        1.89529   0.00123  -0.00001   0.00732   0.00731   1.90260
   A13        3.03311   0.00502  -0.00385   0.10734   0.10349   3.13661
   A14        3.07384  -0.00269   0.00817  -0.05687  -0.04870   3.02514
    D1       -3.10340   0.00163   0.00760   0.02550   0.03357  -3.06983
    D2       -0.98321   0.00159   0.00848   0.02471   0.03366  -0.94955
    D3        1.07123   0.00148   0.00858   0.02296   0.03201   1.10323
    D4       -0.97558   0.00200  -0.00275   0.01741   0.01480  -0.96078
    D5        1.14461   0.00196  -0.00186   0.01662   0.01490   1.15951
    D6       -3.08413   0.00185  -0.00177   0.01488   0.01324  -3.07089
    D7        0.92598  -0.00343  -0.00481  -0.04333  -0.04875   0.87723
    D8        3.04617  -0.00347  -0.00392  -0.04412  -0.04865   2.99752
    D9       -1.18257  -0.00357  -0.00383  -0.04586  -0.05031  -1.23288
         Item               Value     Threshold  Converged?
 Maximum Force            0.008274     0.000450     NO 
 RMS     Force            0.003211     0.000300     NO 
 Maximum Displacement     0.181866     0.001800     NO 
 RMS     Displacement     0.054877     0.001200     NO 
 Predicted change in Energy=-1.216778D-03
 Lowest energy point so far.  Saving SCF results.
 GradGradGradGradGradGradGradGradGradGradGradGradGradGradGradGradGradGrad

 Leave Link  103 at Wed Jan  8 00:13:20 2020, MaxMem=  4294967296 cpu:              55.5 elap:               3.7
 (Enter /home/cwagen/sw/g16/g16/l202.exe)
                          Input orientation:                          
 ---------------------------------------------------------------------
 Center     Atomic      Atomic             Coordinates (Angstroms)
 Number     Number       Type             X           Y           Z
 ---------------------------------------------------------------------
      1          6           0       -0.070639   -0.386630   -0.234188
      2          8           0       -0.296550   -0.685649   -1.463569
      3          6           0       -0.378233   -1.474779    0.821010
      4          1           0       -0.231142   -1.129666    1.850267
      5          1           0       -1.415139   -1.797178    0.690169
      6          1           0        0.287700   -2.323347    0.621483
      7         17           0       -1.268159    1.091265    0.383690
      8          6           0        1.175858    0.214060   -0.021076
      9          7           0        2.242028    0.675484    0.064007
 ---------------------------------------------------------------------
                    Distance matrix (angstroms):
                    1          2          3          4          5
     1  C    0.000000
     2  O    1.285234   0.000000
     3  C    1.546650   2.418409   0.000000
     4  H    2.218742   3.344090   1.095495   0.000000
     5  H    2.156794   2.669331   1.093726   1.786966   0.000000
     6  H    2.147429   2.714930   1.096971   1.789967   1.783601
     7  Cl   2.000000   2.741134   2.750963   2.856358   2.908373
     8  C    1.400000   2.249055   2.444685   2.699477   3.356220
     9  N    2.562311   3.260452   3.473104   3.544836   4.458813
                    6          7          8          9
     6  H    0.000000
     7  Cl   3.759895   0.000000
     8  C    2.764080   2.628030   0.000000
     9  N    3.622591   3.549152   1.164848   0.000000
 Stoichiometry    C3H3ClNO(1-)
 Framework group  C1[X(C3H3ClNO)]
 Deg. of freedom    21
 Full point group                 C1      NOp   1
 RotChk:  IX=0 Diff= 1.19D-01
 Largest Abelian subgroup         C1      NOp   1
 Largest concise Abelian subgroup C1      NOp   1
                         Standard orientation:                         
 ---------------------------------------------------------------------
 Center     Atomic      Atomic             Coordinates (Angstroms)
 Number     Number       Type             X           Y           Z
 ---------------------------------------------------------------------
      1          6           0        0.145577    0.449312    0.201561
      2          8           0        0.166238    0.916888    1.398545
      3          6           0       -0.121746    1.456666   -0.941199
      4          1           0       -0.196701    0.980972   -1.925174
      5          1           0       -1.052958    1.986588   -0.721509
      6          1           0        0.706375    2.176070   -0.945288
      7         17           0       -1.374587   -0.825355   -0.052062
      8          6           0        1.218782   -0.401526   -0.088796
      9          7           0        2.160813   -1.067772   -0.248678
 ---------------------------------------------------------------------
 Rotational constants (GHZ):           3.5872306           2.5311531           2.0632470
 Leave Link  202 at Wed Jan  8 00:13:20 2020, MaxMem=  4294967296 cpu:               1.3 elap:               0.1
 (Enter /home/cwagen/sw/g16/g16/l301.exe)
 Standard basis: 6-31+G(d) (6D, 7F)
 Ernie: Thresh=  0.10000D-02 Tol=  0.10000D-05 Strict=F.
 There are   124 symmetry adapted cartesian basis functions of A   symmetry.
 There are   124 symmetry adapted basis functions of A   symmetry.
   124 basis functions,   228 primitive gaussians,   124 cartesian basis functions
    27 alpha electrons       27 beta electrons
       nuclear repulsion energy       262.8462235671 Hartrees.
 IExCor=  402 DFT=T Ex+Corr=B3LYP ExCW=0 ScaHFX=  0.200000
 ScaDFX=  0.800000  0.720000  1.000000  0.810000 ScalE2=  1.000000  1.000000
 IRadAn=      5 IRanWt=     -1 IRanGd=            0 ICorTp=0 IEmpDi=  4
 NAtoms=    9 NActive=    9 NUniq=    9 SFac= 1.00D+00 NAtFMM=   60 NAOKFM=F Big=F
 Integral buffers will be    131072 words long.
 Raffenetti 2 integral format.
 Two-electron integral symmetry is turned on.
 ------------------------------------------------------------------------------
 Polarizable Continuum Model (PCM)
 =================================
 Model                : PCM.
 Atomic radii         : SMD-Coulomb.
 Polarization charges : Total charges.
 Charge compensation  : None.
 Solution method      : On-the-fly selection.
 Cavity type          : VdW (van der Waals Surface) (Alpha=1.000).
 Cavity algorithm     : GePol (No added spheres)
                        Default sphere list used, NSphG=    9.
                        Lebedev-Laikov grids with approx.  5.0 points / Ang**2.
                        Smoothing algorithm: York/Karplus (Gamma=1.0000).
                        Polarization charges: spherical gaussians, with
                                              point-specific exponents (IZeta= 3).
                        Self-potential: point-specific (ISelfS= 7).
                        Self-field    : sphere-specific E.n sum rule (ISelfD= 2).
 1st derivatives      : Analytical E(r).r(x)/FMM algorithm (CHGder, D1EAlg=3).
                        Cavity 1st derivative terms included.
 Solvent              : TetraHydroFuran, Eps=   7.425700 Eps(inf)=   1.974025
 ------------------------------------------------------------------------------
 Spheres list:
 ISph  on   Nord     Re0    Alpha      Xe            Ye            Ze
    1   C      1    1.8500  1.000      0.145577      0.449312      0.201561
    2   O      2    2.2940  1.000      0.166238      0.916888      1.398545
    3   C      3    1.8500  1.000     -0.121746      1.456666     -0.941199
    4   H      4    1.2000  1.000     -0.196701      0.980972     -1.925174
    5   H      5    1.2000  1.000     -1.052958      1.986588     -0.721509
    6   H      6    1.2000  1.000      0.706375      2.176070     -0.945288
    7  Cl      7    2.3800  1.000     -1.374587     -0.825355     -0.052062
    8   C      8    1.8500  1.000      1.218782     -0.401526     -0.088796
    9   N      9    1.8900  1.000      2.160813     -1.067772     -0.248678
 ------------------------------------------------------------------------------
 GePol: Number of generator spheres                  =       9
 GePol: Total number of spheres                      =       9
 GePol: Number of exposed spheres                    =       9 (100.00%)
 GePol: Number of points                             =    1110
 GePol: Average weight of points                     =       0.14
 GePol: Minimum weight of points                     =   0.63D-08
 GePol: Maximum weight of points                     =    0.18138
 GePol: Number of points with low weight             =      37
 GePol: Fraction of low-weight points (<1% of avg)   =       3.33%
 GePol: Cavity surface area                          =    150.881 Ang**2
 GePol: Cavity volume                                =    139.418 Ang**3
 ------------------------------------------------------------------------------
 Atomic radii for non-electrostatic terms: SMD-CDS.
 ------------------------------------------------------------------------------
 PCM non-electrostatic energy =        -0.0010976055 Hartrees.
 Nuclear repulsion after PCM non-electrostatic terms =      262.8451259616 Hartrees.
 Leave Link  301 at Wed Jan  8 00:13:20 2020, MaxMem=  4294967296 cpu:               2.6 elap:               0.2
[...]
      4        1          -0.000017029    0.000027180   -0.000009541
      5        1           0.000001847    0.000009167    0.000009787
      6        1           0.000001744    0.000007295    0.000016313
      7       17          -0.020629873    0.025884952    0.010741359
      8        6           0.057931723    0.028457419    0.009893376
      9        7          -0.000006516   -0.000010428    0.000002390
 -------------------------------------------------------------------
 Cartesian Forces:  Max     0.057931723 RMS     0.019480959
 Leave Link  716 at Wed Jan  8 00:16:19 2020, MaxMem=  4294967296 cpu:               1.0 elap:               0.1
 (Enter /home/cwagen/sw/g16/g16/l103.exe)

 GradGradGradGradGradGradGradGradGradGradGradGradGradGradGradGradGradGrad
 Berny optimization.
 Using GEDIIS/GDIIS optimizer.
 FormGI is forming the generalized inverse of G from B-inverse, IUseBI=4.
 Internal  Forces:  Max     0.065287179 RMS     0.013288318
 Search for a local minimum.
 Step number   7 out of a maximum of   41
 All quantities printed in internal units (Hartrees-Bohrs-Radians)
 RMS Force = .10853D-04 SwitMx=.10000D-02 MixMth= 2
 Mixed Optimization -- En-DIIS/RFO-DIIS
 Swapping is turned off.
 Update second derivatives using D2CorX and points    1    2    3    4    5
                                                      6    7
 DE= -3.85D-08 DEPred=-1.12D-07 R= 3.42D-01
 Trust test= 3.42D-01 RLast= 4.85D-03 DXMaxT set to 5.32D-01
 ITU=  0  1  1  1  1  1  0
     Eigenvalues ---    0.00285   0.05324   0.05986   0.06006   0.07205
     Eigenvalues ---    0.08810   0.09620   0.15296   0.16063   0.16555
     Eigenvalues ---    0.18658   0.25339   0.25587   0.28924   0.34042
     Eigenvalues ---    0.34202   0.34477   0.60047   1.221191000.00000
     Eigenvalues --- 1000.000001000.000001000.000001000.000001000.00000
     Eigenvalues --- 1000.000001000.000001000.000001000.000001000.00000
     Eigenvalues --- 1000.00000
 En-DIIS/RFO-DIIS/Sim-DIIS IScMMF=       -3 using points:     7    6    5    4
 RFO step:  Lambda=-5.49701531D-06.
 NNeg= 0 NGDIIS= 4 SimSw=  2.50D-01 Rises=F DC= -3.85D-08 SmlDif=  1.00D-05
 NRisDI= 0 DoIntr=F SqrtH=F CThrHd= 10.0 CDAdj=  3.0
 RMS Error=  0.3146188746D-03 NUsed= 4 OKEnD=F EnDIS=F
 InvSVX:  RCond= 1.15D-06 Info=           0 Equed=N FErr=  2.61D-15 BErr=  4.25D-17
 DidBck=T Rises=F RFO-DIIS coefs:    0.68581    0.33289   -0.01849   -0.00021
 Iteration  1 RMS(Cart)=  0.00030143 RMS(Int)=  0.00000006
 Iteration  2 RMS(Cart)=  0.00000006 RMS(Int)=  0.00000001
 Iteration  1 RMS(Cart)=  0.00000000 RMS(Int)=  0.00000000
 ITry= 1 IFail=0 DXMaxC= 7.22D-04 DCOld= 1.00D+10 DXMaxT= 5.32D-01 DXLimC= 3.00D+00 Rises=F
 Variable       Old X    -DE/DX   Delta X   Delta X   Delta X     New X
                                 (Linear)    (Quad)   (Total)
    R1        2.41894  -0.00004   0.00006  -0.00014  -0.00008   2.41885
    R2        2.92137   0.00002  -0.00002   0.00011   0.00008   2.92145
    R3        3.77945   0.03481   0.00000   0.00000   0.00000   3.77945
    R4        2.64562   0.06529   0.00000   0.00000   0.00000   2.64562
    R5        2.06896  -0.00001  -0.00001  -0.00002  -0.00003   2.06894
    R6        2.06729  -0.00001   0.00002  -0.00005  -0.00003   2.06727
    R7        2.07464   0.00000  -0.00002   0.00003   0.00001   2.07465
    R8        2.20168  -0.00001   0.00001  -0.00003  -0.00001   2.20167
    A1        2.04222   0.00001  -0.00008   0.00013   0.00006   2.04228
    A2        1.94864   0.00000   0.00000  -0.00001  -0.00002   1.94862
    A3        1.98435   0.00000  -0.00010   0.00019   0.00009   1.98444
    A4        1.77196  -0.00001   0.00001  -0.00007  -0.00006   1.77190
    A5        1.95178   0.00000   0.00016  -0.00022  -0.00007   1.95171
    A6        1.72625   0.00000   0.00005  -0.00009  -0.00004   1.72621
    A7        1.97562  -0.00002  -0.00005  -0.00004  -0.00009   1.97553
    A8        1.89154   0.00001   0.00007  -0.00004   0.00003   1.89157
    A9        1.88306  -0.00001   0.00000  -0.00003  -0.00003   1.88302
   A10        1.91200   0.00000   0.00002  -0.00004  -0.00002   1.91198
   A11        1.90264   0.00001  -0.00003   0.00009   0.00006   1.90270
   A12        1.89745   0.00000  -0.00001   0.00007   0.00006   1.89751
   A13        3.09062   0.00000   0.00007  -0.00011  -0.00004   3.09058
   A14        3.02815   0.00001  -0.00027   0.00039   0.00012   3.02827
    D1       -3.07532   0.00001   0.00047   0.00016   0.00064  -3.07469
    D2       -0.95068   0.00000   0.00051   0.00006   0.00057  -0.95011
    D3        1.10098   0.00001   0.00054   0.00010   0.00064   1.10162
    D4       -0.94999   0.00000   0.00043   0.00018   0.00061  -0.94939
    D5        1.17465   0.00000   0.00047   0.00007   0.00054   1.17519
    D6       -3.05687   0.00000   0.00050   0.00012   0.00061  -3.05626
    D7        0.87544   0.00000   0.00054  -0.00002   0.00052   0.87596
    D8        3.00008  -0.00001   0.00058  -0.00013   0.00045   3.00054
    D9       -1.23144   0.00000   0.00060  -0.00008   0.00052  -1.23092
         Item               Value     Threshold  Converged?
 Maximum Force            0.000038     0.000450     YES
 RMS     Force            0.000011     0.000300     YES
 Maximum Displacement     0.000722     0.001800     YES
 RMS     Displacement     0.000301     0.001200     YES
 Predicted change in Energy=-1.153457D-08
 Optimization completed.
    -- Stationary point found.
                           ----------------------------
                           !   Optimized Parameters   !
                           ! (Angstroms and Degrees)  !
 --------------------------                            --------------------------
 ! Name  Definition              Value          Derivative Info.                !
 --------------------------------------------------------------------------------
 ! R1    R(1,2)                  1.28           -DE/DX =    0.0                 !
 ! R2    R(1,3)                  1.5459         -DE/DX =    0.0                 !
 ! R3    R(1,7)                  2.0            -DE/DX =    0.0348              !
 ! R4    R(1,8)                  1.4            -DE/DX =    0.0653              !
 ! R5    R(3,4)                  1.0948         -DE/DX =    0.0                 !
 ! R6    R(3,5)                  1.094          -DE/DX =    0.0                 !
 ! R7    R(3,6)                  1.0979         -DE/DX =    0.0                 !
 ! R8    R(8,9)                  1.1651         -DE/DX =    0.0                 !
 ! A1    A(2,1,3)              117.0106         -DE/DX =    0.0                 !
 ! A2    A(2,1,7)              111.6486         -DE/DX =    0.0                 !
 ! A3    A(2,1,8)              113.6948         -DE/DX =    0.0                 !
 ! A4    A(3,1,7)              101.5256         -DE/DX =    0.0                 !
 ! A5    A(3,1,8)              111.8289         -DE/DX =    0.0                 !
 ! A6    A(7,1,8)               98.9067         -DE/DX =    0.0                 !
 ! A7    A(1,3,4)              113.1948         -DE/DX =    0.0                 !
 ! A8    A(1,3,5)              108.377          -DE/DX =    0.0                 !
 ! A9    A(1,3,6)              107.8912         -DE/DX =    0.0                 !
 ! A10   A(4,3,5)              109.5495         -DE/DX =    0.0                 !
 ! A11   A(4,3,6)              109.0134         -DE/DX =    0.0                 !
 ! A12   A(5,3,6)              108.716          -DE/DX =    0.0                 !
 ! A13   L(1,8,9,6,-1)         177.0794         -DE/DX =    0.0                 !
 ! A14   L(1,8,9,6,-2)         173.5002         -DE/DX =    0.0                 !
 ! D1    D(2,1,3,4)           -176.2031         -DE/DX =    0.0                 !
 ! D2    D(2,1,3,5)            -54.4702         -DE/DX =    0.0                 !
 ! D3    D(2,1,3,6)             63.0814         -DE/DX =    0.0                 !
 ! D4    D(7,1,3,4)            -54.4305         -DE/DX =    0.0                 !
 ! D5    D(7,1,3,5)             67.3024         -DE/DX =    0.0                 !
 ! D6    D(7,1,3,6)           -175.146          -DE/DX =    0.0                 !
 ! D7    D(8,1,3,4)             50.1593         -DE/DX =    0.0                 !
 ! D8    D(8,1,3,5)            171.8922         -DE/DX =    0.0                 !
 ! D9    D(8,1,3,6)            -70.5562         -DE/DX =    0.0                 !
 --------------------------------------------------------------------------------
 Lowest energy point so far.  Saving SCF results.
 Largest change from initial coordinates is atom    6       0.282 Angstoms.
 GradGradGradGradGradGradGradGradGradGradGradGradGradGradGradGradGradGrad

 Leave Link  103 at Wed Jan  8 00:16:22 2020, MaxMem=  4294967296 cpu:              38.6 elap:               2.6
 (Enter /home/cwagen/sw/g16/g16/l202.exe)
                          Input orientation:                          
 ---------------------------------------------------------------------
 Center     Atomic      Atomic             Coordinates (Angstroms)
 Number     Number       Type             X           Y           Z
 ---------------------------------------------------------------------
      1          6           0       -0.080359   -0.383574   -0.238889
      2          8           0       -0.302249   -0.686420   -1.462640
      3          6           0       -0.373900   -1.472685    0.818248
      4          1           0       -0.225691   -1.126761    1.846383
      5          1           0       -1.407312   -1.807982    0.690214
      6          1           0        0.297660   -2.319519    0.625489
      7         17           0       -1.265844    1.103665    0.379776
      8          6           0        1.161645    0.226641   -0.026608
      9          7           0        2.241775    0.650194    0.079821
 ---------------------------------------------------------------------
                    Distance matrix (angstroms):
                    1          2          3          4          5
     1  C    0.000000
     2  O    1.280046   0.000000
     3  C    1.545920   2.413669   0.000000
     4  H    2.218515   3.339071   1.094848   0.000000
     5  H    2.157076   2.667179   1.093964   1.788020   0.000000
     6  H    2.153586   2.717938   1.097852   1.785260   1.781233
     7  Cl   2.000000   2.743614   2.761413   2.864900   2.931565
     8  C    1.400000   2.244739   2.441186   2.695273   3.354559
     9  N    2.561750   3.261561   3.448717   3.516632   4.441964
                    6          7          8          9
     6  H    0.000000
     7  Cl   3.771354   0.000000
     8  C    2.766701   2.612857   0.000000
     9  N    3.591175   3.549507   1.165078   0.000000
 Stoichiometry    C3H3ClNO(1-)
 Framework group  C1[X(C3H3ClNO)]
 Deg. of freedom    21
 Full point group                 C1      NOp   1
 RotChk:  IX=0 Diff= 8.34D-16
 Largest Abelian subgroup         C1      NOp   1
 Largest concise Abelian subgroup C1      NOp   1
                         Standard orientation:                         
 ---------------------------------------------------------------------
 Center     Atomic      Atomic             Coordinates (Angstroms)
 Number     Number       Type             X           Y           Z
 ---------------------------------------------------------------------
      1          6           0        0.147208    0.448083    0.206455
      2          8           0        0.171521    0.921871    1.395341
      3          6           0       -0.071955    1.454731   -0.946149
      4          1           0       -0.147808    0.976250   -1.927981
      5          1           0       -0.986825    2.018782   -0.742150
      6          1           0        0.777064    2.150727   -0.952087
      7         17           0       -1.390560   -0.803073   -0.057892
      8          6           0        1.196526   -0.437138   -0.067982
      9          7           0        2.142035   -1.094649   -0.244326
 ---------------------------------------------------------------------
 Rotational constants (GHZ):           3.5872964           2.5361541           2.0663815
 Leave Link  202 at Wed Jan  8 00:16:22 2020, MaxMem=  4294967296 cpu:               1.3 elap:               0.1
 (Enter /home/cwagen/sw/g16/g16/l601.exe)
 Copying SCF densities to generalized density rwf, IOpCl= 0 IROHF=0.

 **********************************************************************

            Population analysis using the SCF density.

 **********************************************************************

 Orbital symmetries:
       Occupied  (A) (A) (A) (A) (A) (A) (A) (A) (A) (A) (A) (A)
                 (A) (A) (A) (A) (A) (A) (A) (A) (A) (A) (A) (A)
                 (A) (A) (A)
       Virtual   (A) (A) (A) (A) (A) (A) (A) (A) (A) (A) (A) (A)
                 (A) (A) (A) (A) (A) (A) (A) (A) (A) (A) (A) (A)
                 (A) (A) (A) (A) (A) (A) (A) (A) (A) (A) (A) (A)
                 (A) (A) (A) (A) (A) (A) (A) (A) (A) (A) (A) (A)
                 (A) (A) (A) (A) (A) (A) (A) (A) (A) (A) (A) (A)
                 (A) (A) (A) (A) (A) (A) (A) (A) (A) (A) (A) (A)
                 (A) (A) (A) (A) (A) (A) (A) (A) (A) (A) (A) (A)
                 (A) (A) (A) (A) (A) (A) (A) (A) (A) (A) (A) (A)
                 (A)
 The electronic state is 1-A.
 Alpha  occ. eigenvalues -- -101.47121 -19.07144 -14.32438 -10.27182 -10.21442
 Alpha  occ. eigenvalues --  -10.16073  -9.38828  -7.14959  -7.14382  -7.14356
 Alpha  occ. eigenvalues --   -0.97405  -0.89000  -0.77004  -0.70541  -0.63313
 Alpha  occ. eigenvalues --   -0.45312  -0.42586  -0.40457  -0.37277  -0.36117
 Alpha  occ. eigenvalues --   -0.35529  -0.31698  -0.31554  -0.26130  -0.25715
 Alpha  occ. eigenvalues --   -0.21980  -0.20836
 Alpha virt. eigenvalues --   -0.00230   0.02688   0.04028   0.04967   0.05939
 Alpha virt. eigenvalues --    0.07250   0.07700   0.09188   0.09789   0.10234
 Alpha virt. eigenvalues --    0.10590   0.11539   0.13639   0.13954   0.14571
 Alpha virt. eigenvalues --    0.14992   0.16659   0.18187   0.20557   0.23062
 Alpha virt. eigenvalues --    0.25130   0.25878   0.26238   0.26891   0.28572
 Alpha virt. eigenvalues --    0.29626   0.30931   0.33030   0.35956   0.37346
 Alpha virt. eigenvalues --    0.39392   0.39894   0.44969   0.57881   0.60327
 Alpha virt. eigenvalues --    0.66512   0.67153   0.68514   0.69252   0.69787
 Alpha virt. eigenvalues --    0.72900   0.76716   0.79178   0.80104   0.84507
 Alpha virt. eigenvalues --    0.87035   0.88344   0.95574   0.96171   0.97101
 Alpha virt. eigenvalues --    0.99910   1.01639   1.04070   1.07036   1.08112
 Alpha virt. eigenvalues --    1.11032   1.12233   1.16978   1.20420   1.28384
 Alpha virt. eigenvalues --    1.34045   1.35847   1.38789   1.46321   1.48706
 Alpha virt. eigenvalues --    1.55533   1.57724   1.58992   1.70581   1.74301
 Alpha virt. eigenvalues --    1.79580   1.85551   1.88473   1.94749   1.97507
 Alpha virt. eigenvalues --    2.00416   2.01276   2.08437   2.09245   2.25202
 Alpha virt. eigenvalues --    2.27427   2.31525   2.34477   2.45772   2.53084
 Alpha virt. eigenvalues --    2.73912   2.89063   2.93019   3.01208   3.13888
 Alpha virt. eigenvalues --    3.33723   4.19011   4.26984   4.37143   4.39419
 Alpha virt. eigenvalues --    4.43636   4.81002
          Condensed to atoms (all electrons):
               1          2          3          4          5          6
     1  C    7.378523   0.668847   0.395774  -0.097907  -0.072505  -0.044413
     2  O    0.668847   8.477639  -0.210592   0.010256  -0.002045  -0.004123
     3  C    0.395774  -0.210592   5.766048   0.362325   0.399209   0.373389
     4  H   -0.097907   0.010256   0.362325   0.505225  -0.025440  -0.029997
     5  H   -0.072505  -0.002045   0.399209  -0.025440   0.474046  -0.024316
     6  H   -0.044413  -0.004123   0.373389  -0.029997  -0.024316   0.500597
     7  Cl  -0.278403  -0.136755  -0.187883   0.010227  -0.004537   0.010884
     8  C   -1.899901  -0.227105  -0.276069   0.044675   0.021986  -0.002857
     9  N   -0.004949  -0.025799  -0.032040   0.000138   0.000548  -0.001397
               7          8          9
     1  C   -0.278403  -1.899901  -0.004949
     2  O   -0.136755  -0.227105  -0.025799
     3  C   -0.187883  -0.276069  -0.032040
     4  H    0.010227   0.044675   0.000138
     5  H   -0.004537   0.021986   0.000548
     6  H    0.010884  -0.002857  -0.001397
     7  Cl  17.754200   0.196894  -0.031937
     8  C    0.196894   7.190588   0.451088
     9  N   -0.031937   0.451088   7.302598
 Mulliken charges:
               1
     1  C   -0.045066
     2  O   -0.550323
     3  C   -0.590160
     4  H    0.220499
     5  H    0.233055
     6  H    0.222234
     7  Cl  -0.332691
     8  C    0.500702
     9  N   -0.658250
 Sum of Mulliken charges =  -1.00000
 Mulliken charges with hydrogens summed into heavy atoms:
               1
     1  C   -0.045066
     2  O   -0.550323
     3  C    0.085628
     7  Cl  -0.332691
     8  C    0.500702
     9  N   -0.658250
 Electronic spatial extent (au):  <R**2>=            669.1916
 Charge=             -1.0000 electrons
 Dipole moment (field-independent basis, Debye):
    X=             -0.9373    Y=              2.4076    Z=             -3.6613  Tot=              4.4811
 Quadrupole moment (field-independent basis, Debye-Ang):
   XX=            -60.1282   YY=            -51.7426   ZZ=            -51.8395
   XY=              2.5800   XZ=              0.3577   YZ=             -5.4707
 Traceless Quadrupole moment (field-independent basis, Debye-Ang):
   XX=             -5.5581   YY=              2.8275   ZZ=              2.7306
   XY=              2.5800   XZ=              0.3577   YZ=             -5.4707
 Octapole moment (field-independent basis, Debye-Ang**2):
  XXX=            -23.4690  YYY=              6.7216  ZZZ=             -8.8710  XYY=             -7.0217
  XXY=             19.2375  XXZ=              3.9230  XZZ=             -2.4163  YZZ=             -5.0292
  YYZ=             -3.0047  XYZ=             -2.4190
 Hexadecapole moment (field-independent basis, Debye-Ang**3):
 XXXX=           -528.8376 YYYY=           -326.7945 ZZZZ=           -201.5981 XXXY=             35.8154
 XXXZ=              8.6175 YYYX=             12.6051 YYYZ=             -6.2715 ZZZX=             -0.5789
 ZZZY=             -7.1104 XXYY=           -145.7539 XXZZ=           -110.9668 YYZZ=            -92.9023
 XXYZ=             -5.1963 YYXZ=              1.8164 ZZXY=              0.7017
 N-N= 2.630218505322D+02 E-N=-2.204977384987D+03  KE= 7.029250621936D+02
 No NMR shielding tensors so no spin-rotation constants.
 Leave Link  601 at Wed Jan  8 00:16:23 2020, MaxMem=  4294967296 cpu:              12.0 elap:               0.8
 (Enter /home/cwagen/sw/g16/g16/l9999.exe)
 1\1\GINC-NODE028\FOpt\RB3LYP\6-31+G(d)\C3H3Cl1N1O1(1-)\CWAGEN\08-Jan-2
 020\0\\#p opt=modredundant b3lyp/6-31+g(d) scrf=(smd, solvent=tetrahyd
 rofuran)\\title\\-1,1\C,-0.0803594813,-0.3835735783,-0.2388891253\O,-0
 .3022493657,-0.6864197557,-1.4626398777\C,-0.3739001081,-1.4726848473,
 0.8182480493\H,-0.225690771,-1.1267606694,1.8463833629\H,-1.4073116035
 ,-1.8079820808,0.6902144644\H,0.2976604661,-2.3195194644,0.6254886578\
 Cl,-1.2658441578,1.1036651644,0.379776368\C,1.1616447509,0.2266414548,
 -0.0266083898\N,2.2417750705,0.6501943166,0.0798210204\\Version=AS64L-
 G16RevA.03\State=1-A\HF=-706.4238282\RMSD=4.283e-09\RMSF=1.948e-02\Dip
 ole=-0.3910585,-1.04049,1.3684282\Quadrupole=-4.8312225,3.6556614,1.17
 55611,-0.812061,-0.4397663,-3.6339302\PG=C01 [X(C3H3Cl1N1O1)]\\@


 The number of Unix installations has grown to 10,
  with more expected.
                  -- The Unix Programmer's Manual,
                     2nd Edition, June, 1972.
 Job cpu time:       0 days  1 hours  6 minutes 46.7 seconds.
 Elapsed time:       0 days  0 hours  4 minutes 42.7 seconds.
 File lengths (MBytes):  RWF=     32 Int=      0 D2E=      0 Chk=      4 Scr=      1
 Normal termination of Gaussian 16 at Wed Jan  8 00:16:23 2020.
