 Entering Gaussian System, Link 0=g16
 Input=scan_150_220.gjf
 Output=scan_150_220.out
 Initial command:
 /home/cwagen/sw/g16/g16/l1.exe "/scratch/users/cwagen/cwagen_scan_150_220/Gau-36208.inp" -scrdir="/scratch/users/cwagen/cwagen_scan_150_220/"
 Entering Link 1 = /home/cwagen/sw/g16/g16/l1.exe PID=     36209.
  
 Copyright (c) 1988,1990,1992,1993,1995,1998,2003,2009,2016,
            Gaussian, Inc.  All Rights Reserved.
  
 This is part of the Gaussian(R) 16 program.  It is based on
 the Gaussian(R) 09 system (copyright 2009, Gaussian, Inc.),
 the Gaussian(R) 03 system (copyright 2003, Gaussian, Inc.),
 the Gaussian(R) 98 system (copyright 1998, Gaussian, Inc.),
 the Gaussian(R) 94 system (copyright 1995, Gaussian, Inc.),
 the Gaussian 92(TM) system (copyright 1992, Gaussian, Inc.),
 the Gaussian 90(TM) system (copyright 1990, Gaussian, Inc.),
 the Gaussian 88(TM) system (copyright 1988, Gaussian, Inc.),
 the Gaussian 86(TM) system (copyright 1986, Carnegie Mellon
 University), and the Gaussian 82(TM) system (copyright 1983,
 Carnegie Mellon University). Gaussian is a federally registered
 trademark of Gaussian, Inc.
  
 This software contains proprietary and confidential information,
 including trade secrets, belonging to Gaussian, Inc.
  
 This software is provided under written license and may be
 used, copied, transmitted, or stored only in accord with that
 written license.
  
 The following legend is applicable only to US Government
 contracts under FAR:
  
                    RESTRICTED RIGHTS LEGEND
  
 Use, reproduction and disclosure by the US Government is
 subject to restrictions as set forth in subparagraphs (a)
 and (c) of the Commercial Computer Software - Restricted
 Rights clause in FAR 52.227-19.
  
 Gaussian, Inc.
 340 Quinnipiac St., Bldg. 40, Wallingford CT 06492
  
  
 ---------------------------------------------------------------
 Warning -- This program may not be used in any manner that
 competes with the business of Gaussian, Inc. or will provide
 assistance to any competitor of Gaussian, Inc.  The licensee
 of this program is prohibited from giving any competitor of
 Gaussian, Inc. access to this program.  By using this program,
 the user acknowledges that Gaussian, Inc. is engaged in the
 business of creating and licensing software in the field of
 computational chemistry and represents and warrants to the
 licensee that it is not a competitor of Gaussian, Inc. and that
 it will not use this program in any manner prohibited above.
 ---------------------------------------------------------------
  

 Cite this work as:
 Gaussian 16, Revision A.03,
 M. J. Frisch, G. W. Trucks, H. B. Schlegel, G. E. Scuseria, 
 M. A. Robb, J. R. Cheeseman, G. Scalmani, V. Barone, 
 G. A. Petersson, H. Nakatsuji, X. Li, M. Caricato, A. V. Marenich, 
 J. Bloino, B. G. Janesko, R. Gomperts, B. Mennucci, H. P. Hratchian, 
 J. V. Ortiz, A. F. Izmaylov, J. L. Sonnenberg, D. Williams-Young, 
 F. Ding, F. Lipparini, F. Egidi, J. Goings, B. Peng, A. Petrone, 
 T. Henderson, D. Ranasinghe, V. G. Zakrzewski, J. Gao, N. Rega, 
 G. Zheng, W. Liang, M. Hada, M. Ehara, K. Toyota, R. Fukuda, 
 J. Hasegawa, M. Ishida, T. Nakajima, Y. Honda, O. Kitao, H. Nakai, 
 T. Vreven, K. Throssell, J. A. Montgomery, Jr., J. E. Peralta, 
 F. Ogliaro, M. J. Bearpark, J. J. Heyd, E. N. Brothers, K. N. Kudin, 
 V. N. Staroverov, T. A. Keith, R. Kobayashi, J. Normand, 
 K. Raghavachari, A. P. Rendell, J. C. Burant, S. S. Iyengar, 
 J. Tomasi, M. Cossi, J. M. Millam, M. Klene, C. Adamo, R. Cammi, 
 J. W. Ochterski, R. L. Martin, K. Morokuma, O. Farkas, 
 J. B. Foresman, and D. J. Fox, Gaussian, Inc., Wallingford CT, 2016.
 
 ******************************************
 Gaussian 16:  AS64L-G16RevA.03 25-Dec-2016
                 7-Jan-2020 
 ******************************************
 %nprocshared=16
 Will use up to   16 processors via shared memory.
 %mem=32GB
 ----------------------------------------------------------------------
 #p opt=modredundant b3lyp/6-31+g(d) scrf=(smd, solvent=tetrahydrofuran
 )
 ----------------------------------------------------------------------
 1/18=120,19=15,26=3,38=1/1,3;
 2/9=110,12=2,17=6,18=5,40=1/2;
 3/5=1,6=6,7=11,11=2,25=1,30=1,70=32201,71=1,72=20,74=-5/1,2,3;
 4//1;
 5/5=2,38=5,53=20/2;
 6/7=2,8=2,9=2,10=2,28=1/1;
 7//1,2,3,16;
 1/18=20,19=15,26=3/3(2);
 2/9=110/2;
 99//99;
 2/9=110/2;
 3/5=1,6=6,7=11,11=2,25=1,30=1,70=32205,71=1,72=20,74=-5/1,2,3;
 4/5=5,16=3,69=1/1;
 5/5=2,38=5,53=20/2;
 7//1,2,3,16;
 1/18=20,19=15,26=3/3(-5);
 2/9=110/2;
 6/7=2,8=2,9=2,10=2,19=2,28=1/1;
 99/9=1/99;
 Leave Link    1 at Tue Jan  7 22:44:38 2020, MaxMem=  4294967296 cpu:               1.6 elap:               0.1
 (Enter /home/cwagen/sw/g16/g16/l101.exe)
 -----
 title
 -----
 Symbolic Z-matrix:
 Charge = -1 Multiplicity = 1
 6                    -0.19426  -0.292    -0.21291 
 8                    -0.25532  -0.66526  -1.45426 
 6                    -0.33095  -1.45422   0.81632 
 1                    -0.18039  -1.13044   1.85373 
 1                    -1.34067  -1.87301   0.71427 
 1                     0.39707  -2.23395   0.57058 
 17                   -1.09237   0.84733   0.16832 
 6                     1.84541   0.42224   0.19894 
 7                     2.97998   0.70254   0.22924 
 
 Add virtual bond connecting atoms C8         and C1         Dist= 4.16D+00.
 The following ModRedundant input section has been read:
 B       1       7 F                                                           
 B       1       8 F                                                           
 
 ITRead=  0  0  0  0  0  0  0  0  0
 MicOpt= -1 -1 -1 -1 -1 -1 -1 -1 -1
 NAtoms=      9 NQM=        9 NQMF=       0 NMMI=      0 NMMIF=      0
                NMic=       0 NMicF=      0.
                    Isotopes and Nuclear Properties:
 (Nuclear quadrupole moments (NQMom) in fm**2, nuclear magnetic moments (NMagM)
  in nuclear magnetons)

  Atom         1           2           3           4           5           6           7           8           9
 IAtWgt=          12          16          12           1           1           1          35          12          14
 AtmWgt=  12.0000000  15.9949146  12.0000000   1.0078250   1.0078250   1.0078250  34.9688527  12.0000000  14.0030740
 NucSpn=           0           0           0           1           1           1           3           0           2
 AtZEff=   0.0000000   0.0000000   0.0000000   0.0000000   0.0000000   0.0000000   0.0000000   0.0000000   0.0000000
 NQMom=    0.0000000   0.0000000   0.0000000   0.0000000   0.0000000   0.0000000  -8.1650000   0.0000000   2.0440000
 NMagM=    0.0000000   0.0000000   0.0000000   2.7928460   2.7928460   2.7928460   0.8218740   0.0000000   0.4037610
 AtZNuc=   6.0000000   8.0000000   6.0000000   1.0000000   1.0000000   1.0000000  17.0000000   6.0000000   7.0000000
 Leave Link  101 at Tue Jan  7 22:44:39 2020, MaxMem=  4294967296 cpu:               7.7 elap:               0.6
 (Enter /home/cwagen/sw/g16/g16/l103.exe)

 GradGradGradGradGradGradGradGradGradGradGradGradGradGradGradGradGradGrad
 Berny optimization.
 Initialization pass.
                           ----------------------------
                           !    Initial Parameters    !
                           ! (Angstroms and Degrees)  !
 --------------------------                            --------------------------
 ! Name  Definition              Value          Derivative Info.                !
 --------------------------------------------------------------------------------
 ! R1    R(1,2)                  1.2977         estimate D2E/DX2                !
 ! R2    R(1,3)                  1.5584         estimate D2E/DX2                !
 ! R3    R(1,7)                  1.5            Frozen                          !
 ! R4    R(1,8)                  2.2            Frozen                          !
 ! R5    R(3,4)                  1.0971         estimate D2E/DX2                !
 ! R6    R(3,5)                  1.0979         estimate D2E/DX2                !
 ! R7    R(3,6)                  1.0947         estimate D2E/DX2                !
 ! R8    R(8,9)                  1.1691         estimate D2E/DX2                !
 ! A1    A(2,1,3)              114.4006         estimate D2E/DX2                !
 ! A2    A(2,1,7)              115.6846         estimate D2E/DX2                !
 ! A3    A(2,1,8)              108.426          estimate D2E/DX2                !
 ! A4    A(3,1,7)              110.248          estimate D2E/DX2                !
 ! A5    A(3,1,8)              101.5248         estimate D2E/DX2                !
 ! A6    A(7,1,8)              105.1256         estimate D2E/DX2                !
 ! A7    A(1,3,4)              113.1005         estimate D2E/DX2                !
 ! A8    A(1,3,5)              107.683          estimate D2E/DX2                !
 ! A9    A(1,3,6)              108.9421         estimate D2E/DX2                !
 ! A10   A(4,3,5)              109.0662         estimate D2E/DX2                !
 ! A11   A(4,3,6)              109.3417         estimate D2E/DX2                !
 ! A12   A(5,3,6)              108.6067         estimate D2E/DX2                !
 ! A13   L(1,8,9,6,-1)         177.3525         estimate D2E/DX2                !
 ! A14   L(1,8,9,6,-2)         165.6964         estimate D2E/DX2                !
 ! D1    D(2,1,3,4)            174.4714         estimate D2E/DX2                !
 ! D2    D(2,1,3,5)            -64.9488         estimate D2E/DX2                !
 ! D3    D(2,1,3,6)             52.6633         estimate D2E/DX2                !
 ! D4    D(7,1,3,4)            -53.1046         estimate D2E/DX2                !
 ! D5    D(7,1,3,5)             67.4752         estimate D2E/DX2                !
 ! D6    D(7,1,3,6)           -174.9127         estimate D2E/DX2                !
 ! D7    D(8,1,3,4)             57.938          estimate D2E/DX2                !
 ! D8    D(8,1,3,5)            178.5177         estimate D2E/DX2                !
 ! D9    D(8,1,3,6)            -63.8702         estimate D2E/DX2                !
 --------------------------------------------------------------------------------
 Trust Radius=3.00D-01 FncErr=1.00D-07 GrdErr=1.00D-06 EigMax=2.50D+02 EigMin=1.00D-04
 Number of steps in this run=     41 maximum allowed number of steps=    100.
 GradGradGradGradGradGradGradGradGradGradGradGradGradGradGradGradGradGrad

 Leave Link  103 at Tue Jan  7 22:44:39 2020, MaxMem=  4294967296 cpu:               0.6 elap:               0.1
 (Enter /home/cwagen/sw/g16/g16/l202.exe)
                          Input orientation:                          
 ---------------------------------------------------------------------
 Center     Atomic      Atomic             Coordinates (Angstroms)
 Number     Number       Type             X           Y           Z
 ---------------------------------------------------------------------
      1          6           0       -0.194263   -0.291999   -0.212908
      2          8           0       -0.255321   -0.665256   -1.454255
      3          6           0       -0.330945   -1.454221    0.816316
      4          1           0       -0.180394   -1.130438    1.853734
      5          1           0       -1.340665   -1.873010    0.714272
      6          1           0        0.397068   -2.233949    0.570583
      7         17           0       -1.092372    0.847328    0.168319
      8          6           0        1.845405    0.422238    0.198941
      9          7           0        2.979976    0.702536    0.229244
 ---------------------------------------------------------------------
                    Distance matrix (angstroms):
                    1          2          3          4          5
     1  C    0.000000
     2  O    1.297687   0.000000
     3  C    1.558443   2.404928   0.000000
     4  H    2.230287   3.341377   1.097150   0.000000
     5  H    2.161827   2.709087   1.097876   1.787740   0.000000
     6  H    2.175937   2.643176   1.094698   1.788205   1.780629
     7  Cl   1.500000   2.370930   2.509343   2.753886   2.785670
     8  C    2.200000   2.885957   2.939175   3.041875   3.960401
     9  N    3.355651   3.895147   3.994803   3.998337   5.053378
                    6          7          8          9
     6  H    0.000000
     7  Cl   3.445942   0.000000
     8  C    3.048135   2.968530   0.000000
     9  N    3.925668   4.075376   1.169075   0.000000
 Stoichiometry    C3H3ClNO(1-)
 Framework group  C1[X(C3H3ClNO)]
 Deg. of freedom    21
 Full point group                 C1      NOp   1
 Largest Abelian subgroup         C1      NOp   1
 Largest concise Abelian subgroup C1      NOp   1
                         Standard orientation:                         
 ---------------------------------------------------------------------
 Center     Atomic      Atomic             Coordinates (Angstroms)
 Number     Number       Type             X           Y           Z
 ---------------------------------------------------------------------
      1          6           0       -0.382048    0.249009    0.213203
      2          8           0       -0.565437    0.581446    1.454108
      3          6           0       -0.640333    1.399040   -0.806336
      4          1           0       -0.387051    1.124666   -1.837987
      5          1           0       -1.706279    1.656875   -0.755209
      6          1           0       -0.054491    2.274978   -0.509883
      7         17           0       -1.073435   -1.005193   -0.232849
      8          6           0        1.761940   -0.137175   -0.093681
      9          7           0        2.926051   -0.240722   -0.064353
 ---------------------------------------------------------------------
 Rotational constants (GHZ):           4.1037485           1.9440601           1.7541018
 Leave Link  202 at Tue Jan  7 22:44:39 2020, MaxMem=  4294967296 cpu:               1.9 elap:               0.2
 (Enter /home/cwagen/sw/g16/g16/l301.exe)
 Standard basis: 6-31+G(d) (6D, 7F)
 Ernie: Thresh=  0.10000D-02 Tol=  0.10000D-05 Strict=F.
 There are   124 symmetry adapted cartesian basis functions of A   symmetry.
 There are   124 symmetry adapted basis functions of A   symmetry.
   124 basis functions,   228 primitive gaussians,   124 cartesian basis functions
    27 alpha electrons       27 beta electrons
       nuclear repulsion energy       259.5457850577 Hartrees.
 IExCor=  402 DFT=T Ex+Corr=B3LYP ExCW=0 ScaHFX=  0.200000
 ScaDFX=  0.800000  0.720000  1.000000  0.810000 ScalE2=  1.000000  1.000000
 IRadAn=      5 IRanWt=     -1 IRanGd=            0 ICorTp=0 IEmpDi=  4
 NAtoms=    9 NActive=    9 NUniq=    9 SFac= 1.00D+00 NAtFMM=   60 NAOKFM=F Big=F
 Integral buffers will be    131072 words long.
 Raffenetti 2 integral format.
 Two-electron integral symmetry is turned on.
 ------------------------------------------------------------------------------
 Polarizable Continuum Model (PCM)
 =================================
 Model                : PCM.
 Atomic radii         : SMD-Coulomb.
 Polarization charges : Total charges.
 Charge compensation  : None.
 Solution method      : On-the-fly selection.
 Cavity type          : VdW (van der Waals Surface) (Alpha=1.000).
 Cavity algorithm     : GePol (No added spheres)
                        Default sphere list used, NSphG=    9.
                        Lebedev-Laikov grids with approx.  5.0 points / Ang**2.
                        Smoothing algorithm: York/Karplus (Gamma=1.0000).
                        Polarization charges: spherical gaussians, with
                                              point-specific exponents (IZeta= 3).
                        Self-potential: point-specific (ISelfS= 7).
                        Self-field    : sphere-specific E.n sum rule (ISelfD= 2).
 1st derivatives      : Analytical E(r).r(x)/FMM algorithm (CHGder, D1EAlg=3).
                        Cavity 1st derivative terms included.
 Solvent              : TetraHydroFuran, Eps=   7.425700 Eps(inf)=   1.974025
 ------------------------------------------------------------------------------
 Spheres list:
 ISph  on   Nord     Re0    Alpha      Xe            Ye            Ze
    1   C      1    1.8500  1.000     -0.382048      0.249009      0.213203
    2   O      2    2.2940  1.000     -0.565437      0.581446      1.454108
    3   C      3    1.8500  1.000     -0.640333      1.399040     -0.806336
    4   H      4    1.2000  1.000     -0.387051      1.124666     -1.837987
    5   H      5    1.2000  1.000     -1.706279      1.656875     -0.755209
    6   H      6    1.2000  1.000     -0.054491      2.274978     -0.509883
    7  Cl      7    2.3800  1.000     -1.073435     -1.005193     -0.232849
    8   C      8    1.8500  1.000      1.761940     -0.137175     -0.093681
    9   N      9    1.8900  1.000      2.926051     -0.240722     -0.064353
 ------------------------------------------------------------------------------
 GePol: Number of generator spheres                  =       9
 GePol: Total number of spheres                      =       9
 GePol: Number of exposed spheres                    =       9 (100.00%)
 GePol: Number of points                             =    1142
 GePol: Average weight of points                     =       0.13
 GePol: Minimum weight of points                     =   0.15D-07
 GePol: Maximum weight of points                     =    0.18138
 GePol: Number of points with low weight             =      32
 GePol: Fraction of low-weight points (<1% of avg)   =       2.80%
 GePol: Cavity surface area                          =    153.537 Ang**2
 GePol: Cavity volume                                =    140.609 Ang**3
 ------------------------------------------------------------------------------
 Atomic radii for non-electrostatic terms: SMD-CDS.
 ------------------------------------------------------------------------------
 PCM non-electrostatic energy =         0.0008135322 Hartrees.
 Nuclear repulsion after PCM non-electrostatic terms =      259.5465985899 Hartrees.
 Leave Link  301 at Tue Jan  7 22:44:40 2020, MaxMem=  4294967296 cpu:               2.4 elap:               0.2
 (Enter /home/cwagen/sw/g16/g16/l302.exe)
 NPDir=0 NMtPBC=     1 NCelOv=     1 NCel=       1 NClECP=     1 NCelD=      1
         NCelK=      1 NCelE2=     1 NClLst=     1 CellRange=     0.0.
 One-electron integrals computed using PRISM.
 One-electron integral symmetry used in STVInt
 NBasis=   124 RedAO= T EigKep=  4.44D-05  NBF=   124
 NBsUse=   124 1.00D-06 EigRej= -1.00D+00 NBFU=   124
 Precomputing XC quadrature grid using
 IXCGrd= 4 IRadAn=           5 IRanWt=          -1 IRanGd=           0 AccXCQ= 0.00D+00.
 Generated NRdTot=       0 NPtTot=           0 NUsed=           0 NTot=          32
 NSgBfM=   124   124   124   124   124 MxSgAt=     9 MxSgA2=     9.
 Leave Link  302 at Tue Jan  7 22:44:42 2020, MaxMem=  4294967296 cpu:              26.9 elap:               2.1
 (Enter /home/cwagen/sw/g16/g16/l303.exe)
 DipDrv:  MaxL=1.
 Leave Link  303 at Tue Jan  7 22:44:42 2020, MaxMem=  4294967296 cpu:               2.9 elap:               0.4
 (Enter /home/cwagen/sw/g16/g16/l401.exe)
 ExpMin= 4.38D-02 ExpMax= 2.52D+04 ExpMxC= 3.78D+03 IAcc=3 IRadAn=         5 AccDes= 0.00D+00
 Harris functional with IExCor=  402 and IRadAn=       5 diagonalized for initial guess.
 HarFok:  IExCor=  402 AccDes= 0.00D+00 IRadAn=         5 IDoV= 1 UseB2=F ITyADJ=14
 ICtDFT=  3500011 ScaDFX=  1.000000  1.000000  1.000000  1.000000
 FoFCou: FMM=F IPFlag=           0 FMFlag=      100000 FMFlg1=           0
         NFxFlg=           0 DoJE=T BraDBF=F KetDBF=T FulRan=T
         wScrn=  0.000000 ICntrl=       500 IOpCl=  0 I1Cent=   200000004 NGrid=           0
         NMat0=    1 NMatS0=      1 NMatT0=    0 NMatD0=    1 NMtDS0=    0 NMtDT0=    0
 Petite list used in FoFCou.
 Harris En= -706.362484685191    
 JPrj=0 DoOrth=F DoCkMO=F.
 Leave Link  401 at Tue Jan  7 22:44:44 2020, MaxMem=  4294967296 cpu:              30.5 elap:               2.4
 (Enter /home/cwagen/sw/g16/g16/l502.exe)
 Keep R1 ints in memory in canonical form, NReq=45236517.
 FoFCou: FMM=F IPFlag=           0 FMFlag=           0 FMFlg1=           0
         NFxFlg=           0 DoJE=F BraDBF=F KetDBF=F FulRan=T
         wScrn=  0.000000 ICntrl=       600 IOpCl=  0 I1Cent=           0 NGrid=           0
         NMat0=    1 NMatS0=   7750 NMatT0=    0 NMatD0=    1 NMtDS0=    0 NMtDT0=    0
 Symmetry not used in FoFCou.
 Two-electron integral symmetry not used.
 Closed shell SCF:
 Using DIIS extrapolation, IDIIS=  1040.
 NGot=  4294967296 LenX=  4264898079 LenY=  4264882262
 Requested convergence on RMS density matrix=1.00D-08 within 128 cycles.
 Requested convergence on MAX density matrix=1.00D-06.
 Requested convergence on             energy=1.00D-06.
 No special actions if energy rises.

 Cycle   1  Pass 1  IDiag  1:
 Inv3:  Mode=1 IEnd=     3912492.
 Iteration    1 A*A^-1 deviation from unit magnitude is 2.44D-15 for   1140.
 Iteration    1 A*A^-1 deviation from orthogonality  is 1.58D-15 for    320     56.
 Iteration    1 A^-1*A deviation from unit magnitude is 3.11D-15 for   1138.
 Iteration    1 A^-1*A deviation from orthogonality  is 1.44D-15 for   1131    897.
 E= -706.073304987564    
 DIIS: error= 3.30D-02 at cycle   1 NSaved=   1.
 NSaved= 1 IEnMin= 1 EnMin= -706.073304987564     IErMin= 1 ErrMin= 3.30D-02
 ErrMax= 3.30D-02  0.00D+00 EMaxC= 1.00D-01 BMatC= 2.76D-01 BMatP= 2.76D-01
 IDIUse=3 WtCom= 6.70D-01 WtEn= 3.30D-01
 Coeff-Com:  0.100D+01
 Coeff-En:   0.100D+01
 Coeff:      0.100D+01
 Gap=     0.336 Goal=   None    Shift=    0.000
 GapD=    0.336 DampG=1.000 DampE=0.500 DampFc=0.5000 IDamp=-1.
 Damping current iteration by 5.00D-01
 RMSDP=8.88D-02 MaxDP=5.09D+00              OVMax= 4.45D-01

 Cycle   2  Pass 1  IDiag  1:
 E= -706.041696446098     Delta-E=        0.031608541465 Rises=F Damp=T
 DIIS: error= 1.82D-02 at cycle   2 NSaved=   2.
 NSaved= 2 IEnMin= 1 EnMin= -706.073304987564     IErMin= 2 ErrMin= 1.82D-02
 ErrMax= 1.82D-02  0.00D+00 EMaxC= 1.00D-01 BMatC= 1.07D-01 BMatP= 2.76D-01
 IDIUse=3 WtCom= 8.18D-01 WtEn= 1.82D-01
 Coeff-Com:  0.358D+00 0.642D+00
 Coeff-En:   0.542D+00 0.458D+00
 Coeff:      0.391D+00 0.609D+00
 Gap=     0.213 Goal=   None    Shift=    0.000
 RMSDP=4.08D-02 MaxDP=2.17D+00 DE= 3.16D-02 OVMax= 3.53D-01

 Cycle   3  Pass 1  IDiag  1:
 E= -706.278853100686     Delta-E=       -0.237156654587 Rises=F Damp=F
 DIIS: error= 1.32D-02 at cycle   3 NSaved=   3.
 NSaved= 3 IEnMin= 3 EnMin= -706.278853100686     IErMin= 3 ErrMin= 1.32D-02
 ErrMax= 1.32D-02  0.00D+00 EMaxC= 1.00D-01 BMatC= 5.57D-02 BMatP= 1.07D-01
 IDIUse=3 WtCom= 8.68D-01 WtEn= 1.32D-01
 Coeff-Com:  0.156D+00 0.412D+00 0.431D+00
 Coeff-En:   0.000D+00 0.000D+00 0.100D+01
 Coeff:      0.136D+00 0.358D+00 0.507D+00
 Gap=     0.227 Goal=   None    Shift=    0.000
 RMSDP=6.11D-03 MaxDP=3.19D-01 DE=-2.37D-01 OVMax= 1.19D-01

 Cycle   4  Pass 1  IDiag  1:
 E= -706.329425876767     Delta-E=       -0.050572776082 Rises=F Damp=F
 DIIS: error= 3.52D-03 at cycle   4 NSaved=   4.
 NSaved= 4 IEnMin= 4 EnMin= -706.329425876767     IErMin= 4 ErrMin= 3.52D-03
 ErrMax= 3.52D-03  0.00D+00 EMaxC= 1.00D-01 BMatC= 4.09D-03 BMatP= 5.57D-02
 IDIUse=3 WtCom= 9.65D-01 WtEn= 3.52D-02
 Coeff-Com: -0.212D-02 0.222D-01 0.222D+00 0.758D+00
 Coeff-En:   0.000D+00 0.000D+00 0.316D-01 0.968D+00
 Coeff:     -0.205D-02 0.214D-01 0.215D+00 0.766D+00
 Gap=     0.204 Goal=   None    Shift=    0.000
 RMSDP=1.13D-03 MaxDP=2.85D-02 DE=-5.06D-02 OVMax= 2.01D-02

 Cycle   5  Pass 1  IDiag  1:
 E= -706.333167871881     Delta-E=       -0.003741995114 Rises=F Damp=F
 DIIS: error= 7.73D-04 at cycle   5 NSaved=   5.
 NSaved= 5 IEnMin= 5 EnMin= -706.333167871881     IErMin= 5 ErrMin= 7.73D-04
 ErrMax= 7.73D-04  0.00D+00 EMaxC= 1.00D-01 BMatC= 8.77D-05 BMatP= 4.09D-03
 IDIUse=3 WtCom= 9.92D-01 WtEn= 7.73D-03
 Coeff-Com: -0.340D-02-0.147D-02 0.795D-01 0.321D+00 0.604D+00
 Coeff-En:   0.000D+00 0.000D+00 0.000D+00 0.000D+00 0.100D+01
 Coeff:     -0.337D-02-0.146D-02 0.789D-01 0.319D+00 0.607D+00
 Gap=     0.204 Goal=   None    Shift=    0.000
 RMSDP=2.54D-04 MaxDP=7.58D-03 DE=-3.74D-03 OVMax= 4.68D-03

 Cycle   6  Pass 1  IDiag  1:
 E= -706.333197829240     Delta-E=       -0.000029957359 Rises=F Damp=F
 DIIS: error= 6.79D-04 at cycle   6 NSaved=   6.
 NSaved= 6 IEnMin= 6 EnMin= -706.333197829240     IErMin= 6 ErrMin= 6.79D-04
 ErrMax= 6.79D-04  0.00D+00 EMaxC= 1.00D-01 BMatC= 5.72D-05 BMatP= 8.77D-05
 IDIUse=3 WtCom= 9.93D-01 WtEn= 6.79D-03
 Coeff-Com: -0.106D-02-0.311D-02 0.253D-01 0.109D+00 0.442D+00 0.427D+00
 Coeff-En:   0.000D+00 0.000D+00 0.000D+00 0.000D+00 0.402D+00 0.598D+00
 Coeff:     -0.105D-02-0.308D-02 0.252D-01 0.109D+00 0.442D+00 0.428D+00
 Gap=     0.204 Goal=   None    Shift=    0.000
 RMSDP=1.10D-04 MaxDP=5.40D-03 DE=-3.00D-05 OVMax= 2.54D-03

 Cycle   7  Pass 1  IDiag  1:
 E= -706.333246164632     Delta-E=       -0.000048335392 Rises=F Damp=F
 DIIS: error= 8.77D-05 at cycle   7 NSaved=   7.
 NSaved= 7 IEnMin= 7 EnMin= -706.333246164632     IErMin= 7 ErrMin= 8.77D-05
 ErrMax= 8.77D-05  0.00D+00 EMaxC= 1.00D-01 BMatC= 2.16D-06 BMatP= 5.72D-05
 IDIUse=1 WtCom= 1.00D+00 WtEn= 0.00D+00
 Coeff-Com:  0.112D-03-0.199D-02 0.509D-02 0.213D-01 0.159D+00 0.210D+00
 Coeff-Com:  0.606D+00
 Coeff:      0.112D-03-0.199D-02 0.509D-02 0.213D-01 0.159D+00 0.210D+00
 Coeff:      0.606D+00
 Gap=     0.204 Goal=   None    Shift=    0.000
 RMSDP=2.31D-05 MaxDP=8.68D-04 DE=-4.83D-05 OVMax= 3.77D-04

 Cycle   8  Pass 1  IDiag  1:
 E= -706.333247979126     Delta-E=       -0.000001814494 Rises=F Damp=F
 DIIS: error= 1.94D-05 at cycle   8 NSaved=   8.
 NSaved= 8 IEnMin= 8 EnMin= -706.333247979126     IErMin= 8 ErrMin= 1.94D-05
 ErrMax= 1.94D-05  0.00D+00 EMaxC= 1.00D-01 BMatC= 1.47D-07 BMatP= 2.16D-06
 IDIUse=1 WtCom= 1.00D+00 WtEn= 0.00D+00
 Coeff-Com:  0.259D-03-0.770D-03 0.318D-03-0.127D-03 0.284D-01 0.459D-01
 Coeff-Com:  0.233D+00 0.693D+00
 Coeff:      0.259D-03-0.770D-03 0.318D-03-0.127D-03 0.284D-01 0.459D-01
 Coeff:      0.233D+00 0.693D+00
 Gap=     0.204 Goal=   None    Shift=    0.000
 RMSDP=1.29D-05 MaxDP=6.00D-04 DE=-1.81D-06 OVMax= 1.59D-04

 Cycle   9  Pass 1  IDiag  1:
 E= -706.333248117739     Delta-E=       -0.000000138613 Rises=F Damp=F
 DIIS: error= 1.04D-05 at cycle   9 NSaved=   9.
 NSaved= 9 IEnMin= 9 EnMin= -706.333248117739     IErMin= 9 ErrMin= 1.04D-05
 ErrMax= 1.04D-05  0.00D+00 EMaxC= 1.00D-01 BMatC= 1.80D-08 BMatP= 1.47D-07
 IDIUse=1 WtCom= 1.00D+00 WtEn= 0.00D+00
 Coeff-Com:  0.139D-03-0.240D-03-0.627D-04-0.130D-02 0.536D-03 0.302D-02
 Coeff-Com:  0.571D-01 0.352D+00 0.588D+00
 Coeff:      0.139D-03-0.240D-03-0.627D-04-0.130D-02 0.536D-03 0.302D-02
 Coeff:      0.571D-01 0.352D+00 0.588D+00
 Gap=     0.204 Goal=   None    Shift=    0.000
 RMSDP=3.25D-06 MaxDP=1.96D-04 DE=-1.39D-07 OVMax= 3.94D-05

 Cycle  10  Pass 1  IDiag  1:
 E= -706.333248136200     Delta-E=       -0.000000018462 Rises=F Damp=F
 DIIS: error= 1.44D-06 at cycle  10 NSaved=  10.
 NSaved=10 IEnMin=10 EnMin= -706.333248136200     IErMin=10 ErrMin= 1.44D-06
 ErrMax= 1.44D-06  0.00D+00 EMaxC= 1.00D-01 BMatC= 6.22D-10 BMatP= 1.80D-08
 IDIUse=1 WtCom= 1.00D+00 WtEn= 0.00D+00
 Coeff-Com:  0.335D-04-0.321D-04-0.574D-04-0.543D-03-0.248D-02-0.342D-02
 Coeff-Com:  0.332D-03 0.719D-01 0.195D+00 0.739D+00
 Coeff:      0.335D-04-0.321D-04-0.574D-04-0.543D-03-0.248D-02-0.342D-02
 Coeff:      0.332D-03 0.719D-01 0.195D+00 0.739D+00
 Gap=     0.204 Goal=   None    Shift=    0.000
 RMSDP=9.96D-07 MaxDP=5.77D-05 DE=-1.85D-08 OVMax= 1.37D-05

 Cycle  11  Pass 1  IDiag  1:
 E= -706.333248136785     Delta-E=       -0.000000000584 Rises=F Damp=F
 DIIS: error= 5.32D-07 at cycle  11 NSaved=  11.
 NSaved=11 IEnMin=11 EnMin= -706.333248136785     IErMin=11 ErrMin= 5.32D-07
 ErrMax= 5.32D-07  0.00D+00 EMaxC= 1.00D-01 BMatC= 1.01D-10 BMatP= 6.22D-10
 IDIUse=1 WtCom= 1.00D+00 WtEn= 0.00D+00
 Coeff-Com:  0.191D-05 0.365D-05 0.598D-05-0.312D-04-0.896D-03-0.164D-02
 Coeff-Com: -0.480D-02 0.142D-02 0.357D-01 0.360D+00 0.610D+00
 Coeff:      0.191D-05 0.365D-05 0.598D-05-0.312D-04-0.896D-03-0.164D-02
 Coeff:     -0.480D-02 0.142D-02 0.357D-01 0.360D+00 0.610D+00
 Gap=     0.204 Goal=   None    Shift=    0.000
 RMSDP=2.25D-07 MaxDP=1.06D-05 DE=-5.84D-10 OVMax= 4.17D-06

 Cycle  12  Pass 1  IDiag  1:
 E= -706.333248136890     Delta-E=       -0.000000000106 Rises=F Damp=F
 DIIS: error= 1.03D-07 at cycle  12 NSaved=  12.
 NSaved=12 IEnMin=12 EnMin= -706.333248136890     IErMin=12 ErrMin= 1.03D-07
 ErrMax= 1.03D-07  0.00D+00 EMaxC= 1.00D-01 BMatC= 3.32D-12 BMatP= 1.01D-10
 IDIUse=1 WtCom= 1.00D+00 WtEn= 0.00D+00
 Coeff-Com: -0.153D-05 0.330D-05 0.296D-05 0.978D-05-0.128D-03-0.309D-03
 Coeff-Com: -0.142D-02-0.408D-02-0.222D-02 0.633D-01 0.198D+00 0.747D+00
 Coeff:     -0.153D-05 0.330D-05 0.296D-05 0.978D-05-0.128D-03-0.309D-03
 Coeff:     -0.142D-02-0.408D-02-0.222D-02 0.633D-01 0.198D+00 0.747D+00
 Gap=     0.204 Goal=   None    Shift=    0.000
 RMSDP=5.13D-08 MaxDP=1.30D-06 DE=-1.06D-10 OVMax= 1.47D-06

 Cycle  13  Pass 1  IDiag  1:
 E= -706.333248136892     Delta-E=       -0.000000000002 Rises=F Damp=F
 DIIS: error= 3.03D-08 at cycle  13 NSaved=  13.
 NSaved=13 IEnMin=13 EnMin= -706.333248136892     IErMin=13 ErrMin= 3.03D-08
 ErrMax= 3.03D-08  0.00D+00 EMaxC= 1.00D-01 BMatC= 1.54D-13 BMatP= 3.32D-12
 IDIUse=1 WtCom= 1.00D+00 WtEn= 0.00D+00
 Coeff-Com: -0.670D-06 0.685D-06 0.101D-06 0.481D-05 0.593D-04 0.905D-04
 Coeff-Com:  0.124D-03-0.125D-02-0.416D-02-0.209D-01-0.139D-01 0.149D+00
 Coeff-Com:  0.891D+00
 Coeff:     -0.670D-06 0.685D-06 0.101D-06 0.481D-05 0.593D-04 0.905D-04
 Coeff:      0.124D-03-0.125D-02-0.416D-02-0.209D-01-0.139D-01 0.149D+00
 Coeff:      0.891D+00
 Gap=     0.204 Goal=   None    Shift=    0.000
 RMSDP=1.58D-08 MaxDP=4.03D-07 DE=-2.05D-12 OVMax= 7.02D-07

 Cycle  14  Pass 1  IDiag  1:
 E= -706.333248136894     Delta-E=       -0.000000000001 Rises=F Damp=F
 DIIS: error= 5.14D-09 at cycle  14 NSaved=  14.
 NSaved=14 IEnMin=14 EnMin= -706.333248136894     IErMin=14 ErrMin= 5.14D-09
 ErrMax= 5.14D-09  0.00D+00 EMaxC= 1.00D-01 BMatC= 8.64D-15 BMatP= 1.54D-13
 IDIUse=1 WtCom= 1.00D+00 WtEn= 0.00D+00
 Coeff-Com: -0.483D-07 0.106D-07-0.299D-06-0.350D-07 0.142D-04 0.296D-04
 Coeff-Com:  0.757D-04 0.451D-05-0.468D-03-0.600D-02-0.116D-01-0.130D-01
 Coeff-Com:  0.145D+00 0.886D+00
 Coeff:     -0.483D-07 0.106D-07-0.299D-06-0.350D-07 0.142D-04 0.296D-04
 Coeff:      0.757D-04 0.451D-05-0.468D-03-0.600D-02-0.116D-01-0.130D-01
 Coeff:      0.145D+00 0.886D+00
 Gap=     0.204 Goal=   None    Shift=    0.000
 RMSDP=2.90D-09 MaxDP=5.41D-08 DE=-1.36D-12 OVMax= 1.34D-07

 Error on total polarization charges =  0.02478
 SCF Done:  E(RB3LYP) =  -706.333248137     A.U. after   14 cycles
            NFock= 14  Conv=0.29D-08     -V/T= 2.0046
 KE= 7.030922510223D+02 PE=-2.197385957525D+03 EE= 5.284138597764D+02
 SMD-CDS (non-electrostatic) energy       (kcal/mol) =       0.51
 (included in total energy above)
 Leave Link  502 at Tue Jan  7 22:45:30 2020, MaxMem=  4294967296 cpu:             568.5 elap:              45.0
 (Enter /home/cwagen/sw/g16/g16/l601.exe)
 Copying SCF densities to generalized density rwf, IOpCl= 0 IROHF=0.

 **********************************************************************

            Population analysis using the SCF density.

 **********************************************************************

 Orbital symmetries:
       Occupied  (A) (A) (A) (A) (A) (A) (A) (A) (A) (A) (A) (A)
                 (A) (A) (A) (A) (A) (A) (A) (A) (A) (A) (A) (A)
                 (A) (A) (A)
       Virtual   (A) (A) (A) (A) (A) (A) (A) (A) (A) (A) (A) (A)
                 (A) (A) (A) (A) (A) (A) (A) (A) (A) (A) (A) (A)
                 (A) (A) (A) (A) (A) (A) (A) (A) (A) (A) (A) (A)
                 (A) (A) (A) (A) (A) (A) (A) (A) (A) (A) (A) (A)
                 (A) (A) (A) (A) (A) (A) (A) (A) (A) (A) (A) (A)
                 (A) (A) (A) (A) (A) (A) (A) (A) (A) (A) (A) (A)
                 (A) (A) (A) (A) (A) (A) (A) (A) (A) (A) (A) (A)
                 (A) (A) (A) (A) (A) (A) (A) (A) (A) (A) (A) (A)
                 (A)
 The electronic state is 1-A.
 Alpha  occ. eigenvalues -- -101.53456 -19.08466 -14.27728 -10.29094 -10.16451
 Alpha  occ. eigenvalues --  -10.14850  -9.45862  -7.22150  -7.21286  -7.21163
 Alpha  occ. eigenvalues --   -0.99849  -0.87741  -0.83880  -0.69865  -0.54266
 Alpha  occ. eigenvalues --   -0.45470  -0.43883  -0.42027  -0.36850  -0.36716
 Alpha  occ. eigenvalues --   -0.34906  -0.29076  -0.28787  -0.28428  -0.27229
 Alpha  occ. eigenvalues --   -0.23163  -0.21553
 Alpha virt. eigenvalues --   -0.01106   0.03187   0.05028   0.05955   0.06547
 Alpha virt. eigenvalues --    0.07727   0.08086   0.08470   0.09551   0.09848
 Alpha virt. eigenvalues --    0.10375   0.11113   0.12195   0.13988   0.14178
 Alpha virt. eigenvalues --    0.15331   0.16261   0.18028   0.21224   0.23262
 Alpha virt. eigenvalues --    0.23979   0.24787   0.24928   0.26205   0.27057
 Alpha virt. eigenvalues --    0.27725   0.28933   0.30602   0.33001   0.35351
 Alpha virt. eigenvalues --    0.36103   0.39195   0.42575   0.55050   0.60710
 Alpha virt. eigenvalues --    0.63942   0.64872   0.65883   0.67881   0.70442
 Alpha virt. eigenvalues --    0.73534   0.74476   0.77946   0.78538   0.81726
 Alpha virt. eigenvalues --    0.82489   0.85932   0.91431   0.92749   0.94600
 Alpha virt. eigenvalues --    1.00032   1.02560   1.04329   1.06127   1.06939
 Alpha virt. eigenvalues --    1.09857   1.17117   1.19197   1.24661   1.32808
 Alpha virt. eigenvalues --    1.35952   1.36594   1.39188   1.46006   1.56147
 Alpha virt. eigenvalues --    1.58877   1.59546   1.60204   1.61190   1.66400
 Alpha virt. eigenvalues --    1.72668   1.80921   1.85031   1.88855   1.96412
 Alpha virt. eigenvalues --    1.98108   2.02762   2.03736   2.07008   2.22281
 Alpha virt. eigenvalues --    2.26829   2.28434   2.42620   2.52804   2.57702
 Alpha virt. eigenvalues --    2.64283   2.66490   2.67932   2.78590   3.01882
 Alpha virt. eigenvalues --    3.11205   4.05931   4.23233   4.31911   4.34585
 Alpha virt. eigenvalues --    4.38698   4.57492
          Condensed to atoms (all electrons):
               1          2          3          4          5          6
     1  C    6.667814   0.498631  -0.092377  -0.076170  -0.015738  -0.101780
     2  O    0.498631   8.471170  -0.154385   0.009724  -0.009824  -0.000484
     3  C   -0.092377  -0.154385   6.075936   0.363899   0.359938   0.413170
     4  H   -0.076170   0.009724   0.363899   0.506759  -0.030887  -0.025977
     5  H   -0.015738  -0.009824   0.359938  -0.030887   0.488209  -0.023800
     6  H   -0.101780  -0.000484   0.413170  -0.025977  -0.023800   0.482252
     7  Cl  -0.674616  -0.200266  -0.044347   0.022296  -0.007890   0.022341
     8  C   -0.036022  -0.120379  -0.395623   0.009958   0.009862   0.005332
     9  N   -0.012835  -0.002620   0.000132  -0.000634   0.000030  -0.000364
               7          8          9
     1  C   -0.674616  -0.036022  -0.012835
     2  O   -0.200266  -0.120379  -0.002620
     3  C   -0.044347  -0.395623   0.000132
     4  H    0.022296   0.009958  -0.000634
     5  H   -0.007890   0.009862   0.000030
     6  H    0.022341   0.005332  -0.000364
     7  Cl  17.619798   0.029744  -0.005012
     8  C    0.029744   5.913326   0.641484
     9  N   -0.005012   0.641484   7.065718
 Mulliken charges:
               1
     1  C   -0.156907
     2  O   -0.491566
     3  C   -0.526342
     4  H    0.221031
     5  H    0.230101
     6  H    0.229310
     7  Cl   0.237952
     8  C   -0.057681
     9  N   -0.685898
 Sum of Mulliken charges =  -1.00000
 Mulliken charges with hydrogens summed into heavy atoms:
               1
     1  C   -0.156907
     2  O   -0.491566
     3  C    0.154100
     7  Cl   0.237952
     8  C   -0.057681
     9  N   -0.685898
 Electronic spatial extent (au):  <R**2>=            751.6581
 Charge=             -1.0000 electrons
 Dipole moment (field-independent basis, Debye):
    X=             -7.7994    Y=              0.3751    Z=             -3.7657  Tot=              8.6690
 Quadrupole moment (field-independent basis, Debye-Ang):
   XX=            -72.2509   YY=            -45.7230   ZZ=            -51.9516
   XY=              2.3562   XZ=              3.3484   YZ=             -2.9659
 Traceless Quadrupole moment (field-independent basis, Debye-Ang):
   XX=            -15.6091   YY=             10.9189   ZZ=              4.6902
   XY=              2.3562   XZ=              3.3484   YZ=             -2.9659
 Octapole moment (field-independent basis, Debye-Ang**2):
  XXX=           -106.7011  YYY=             -3.2127  ZZZ=             -9.9517  XYY=             -8.2755
  XXY=              6.4519  XXZ=              0.7891  XZZ=             -3.3218  YZZ=             -4.7886
  YYZ=             -2.0907  XYZ=              1.0887
 Hexadecapole moment (field-independent basis, Debye-Ang**3):
 XXXX=           -923.3100 YYYY=           -250.7674 ZZZZ=           -197.5925 XXXY=             28.8709
 XXXZ=              9.4522 YYYX=             12.6820 YYYZ=              2.1370 ZZZX=              7.2119
 ZZZY=             -3.7357 XXYY=           -152.3049 XXZZ=           -145.2999 YYZZ=            -77.9591
 XXYZ=             -0.1822 YYXZ=              3.2143 ZZXY=              4.7553
 N-N= 2.595465985899D+02 E-N=-2.197385957394D+03  KE= 7.030922510223D+02
 No NMR shielding tensors so no spin-rotation constants.
 Leave Link  601 at Tue Jan  7 22:45:31 2020, MaxMem=  4294967296 cpu:              17.2 elap:               1.4
 (Enter /home/cwagen/sw/g16/g16/l701.exe)
 ... and contract with generalized density number  0.
 Compute integral first derivatives.
 D1PCM: PCM CHGder 1st derivatives, ID1Alg=3 FixD1E=F DoIter=F DoCFld=F I1PDM=0.
 GePol: Maximum number of non-zero 1st derivatives   =     318
 Leave Link  701 at Tue Jan  7 22:45:36 2020, MaxMem=  4294967296 cpu:              63.2 elap:               4.9
 (Enter /home/cwagen/sw/g16/g16/l702.exe)
 L702 exits ... SP integral derivatives will be done elsewhere.
 Leave Link  702 at Tue Jan  7 22:45:36 2020, MaxMem=  4294967296 cpu:               1.4 elap:               0.1
 (Enter /home/cwagen/sw/g16/g16/l703.exe)
 Integral derivatives from FoFJK, PRISM(SPDF).
 Compute integral first derivatives, UseDBF=F ICtDFT=           0.
 Calling FoFJK, ICntrl=      2127 FMM=F ISym2X=0 I1Cent= 0 IOpClX= 0 NMat=1 NMatS=1 NMatT=0.
 FoFJK:  IHMeth= 1 ICntrl=    2127 DoSepK=F KAlg= 0 I1Cent=           0 FoldK=F
 IRaf=         0 NMat=       1 IRICut=       1 DoRegI=T DoRafI=F ISym2E= 0 IDoP0=0 IntGTp=1.
 FoFCou: FMM=F IPFlag=           0 FMFlag=      100000 FMFlg1=         800
         NFxFlg=           0 DoJE=F BraDBF=F KetDBF=F FulRan=T
         wScrn=  0.000000 ICntrl=      2127 IOpCl=  0 I1Cent=           0 NGrid=           0
         NMat0=    1 NMatS0=      1 NMatT0=    0 NMatD0=    1 NMtDS0=    0 NMtDT0=    0
 Symmetry not used in FoFCou.
 Leave Link  703 at Tue Jan  7 22:45:39 2020, MaxMem=  4294967296 cpu:              38.1 elap:               3.0
 (Enter /home/cwagen/sw/g16/g16/l716.exe)
 Dipole        =-3.06851998D+00 1.47568168D-01-1.48155242D+00
 ***** Axes restored to original set *****
 -------------------------------------------------------------------
 Center     Atomic                   Forces (Hartrees/Bohr)
 Number     Number              X              Y              Z
 -------------------------------------------------------------------
      1        6           0.074626730   -0.204551132   -0.097510482
      2        8           0.024462826    0.011575785    0.036162481
      3        6           0.025371579    0.000405459   -0.001135606
      4        1           0.000399547    0.000097108   -0.001393367
      5        1           0.000711076    0.002759412   -0.001687051
      6        1          -0.000470178   -0.000991248    0.001502619
      7       17          -0.123536942    0.192580260    0.061902973
      8        6          -0.016507005   -0.005738730    0.002322425
      9        7           0.014942366    0.003863086   -0.000163993
 -------------------------------------------------------------------
 Cartesian Forces:  Max     0.204551132 RMS     0.065644953
 Leave Link  716 at Tue Jan  7 22:45:40 2020, MaxMem=  4294967296 cpu:               1.3 elap:               0.1
 (Enter /home/cwagen/sw/g16/g16/l103.exe)

 GradGradGradGradGradGradGradGradGradGradGradGradGradGradGradGradGradGrad
 Berny optimization.
 FormGI is forming the generalized inverse of G from B-inverse, IUseBI=4.
 Internal  Forces:  Max     0.235968022 RMS     0.044012717
 Search for a local minimum.
 Step number   1 out of a maximum of   41
 All quantities printed in internal units (Hartrees-Bohrs-Radians)
 RMS Force = .12271D-01 SwitMx=.10000D-02 MixMth= 1
 Mixed Optimization -- RFO/linear search
 Second derivative matrix not updated -- first step.
 ITU=  0
     Eigenvalues ---    0.00230   0.04746   0.04746   0.05330   0.05908
     Eigenvalues ---    0.07453   0.10176   0.16000   0.16000   0.16000
     Eigenvalues ---    0.25000   0.25000   0.25000   0.26946   0.33918
     Eigenvalues ---    0.33999   0.34275   0.67840   1.220341000.00000
     Eigenvalues --- 1000.000001000.000001000.000001000.000001000.00000
     Eigenvalues --- 1000.000001000.000001000.000001000.000001000.00000
     Eigenvalues --- 1000.00000
 RFO step:  Lambda=-2.36250141D-02 EMin= 2.30000000D-03
 Linear search not attempted -- first point.
 Iteration  1 RMS(Cart)=  0.09468710 RMS(Int)=  0.00855796
 Iteration  2 RMS(Cart)=  0.00696100 RMS(Int)=  0.00637558
 Iteration  3 RMS(Cart)=  0.00001851 RMS(Int)=  0.00637556
 Iteration  4 RMS(Cart)=  0.00000035 RMS(Int)=  0.00637556
 Iteration  1 RMS(Cart)=  0.00000000 RMS(Int)=  0.00000000
 ITry= 1 IFail=0 DXMaxC= 2.00D-01 DCOld= 1.00D+10 DXMaxT= 3.00D-01 DXLimC= 3.00D+00 Rises=F
 Variable       Old X    -DE/DX   Delta X   Delta X   Delta X     New X
                                 (Linear)    (Quad)   (Total)
    R1        2.45227  -0.03907   0.00000  -0.05565  -0.05565   2.39662
    R2        2.94503  -0.00578   0.00000  -0.01971  -0.01971   2.92532
    R3        2.83459   0.23597   0.00000   0.00000   0.00000   2.83459
    R4        4.15740  -0.00167   0.00000   0.00000   0.00000   4.15740
    R5        2.07331  -0.00124   0.00000  -0.00341  -0.00341   2.06991
    R6        2.07468  -0.00155   0.00000  -0.00426  -0.00426   2.07042
    R7        2.06868   0.00010   0.00000   0.00028   0.00028   2.06896
    R8        2.20923   0.01542   0.00000   0.01240   0.01240   2.22163
    A1        1.99667   0.00533   0.00000   0.04822   0.03034   2.02700
    A2        2.01908  -0.00080   0.00000   0.08445   0.06356   2.08264
    A3        1.89239  -0.00611   0.00000  -0.09334  -0.09316   1.79923
    A4        1.92419   0.02652   0.00000   0.13641   0.12003   2.04422
    A5        1.77194  -0.01846   0.00000  -0.12839  -0.12426   1.64769
    A6        1.83479  -0.01218   0.00000  -0.10285  -0.09436   1.74042
    A7        1.97398  -0.00073   0.00000  -0.00436  -0.00448   1.96950
    A8        1.87942  -0.00460   0.00000  -0.02726  -0.02728   1.85214
    A9        1.90140   0.00358   0.00000   0.02213   0.02219   1.92358
   A10        1.90356   0.00202   0.00000   0.00609   0.00589   1.90945
   A11        1.90837  -0.00096   0.00000  -0.00136  -0.00141   1.90696
   A12        1.89554   0.00071   0.00000   0.00484   0.00502   1.90057
   A13        3.09538   0.00061   0.00000   0.00855   0.00855   3.10393
   A14        2.89195  -0.00081   0.00000  -0.01146  -0.01146   2.88049
    D1        3.04510  -0.01453   0.00000  -0.15156  -0.15486   2.89024
    D2       -1.13357  -0.01560   0.00000  -0.16529  -0.16844  -1.30202
    D3        0.91915  -0.01538   0.00000  -0.16271  -0.16604   0.75311
    D4       -0.92685   0.01444   0.00000   0.14301   0.14865  -0.77820
    D5        1.17766   0.01337   0.00000   0.12927   0.13507   1.31273
    D6       -3.05280   0.01359   0.00000   0.13185   0.13747  -2.91533
    D7        1.01121   0.00155   0.00000   0.01563   0.01316   1.02437
    D8        3.11572   0.00048   0.00000   0.00190  -0.00042   3.11530
    D9       -1.11475   0.00070   0.00000   0.00447   0.00199  -1.11276
         Item               Value     Threshold  Converged?
 Maximum Force            0.039068     0.000450     NO 
 RMS     Force            0.012271     0.000300     NO 
 Maximum Displacement     0.200056     0.001800     NO 
 RMS     Displacement     0.094112     0.001200     NO 
 Predicted change in Energy=-1.528742D-02
 Lowest energy point so far.  Saving SCF results.
 GradGradGradGradGradGradGradGradGradGradGradGradGradGradGradGradGradGrad

 Leave Link  103 at Tue Jan  7 22:45:46 2020, MaxMem=  4294967296 cpu:              89.7 elap:               6.7
 (Enter /home/cwagen/sw/g16/g16/l202.exe)
                          Input orientation:                          
 ---------------------------------------------------------------------
 Center     Atomic      Atomic             Coordinates (Angstroms)
 Number     Number       Type             X           Y           Z
 ---------------------------------------------------------------------
      1          6           0       -0.300128   -0.300486   -0.231610
      2          8           0       -0.220644   -0.649339   -1.448331
      3          6           0       -0.295870   -1.447187    0.808292
      4          1           0       -0.113852   -1.094679    1.829269
      5          1           0       -1.287318   -1.910344    0.754459
      6          1           0        0.459389   -2.194539    0.544214
      7         17           0       -1.053686    0.945746    0.127634
      8          6           0        1.747385    0.356622    0.233040
      9          7           0        2.893214    0.617437    0.267278
 ---------------------------------------------------------------------
                    Distance matrix (angstroms):
                    1          2          3          4          5
     1  C    0.000000
     2  O    1.268238   0.000000
     3  C    1.548011   2.394696   0.000000
     4  H    2.216452   3.309440   1.095347   0.000000
     5  H    2.130380   2.753219   1.095619   1.788169   0.000000
     6  H    2.183164   2.611575   1.094846   1.785963   1.782121
     7  Cl   1.500000   2.392054   2.600713   2.818187   2.933385
     8  C    2.200000   2.777068   2.785594   2.849285   3.823668
     9  N    3.359896   3.774142   3.837398   3.796525   4.909569
                    6          7          8          9
     6  H    0.000000
     7  Cl   3.510602   0.000000
     8  C    2.874749   2.864294   0.000000
     9  N    3.729263   3.962992   1.175636   0.000000
 Stoichiometry    C3H3ClNO(1-)
 Framework group  C1[X(C3H3ClNO)]
 Deg. of freedom    21
 Full point group                 C1      NOp   1
 RotChk:  IX=0 Diff= 1.02D-01
 Largest Abelian subgroup         C1      NOp   1
 Largest concise Abelian subgroup C1      NOp   1
                         Standard orientation:                         
 ---------------------------------------------------------------------
 Center     Atomic      Atomic             Coordinates (Angstroms)
 Number     Number       Type             X           Y           Z
 ---------------------------------------------------------------------
      1          6           0       -0.470100    0.285913    0.210471
      2          8           0       -0.523856    0.602406    1.437406
      3          6           0       -0.482061    1.460354   -0.797934
      4          1           0       -0.184749    1.156981   -1.807566
      5          1           0       -1.512069    1.833244   -0.818406
      6          1           0        0.178509    2.262253   -0.452545
      7         17           0       -1.076321   -1.009613   -0.241313
      8          6           0        1.659648   -0.175085   -0.092274
      9          7           0        2.823100   -0.333628   -0.034284
 ---------------------------------------------------------------------
 Rotational constants (GHZ):           3.9848351           2.0696946           1.8204280
 Leave Link  202 at Tue Jan  7 22:45:47 2020, MaxMem=  4294967296 cpu:               2.0 elap:               0.2
 (Enter /home/cwagen/sw/g16/g16/l301.exe)
 Standard basis: 6-31+G(d) (6D, 7F)
 Ernie: Thresh=  0.10000D-02 Tol=  0.10000D-05 Strict=F.
 There are   124 symmetry adapted cartesian basis functions of A   symmetry.
 There are   124 symmetry adapted basis functions of A   symmetry.
   124 basis functions,   228 primitive gaussians,   124 cartesian basis functions
    27 alpha electrons       27 beta electrons
       nuclear repulsion energy       261.3039590784 Hartrees.
 IExCor=  402 DFT=T Ex+Corr=B3LYP ExCW=0 ScaHFX=  0.200000
 ScaDFX=  0.800000  0.720000  1.000000  0.810000 ScalE2=  1.000000  1.000000
 IRadAn=      5 IRanWt=     -1 IRanGd=            0 ICorTp=0 IEmpDi=  4
 NAtoms=    9 NActive=    9 NUniq=    9 SFac= 1.00D+00 NAtFMM=   60 NAOKFM=F Big=F
 Integral buffers will be    131072 words long.
 Raffenetti 2 integral format.
 Two-electron integral symmetry is turned on.
 ------------------------------------------------------------------------------
 Polarizable Continuum Model (PCM)
 =================================
 Model                : PCM.
 Atomic radii         : SMD-Coulomb.
 Polarization charges : Total charges.
 Charge compensation  : None.
 Solution method      : On-the-fly selection.
 Cavity type          : VdW (van der Waals Surface) (Alpha=1.000).
 Cavity algorithm     : GePol (No added spheres)
                        Default sphere list used, NSphG=    9.
                        Lebedev-Laikov grids with approx.  5.0 points / Ang**2.
                        Smoothing algorithm: York/Karplus (Gamma=1.0000).
                        Polarization charges: spherical gaussians, with
                                              point-specific exponents (IZeta= 3).
                        Self-potential: point-specific (ISelfS= 7).
                        Self-field    : sphere-specific E.n sum rule (ISelfD= 2).
 1st derivatives      : Analytical E(r).r(x)/FMM algorithm (CHGder, D1EAlg=3).
                        Cavity 1st derivative terms included.
 Solvent              : TetraHydroFuran, Eps=   7.425700 Eps(inf)=   1.974025
 ------------------------------------------------------------------------------
 Spheres list:
 ISph  on   Nord     Re0    Alpha      Xe            Ye            Ze
    1   C      1    1.8500  1.000     -0.470100      0.285913      0.210471
    2   O      2    2.2940  1.000     -0.523856      0.602406      1.437406
    3   C      3    1.8500  1.000     -0.482061      1.460354     -0.797934
    4   H      4    1.2000  1.000     -0.184749      1.156981     -1.807566
    5   H      5    1.2000  1.000     -1.512069      1.833244     -0.818406
    6   H      6    1.2000  1.000      0.178509      2.262253     -0.452545
    7  Cl      7    2.3800  1.000     -1.076321     -1.009613     -0.241313
    8   C      8    1.8500  1.000      1.659648     -0.175085     -0.092274
    9   N      9    1.8900  1.000      2.823100     -0.333628     -0.034284
 ------------------------------------------------------------------------------
 GePol: Number of generator spheres                  =       9
 GePol: Total number of spheres                      =       9
 GePol: Number of exposed spheres                    =       9 (100.00%)
 GePol: Number of points                             =    1131
 GePol: Average weight of points                     =       0.14
 GePol: Minimum weight of points                     =   0.28D-08
 GePol: Maximum weight of points                     =    0.18138
 GePol: Number of points with low weight             =      24
 GePol: Fraction of low-weight points (<1% of avg)   =       2.12%
 GePol: Cavity surface area                          =    152.882 Ang**2
 GePol: Cavity volume                                =    140.222 Ang**3
 ------------------------------------------------------------------------------
 Atomic radii for non-electrostatic terms: SMD-CDS.
 ------------------------------------------------------------------------------
 PCM non-electrostatic energy =         0.0007325377 Hartrees.
 Nuclear repulsion after PCM non-electrostatic terms =      261.3046916160 Hartrees.
 Leave Link  301 at Tue Jan  7 22:45:47 2020, MaxMem=  4294967296 cpu:               2.5 elap:               0.2
 (Enter /home/cwagen/sw/g16/g16/l302.exe)
 NPDir=0 NMtPBC=     1 NCelOv=     1 NCel=       1 NClECP=     1 NCelD=      1
         NCelK=      1 NCelE2=     1 NClLst=     1 CellRange=     0.0.
 One-electron integrals computed using PRISM.
 One-electron integral symmetry used in STVInt
 NBasis=   124 RedAO= T EigKep=  3.86D-05  NBF=   124
 NBsUse=   124 1.00D-06 EigRej= -1.00D+00 NBFU=   124
 Precomputing XC quadrature grid using
 IXCGrd= 4 IRadAn=           5 IRanWt=          -1 IRanGd=           0 AccXCQ= 0.00D+00.
 Generated NRdTot=       0 NPtTot=           0 NUsed=           0 NTot=          32
 NSgBfM=   124   124   124   124   124 MxSgAt=     9 MxSgA2=     9.
 Leave Link  302 at Tue Jan  7 22:45:49 2020, MaxMem=  4294967296 cpu:              26.5 elap:               2.1
 (Enter /home/cwagen/sw/g16/g16/l303.exe)
 DipDrv:  MaxL=1.
 Leave Link  303 at Tue Jan  7 22:45:49 2020, MaxMem=  4294967296 cpu:               3.0 elap:               0.3
 (Enter /home/cwagen/sw/g16/g16/l401.exe)
 Initial guess from the checkpoint file:  "/scratch/users/cwagen/cwagen_scan_150_220/Gau-36209.chk"
 B after Tr=     0.000000    0.000000    0.000000
         Rot=    0.999780   -0.001836    0.007147    0.019619 Ang=  -2.40 deg.
 Guess basis will be translated and rotated to current coordinates.
 JPrj=2 DoOrth=T DoCkMO=T.
 Generating alternative initial guess.
 ExpMin= 4.38D-02 ExpMax= 2.52D+04 ExpMxC= 3.78D+03 IAcc=2 IRadAn=         4 AccDes= 0.00D+00
 Harris functional with IExCor=  402 and IRadAn=       4 diagonalized for initial guess.
 HarFok:  IExCor=  402 AccDes= 0.00D+00 IRadAn=         4 IDoV= 1 UseB2=F ITyADJ=14
 ICtDFT=  3500011 ScaDFX=  1.000000  1.000000  1.000000  1.000000
 FoFCou: FMM=F IPFlag=           0 FMFlag=      100000 FMFlg1=           0
         NFxFlg=           0 DoJE=T BraDBF=F KetDBF=T FulRan=T
         wScrn=  0.000000 ICntrl=       500 IOpCl=  0 I1Cent=   200000004 NGrid=           0
         NMat0=    1 NMatS0=      1 NMatT0=    0 NMatD0=    1 NMtDS0=    0 NMtDT0=    0
 Petite list used in FoFCou.
 Harris En= -706.378338426802    
 Leave Link  401 at Tue Jan  7 22:45:53 2020, MaxMem=  4294967296 cpu:              44.8 elap:               3.5
 (Enter /home/cwagen/sw/g16/g16/l502.exe)
 Keep R1 ints in memory in canonical form, NReq=45236517.
 FoFCou: FMM=F IPFlag=           0 FMFlag=           0 FMFlg1=           0
         NFxFlg=           0 DoJE=F BraDBF=F KetDBF=F FulRan=T
         wScrn=  0.000000 ICntrl=       600 IOpCl=  0 I1Cent=           0 NGrid=           0
         NMat0=    1 NMatS0=   7750 NMatT0=    0 NMatD0=    1 NMtDS0=    0 NMtDT0=    0
 Symmetry not used in FoFCou.
 Two-electron integral symmetry not used.
 Closed shell SCF:
 Using DIIS extrapolation, IDIIS=  1040.
 NGot=  4294967296 LenX=  4264898079 LenY=  4264882262
 Requested convergence on RMS density matrix=1.00D-08 within 128 cycles.
 Requested convergence on MAX density matrix=1.00D-06.
 Requested convergence on             energy=1.00D-06.
 No special actions if energy rises.

 Cycle   1  Pass 1  IDiag  1:
 Inv3:  Mode=1 IEnd=     3837483.
 Iteration    1 A*A^-1 deviation from unit magnitude is 2.89D-15 for   1131.
 Iteration    1 A*A^-1 deviation from orthogonality  is 1.86D-15 for   1126   1008.
 Iteration    1 A^-1*A deviation from unit magnitude is 2.89D-15 for   1115.
 Iteration    1 A^-1*A deviation from orthogonality  is 1.50D-15 for   1114    898.
 E= -706.327521820667    
 DIIS: error= 6.63D-03 at cycle   1 NSaved=   1.
 NSaved= 1 IEnMin= 1 EnMin= -706.327521820667     IErMin= 1 ErrMin= 6.63D-03
 ErrMax= 6.63D-03  0.00D+00 EMaxC= 1.00D-01 BMatC= 1.13D-02 BMatP= 1.13D-02
 IDIUse=3 WtCom= 9.34D-01 WtEn= 6.63D-02
 Coeff-Com:  0.100D+01
 Coeff-En:   0.100D+01
 Coeff:      0.100D+01
 Gap=     0.614 Goal=   None    Shift=    0.000
 GapD=    0.614 DampG=2.000 DampE=1.000 DampFc=2.0000 IDamp=-1.
 RMSDP=3.31D-03 MaxDP=7.40D-02              OVMax= 4.38D-02

 Cycle   2  Pass 1  IDiag  1:
 E= -706.345550823009     Delta-E=       -0.018029002341 Rises=F Damp=F
 DIIS: error= 1.43D-03 at cycle   2 NSaved=   2.
 NSaved= 2 IEnMin= 2 EnMin= -706.345550823009     IErMin= 2 ErrMin= 1.43D-03
 ErrMax= 1.43D-03  0.00D+00 EMaxC= 1.00D-01 BMatC= 3.07D-04 BMatP= 1.13D-02
 IDIUse=3 WtCom= 9.86D-01 WtEn= 1.43D-02
 Coeff-Com: -0.832D-02 0.101D+01
 Coeff-En:   0.000D+00 0.100D+01
 Coeff:     -0.820D-02 0.101D+01
 Gap=     0.220 Goal=   None    Shift=    0.000
 RMSDP=7.55D-04 MaxDP=3.51D-02 DE=-1.80D-02 OVMax= 8.15D-03

 Cycle   3  Pass 1  IDiag  1:
 E= -706.345636772584     Delta-E=       -0.000085949575 Rises=F Damp=F
 DIIS: error= 1.08D-03 at cycle   3 NSaved=   3.
 NSaved= 3 IEnMin= 3 EnMin= -706.345636772584     IErMin= 3 ErrMin= 1.08D-03
 ErrMax= 1.08D-03  0.00D+00 EMaxC= 1.00D-01 BMatC= 3.33D-04 BMatP= 3.07D-04
 IDIUse=3 WtCom= 9.89D-01 WtEn= 1.08D-02
 Coeff-Com: -0.276D-01 0.529D+00 0.499D+00
 Coeff-En:   0.000D+00 0.412D+00 0.588D+00
 Coeff:     -0.273D-01 0.528D+00 0.500D+00
 Gap=     0.219 Goal=   None    Shift=    0.000
 RMSDP=3.18D-04 MaxDP=1.71D-02 DE=-8.59D-05 OVMax= 7.13D-03

 Cycle   4  Pass 1  IDiag  1:
 E= -706.345881031922     Delta-E=       -0.000244259339 Rises=F Damp=F
 DIIS: error= 8.12D-04 at cycle   4 NSaved=   4.
 NSaved= 4 IEnMin= 4 EnMin= -706.345881031922     IErMin= 4 ErrMin= 8.12D-04
 ErrMax= 8.12D-04  0.00D+00 EMaxC= 1.00D-01 BMatC= 6.99D-05 BMatP= 3.07D-04
 IDIUse=3 WtCom= 9.92D-01 WtEn= 8.12D-03
 Coeff-Com: -0.164D-01 0.224D+00 0.330D+00 0.462D+00
 Coeff-En:   0.000D+00 0.000D+00 0.162D+00 0.838D+00
 Coeff:     -0.162D-01 0.222D+00 0.329D+00 0.465D+00
 Gap=     0.219 Goal=   None    Shift=    0.000
 RMSDP=1.48D-04 MaxDP=5.62D-03 DE=-2.44D-04 OVMax= 3.34D-03

 Cycle   5  Pass 1  IDiag  1:
 E= -706.345936391415     Delta-E=       -0.000055359493 Rises=F Damp=F
 DIIS: error= 2.29D-04 at cycle   5 NSaved=   5.
 NSaved= 5 IEnMin= 5 EnMin= -706.345936391415     IErMin= 5 ErrMin= 2.29D-04
 ErrMax= 2.29D-04  0.00D+00 EMaxC= 1.00D-01 BMatC= 7.45D-06 BMatP= 6.99D-05
 IDIUse=3 WtCom= 9.98D-01 WtEn= 2.29D-03
 Coeff-Com: -0.622D-02 0.738D-01 0.145D+00 0.301D+00 0.486D+00
 Coeff-En:   0.000D+00 0.000D+00 0.000D+00 0.777D-01 0.922D+00
 Coeff:     -0.621D-02 0.736D-01 0.145D+00 0.300D+00 0.487D+00
 Gap=     0.220 Goal=   None    Shift=    0.000
 RMSDP=7.69D-05 MaxDP=5.00D-03 DE=-5.54D-05 OVMax= 7.39D-04

 Cycle   6  Pass 1  IDiag  1:
 E= -706.345943061462     Delta-E=       -0.000006670046 Rises=F Damp=F
 DIIS: error= 3.32D-05 at cycle   6 NSaved=   6.
 NSaved= 6 IEnMin= 6 EnMin= -706.345943061462     IErMin= 6 ErrMin= 3.32D-05
 ErrMax= 3.32D-05  0.00D+00 EMaxC= 1.00D-01 BMatC= 2.99D-07 BMatP= 7.45D-06
 IDIUse=1 WtCom= 1.00D+00 WtEn= 0.00D+00
 Coeff-Com: -0.310D-03-0.451D-02 0.133D-01 0.697D-01 0.211D+00 0.711D+00
 Coeff:     -0.310D-03-0.451D-02 0.133D-01 0.697D-01 0.211D+00 0.711D+00
 Gap=     0.219 Goal=   None    Shift=    0.000
 RMSDP=1.51D-05 MaxDP=3.68D-04 DE=-6.67D-06 OVMax= 2.38D-04

 Cycle   7  Pass 1  IDiag  1:
 E= -706.345943276263     Delta-E=       -0.000000214801 Rises=F Damp=F
 DIIS: error= 2.38D-05 at cycle   7 NSaved=   7.
 NSaved= 7 IEnMin= 7 EnMin= -706.345943276263     IErMin= 7 ErrMin= 2.38D-05
 ErrMax= 2.38D-05  0.00D+00 EMaxC= 1.00D-01 BMatC= 1.01D-07 BMatP= 2.99D-07
 IDIUse=1 WtCom= 1.00D+00 WtEn= 0.00D+00
 Coeff-Com:  0.142D-03-0.737D-02 0.134D-03 0.277D-01 0.110D+00 0.477D+00
 Coeff-Com:  0.392D+00
 Coeff:      0.142D-03-0.737D-02 0.134D-03 0.277D-01 0.110D+00 0.477D+00
 Coeff:      0.392D+00
 Gap=     0.220 Goal=   None    Shift=    0.000
 RMSDP=5.01D-06 MaxDP=9.76D-05 DE=-2.15D-07 OVMax= 8.47D-05

 Cycle   8  Pass 1  IDiag  1:
 E= -706.345943352655     Delta-E=       -0.000000076392 Rises=F Damp=F
 DIIS: error= 3.81D-06 at cycle   8 NSaved=   8.
 NSaved= 8 IEnMin= 8 EnMin= -706.345943352655     IErMin= 8 ErrMin= 3.81D-06
 ErrMax= 3.81D-06  0.00D+00 EMaxC= 1.00D-01 BMatC= 3.92D-09 BMatP= 1.01D-07
 IDIUse=1 WtCom= 1.00D+00 WtEn= 0.00D+00
 Coeff-Com:  0.170D-03-0.331D-02-0.272D-02 0.983D-03 0.188D-01 0.118D+00
 Coeff-Com:  0.185D+00 0.683D+00
 Coeff:      0.170D-03-0.331D-02-0.272D-02 0.983D-03 0.188D-01 0.118D+00
 Coeff:      0.185D+00 0.683D+00
 Gap=     0.220 Goal=   None    Shift=    0.000
 RMSDP=1.34D-06 MaxDP=3.46D-05 DE=-7.64D-08 OVMax= 3.97D-05

 Cycle   9  Pass 1  IDiag  1:
 E= -706.345943356517     Delta-E=       -0.000000003862 Rises=F Damp=F
 DIIS: error= 7.36D-07 at cycle   9 NSaved=   9.
 NSaved= 9 IEnMin= 9 EnMin= -706.345943356517     IErMin= 9 ErrMin= 7.36D-07
 ErrMax= 7.36D-07  0.00D+00 EMaxC= 1.00D-01 BMatC= 2.21D-10 BMatP= 3.92D-09
 IDIUse=1 WtCom= 1.00D+00 WtEn= 0.00D+00
 Coeff-Com:  0.325D-04-0.356D-03-0.719D-03-0.166D-02-0.247D-02-0.989D-03
 Coeff-Com:  0.919D-02 0.200D+00 0.797D+00
 Coeff:      0.325D-04-0.356D-03-0.719D-03-0.166D-02-0.247D-02-0.989D-03
 Coeff:      0.919D-02 0.200D+00 0.797D+00
 Gap=     0.220 Goal=   None    Shift=    0.000
 RMSDP=6.44D-07 MaxDP=1.67D-05 DE=-3.86D-09 OVMax= 6.14D-06

 Cycle  10  Pass 1  IDiag  1:
 E= -706.345943356738     Delta-E=       -0.000000000222 Rises=F Damp=F
 DIIS: error= 3.54D-07 at cycle  10 NSaved=  10.
 NSaved=10 IEnMin=10 EnMin= -706.345943356738     IErMin=10 ErrMin= 3.54D-07
 ErrMax= 3.54D-07  0.00D+00 EMaxC= 1.00D-01 BMatC= 3.76D-11 BMatP= 2.21D-10
 IDIUse=1 WtCom= 1.00D+00 WtEn= 0.00D+00
 Coeff-Com:  0.126D-05 0.122D-03-0.103D-03-0.849D-03-0.282D-02-0.104D-01
 Coeff-Com: -0.127D-01 0.332D-01 0.393D+00 0.600D+00
 Coeff:      0.126D-05 0.122D-03-0.103D-03-0.849D-03-0.282D-02-0.104D-01
 Coeff:     -0.127D-01 0.332D-01 0.393D+00 0.600D+00
 Gap=     0.220 Goal=   None    Shift=    0.000
 RMSDP=1.21D-07 MaxDP=2.30D-06 DE=-2.22D-10 OVMax= 2.95D-06

 Cycle  11  Pass 1  IDiag  1:
 E= -706.345943356781     Delta-E=       -0.000000000042 Rises=F Damp=F
 DIIS: error= 4.39D-08 at cycle  11 NSaved=  11.
 NSaved=11 IEnMin=11 EnMin= -706.345943356781     IErMin=11 ErrMin= 4.39D-08
 ErrMax= 4.39D-08  0.00D+00 EMaxC= 1.00D-01 BMatC= 6.43D-13 BMatP= 3.76D-11
 IDIUse=1 WtCom= 1.00D+00 WtEn= 0.00D+00
 Coeff-Com: -0.133D-05 0.472D-04 0.530D-05-0.114D-03-0.628D-03-0.228D-02
 Coeff-Com: -0.321D-02-0.323D-02 0.581D-01 0.141D+00 0.810D+00
 Coeff:     -0.133D-05 0.472D-04 0.530D-05-0.114D-03-0.628D-03-0.228D-02
 Coeff:     -0.321D-02-0.323D-02 0.581D-01 0.141D+00 0.810D+00
 Gap=     0.220 Goal=   None    Shift=    0.000
 RMSDP=2.32D-08 MaxDP=6.08D-07 DE=-4.23D-11 OVMax= 5.14D-07

 Cycle  12  Pass 1  IDiag  1:
 E= -706.345943356783     Delta-E=       -0.000000000002 Rises=F Damp=F
 DIIS: error= 1.19D-08 at cycle  12 NSaved=  12.
 NSaved=12 IEnMin=12 EnMin= -706.345943356783     IErMin=12 ErrMin= 1.19D-08
 ErrMax= 1.19D-08  0.00D+00 EMaxC= 1.00D-01 BMatC= 4.46D-14 BMatP= 6.43D-13
 IDIUse=1 WtCom= 1.00D+00 WtEn= 0.00D+00
 Coeff-Com: -0.557D-06 0.118D-04 0.461D-05-0.104D-04-0.125D-03-0.387D-03
 Coeff-Com: -0.665D-03-0.263D-02 0.429D-02 0.216D-01 0.268D+00 0.710D+00
 Coeff:     -0.557D-06 0.118D-04 0.461D-05-0.104D-04-0.125D-03-0.387D-03
 Coeff:     -0.665D-03-0.263D-02 0.429D-02 0.216D-01 0.268D+00 0.710D+00
 Gap=     0.220 Goal=   None    Shift=    0.000
 RMSDP=8.29D-09 MaxDP=4.75D-07 DE=-2.27D-12 OVMax= 1.05D-07

 Error on total polarization charges =  0.02500
 SCF Done:  E(RB3LYP) =  -706.345943357     A.U. after   12 cycles
            NFock= 12  Conv=0.83D-08     -V/T= 2.0045
 KE= 7.031704621236D+02 PE=-2.200987124861D+03 EE= 5.301660277643D+02
 SMD-CDS (non-electrostatic) energy       (kcal/mol) =       0.46
 (included in total energy above)
 Leave Link  502 at Tue Jan  7 22:46:30 2020, MaxMem=  4294967296 cpu:             467.0 elap:              37.3
 (Enter /home/cwagen/sw/g16/g16/l701.exe)
 ... and contract with generalized density number  0.
 Compute integral first derivatives.
 D1PCM: PCM CHGder 1st derivatives, ID1Alg=3 FixD1E=F DoIter=F DoCFld=F I1PDM=0.
 GePol: Maximum number of non-zero 1st derivatives   =     318
 Leave Link  701 at Tue Jan  7 22:46:35 2020, MaxMem=  4294967296 cpu:              66.6 elap:               5.2
 (Enter /home/cwagen/sw/g16/g16/l702.exe)
 L702 exits ... SP integral derivatives will be done elsewhere.
 Leave Link  702 at Tue Jan  7 22:46:35 2020, MaxMem=  4294967296 cpu:               1.1 elap:               0.1
 (Enter /home/cwagen/sw/g16/g16/l703.exe)
 Integral derivatives from FoFJK, PRISM(SPDF).
 Compute integral first derivatives, UseDBF=F ICtDFT=           0.
 Calling FoFJK, ICntrl=      2127 FMM=F ISym2X=0 I1Cent= 0 IOpClX= 0 NMat=1 NMatS=1 NMatT=0.
 FoFJK:  IHMeth= 1 ICntrl=    2127 DoSepK=F KAlg= 0 I1Cent=           0 FoldK=F
 IRaf=         0 NMat=       1 IRICut=       1 DoRegI=T DoRafI=F ISym2E= 0 IDoP0=0 IntGTp=1.
 FoFCou: FMM=F IPFlag=           0 FMFlag=      100000 FMFlg1=         800
         NFxFlg=           0 DoJE=F BraDBF=F KetDBF=F FulRan=T
         wScrn=  0.000000 ICntrl=      2127 IOpCl=  0 I1Cent=           0 NGrid=           0
         NMat0=    1 NMatS0=      1 NMatT0=    0 NMatD0=    1 NMtDS0=    0 NMtDT0=    0
 Symmetry not used in FoFCou.
 Leave Link  703 at Tue Jan  7 22:46:38 2020, MaxMem=  4294967296 cpu:              37.8 elap:               2.9
 (Enter /home/cwagen/sw/g16/g16/l716.exe)
 Dipole        =-3.23973595D+00 2.94889324D-01-1.42555395D+00
 ***** Axes restored to original set *****
 -------------------------------------------------------------------
 Center     Atomic                   Forces (Hartrees/Bohr)
 Number     Number              X              Y              Z
 -------------------------------------------------------------------
      1        6           0.094803503   -0.203866531   -0.080684777
      2        8           0.001161701    0.005431266    0.019552449
      3        6           0.005033371    0.007531731   -0.001143606
      4        1          -0.000904179    0.000049946   -0.000593052
      5        1          -0.002317941   -0.001671279    0.001198124
      6        1          -0.001412516    0.002297541   -0.001079407
      7       17          -0.111846119    0.186175833    0.057684068
      8        6           0.009838340    0.002921383    0.005790521
      9        7           0.005643841    0.001130110   -0.000724320
 -------------------------------------------------------------------
 Cartesian Forces:  Max     0.203866531 RMS     0.063317538
 Leave Link  716 at Tue Jan  7 22:46:39 2020, MaxMem=  4294967296 cpu:               1.2 elap:               0.1
 (Enter /home/cwagen/sw/g16/g16/l103.exe)

 GradGradGradGradGradGradGradGradGradGradGradGradGradGradGradGradGradGrad
 Berny optimization.
 Using GEDIIS/GDIIS optimizer.
 FormGI is forming the generalized inverse of G from B-inverse, IUseBI=4.
 Internal  Forces:  Max     0.224680012 RMS     0.040713590
 Search for a local minimum.
 Step number   2 out of a maximum of   41
 All quantities printed in internal units (Hartrees-Bohrs-Radians)
 RMS Force = .46492D-02 SwitMx=.10000D-02 MixMth= 1
 Mixed Optimization -- RFO/linear search
 Update second derivatives using D2CorX and points    1    2
 DE= -1.27D-02 DEPred=-1.53D-02 R= 8.30D-01
 TightC=F SS=  1.41D+00  RLast= 4.44D-01 DXNew= 5.0454D-01 1.3313D+00
 Trust test= 8.30D-01 RLast= 4.44D-01 DXMaxT set to 5.05D-01
 ITU=  1  0
 Use linear search instead of GDIIS.
     Eigenvalues ---    0.00230   0.04733   0.04747   0.05311   0.05983
     Eigenvalues ---    0.07925   0.10790   0.15993   0.16000   0.16300
     Eigenvalues ---    0.24268   0.25000   0.26427   0.28598   0.33991
     Eigenvalues ---    0.34036   0.34364   0.60878   1.211901000.00000
     Eigenvalues --- 1000.000001000.000001000.000001000.000001000.00000
     Eigenvalues --- 1000.000001000.000001000.000001000.000001000.00000
     Eigenvalues --- 1000.00000
 RFO step:  Lambda=-1.62320353D-03 EMin= 2.30114359D-03
 Quartic linear search produced a step of  0.14537.
 Iteration  1 RMS(Cart)=  0.03487928 RMS(Int)=  0.00113804
 Iteration  2 RMS(Cart)=  0.00059237 RMS(Int)=  0.00100221
 Iteration  3 RMS(Cart)=  0.00000038 RMS(Int)=  0.00100221
 Iteration  1 RMS(Cart)=  0.00000000 RMS(Int)=  0.00000000
 ITry= 1 IFail=0 DXMaxC= 7.50D-02 DCOld= 1.00D+10 DXMaxT= 5.05D-01 DXLimC= 3.00D+00 Rises=F
 Variable       Old X    -DE/DX   Delta X   Delta X   Delta X     New X
                                 (Linear)    (Quad)   (Total)
    R1        2.39662  -0.02018  -0.00809  -0.03016  -0.03825   2.35837
    R2        2.92532  -0.00716  -0.00287  -0.02883  -0.03170   2.89362
    R3        2.83459   0.22468   0.00000   0.00000   0.00000   2.83459
    R4        4.15740   0.01666   0.00000   0.00000   0.00000   4.15740
    R5        2.06991  -0.00070  -0.00050  -0.00210  -0.00260   2.06731
    R6        2.07042   0.00275  -0.00062   0.00955   0.00893   2.07935
    R7        2.06896  -0.00222   0.00004  -0.00741  -0.00737   2.06159
    R8        2.22163   0.00573   0.00180   0.00453   0.00634   2.22797
    A1        2.02700   0.00297   0.00441   0.01418   0.01563   2.04263
    A2        2.08264   0.00391   0.00924   0.02391   0.02977   2.11241
    A3        1.79923   0.00095  -0.01354   0.00458  -0.00879   1.79044
    A4        2.04422  -0.00583   0.01745  -0.03198  -0.01747   2.02675
    A5        1.64769  -0.00520  -0.01806  -0.02282  -0.04058   1.60711
    A6        1.74042   0.00159  -0.01372   0.00322  -0.01000   1.73042
    A7        1.96950  -0.00008  -0.00065  -0.00061  -0.00130   1.96819
    A8        1.85214   0.00225  -0.00397   0.01900   0.01506   1.86721
    A9        1.92358  -0.00273   0.00323  -0.02173  -0.01848   1.90510
   A10        1.90945  -0.00106   0.00086  -0.00674  -0.00592   1.90353
   A11        1.90696   0.00144  -0.00020   0.00860   0.00835   1.91531
   A12        1.90057   0.00019   0.00073   0.00168   0.00252   1.90309
   A13        3.10393   0.00000   0.00124  -0.00093   0.00031   3.10424
   A14        2.88049  -0.00149  -0.00167  -0.03354  -0.03521   2.84528
    D1        2.89024  -0.00154  -0.02251  -0.01475  -0.03778   2.85246
    D2       -1.30202  -0.00142  -0.02449  -0.01100  -0.03597  -1.33798
    D3        0.75311  -0.00134  -0.02414  -0.00952  -0.03423   0.71888
    D4       -0.77820   0.00166   0.02161   0.00416   0.02639  -0.75181
    D5        1.31273   0.00178   0.01964   0.00791   0.02820   1.34093
    D6       -2.91533   0.00186   0.01998   0.00939   0.02995  -2.88538
    D7        1.02437  -0.00052   0.00191  -0.01099  -0.00916   1.01521
    D8        3.11530  -0.00040  -0.00006  -0.00723  -0.00735   3.10795
    D9       -1.11276  -0.00032   0.00029  -0.00575  -0.00561  -1.11837
         Item               Value     Threshold  Converged?
 Maximum Force            0.020176     0.000450     NO 
 RMS     Force            0.004649     0.000300     NO 
 Maximum Displacement     0.075034     0.001800     NO 
 RMS     Displacement     0.035029     0.001200     NO 
 Predicted change in Energy=-9.744164D-04
 Lowest energy point so far.  Saving SCF results.
 GradGradGradGradGradGradGradGradGradGradGradGradGradGradGradGradGradGrad

 Leave Link  103 at Tue Jan  7 22:46:42 2020, MaxMem=  4294967296 cpu:              50.0 elap:               3.7
 (Enter /home/cwagen/sw/g16/g16/l202.exe)
                          Input orientation:                          
 ---------------------------------------------------------------------
 Center     Atomic      Atomic             Coordinates (Angstroms)
 Number     Number       Type             X           Y           Z
 ---------------------------------------------------------------------
      1          6           0       -0.319601   -0.310218   -0.247844
      2          8           0       -0.210941   -0.648563   -1.444176
      3          6           0       -0.287718   -1.428732    0.797428
      4          1           0       -0.097827   -1.057701    1.808890
      5          1           0       -1.272428   -1.919171    0.773482
      6          1           0        0.478302   -2.154833    0.521456
      7         17           0       -1.061408    0.934685    0.139372
      8          6           0        1.724009    0.329152    0.256993
      9          7           0        2.876102    0.578612    0.278645
 ---------------------------------------------------------------------
                    Distance matrix (angstroms):
                    1          2          3          4          5
     1  C    0.000000
     2  O    1.247996   0.000000
     3  C    1.531237   2.374731   0.000000
     4  H    2.199561   3.280644   1.093973   0.000000
     5  H    2.130661   2.767527   1.100344   1.787145   0.000000
     6  H    2.151993   2.570528   1.090949   1.786927   1.784407
     7  Cl   1.500000   2.395328   2.572427   2.772252   2.931062
     8  C    2.200000   2.755710   2.725669   2.766014   3.781581
     9  N    3.358530   3.742179   3.782634   3.723362   4.867657
                    6          7          8          9
     6  H    0.000000
     7  Cl   3.473013   0.000000
     8  C    2.791399   2.852903   0.000000
     9  N    3.644190   3.956030   1.178989   0.000000
 Stoichiometry    C3H3ClNO(1-)
 Framework group  C1[X(C3H3ClNO)]
 Deg. of freedom    21
 Full point group                 C1      NOp   1
 RotChk:  IX=0 Diff= 5.18D-02
 Largest Abelian subgroup         C1      NOp   1
 Largest concise Abelian subgroup C1      NOp   1
                         Standard orientation:                         
 ---------------------------------------------------------------------
 Center     Atomic      Atomic             Coordinates (Angstroms)
 Number     Number       Type             X           Y           Z
 ---------------------------------------------------------------------
      1          6           0       -0.479510    0.301468    0.220219
      2          8           0       -0.498980    0.646502    1.419413
      3          6           0       -0.432844    1.419502   -0.825013
      4          1           0       -0.130564    1.062294   -1.813854
      5          1           0       -1.447018    1.841412   -0.889834
      6          1           0        0.254889    2.196327   -0.487767
      7         17           0       -1.098109   -0.991292   -0.222621
      8          6           0        1.639170   -0.196586   -0.100934
      9          7           0        2.803070   -0.366629   -0.020703
 ---------------------------------------------------------------------
 Rotational constants (GHZ):           4.0514860           2.0882197           1.8434005
 Leave Link  202 at Tue Jan  7 22:46:42 2020, MaxMem=  4294967296 cpu:               2.0 elap:               0.2
 (Enter /home/cwagen/sw/g16/g16/l301.exe)
 Standard basis: 6-31+G(d) (6D, 7F)
 Ernie: Thresh=  0.10000D-02 Tol=  0.10000D-05 Strict=F.
 There are   124 symmetry adapted cartesian basis functions of A   symmetry.
 There are   124 symmetry adapted basis functions of A   symmetry.
   124 basis functions,   228 primitive gaussians,   124 cartesian basis functions
    27 alpha electrons       27 beta electrons
       nuclear repulsion energy       262.7340739761 Hartrees.
 IExCor=  402 DFT=T Ex+Corr=B3LYP ExCW=0 ScaHFX=  0.200000
 ScaDFX=  0.800000  0.720000  1.000000  0.810000 ScalE2=  1.000000  1.000000
 IRadAn=      5 IRanWt=     -1 IRanGd=            0 ICorTp=0 IEmpDi=  4
 NAtoms=    9 NActive=    9 NUniq=    9 SFac= 1.00D+00 NAtFMM=   60 NAOKFM=F Big=F
 Integral buffers will be    131072 words long.
 Raffenetti 2 integral format.
 Two-electron integral symmetry is turned on.
 ------------------------------------------------------------------------------
 Polarizable Continuum Model (PCM)
 =================================
 Model                : PCM.
 Atomic radii         : SMD-Coulomb.
 Polarization charges : Total charges.
 Charge compensation  : None.
 Solution method      : On-the-fly selection.
 Cavity type          : VdW (van der Waals Surface) (Alpha=1.000).
 Cavity algorithm     : GePol (No added spheres)
                        Default sphere list used, NSphG=    9.
                        Lebedev-Laikov grids with approx.  5.0 points / Ang**2.
                        Smoothing algorithm: York/Karplus (Gamma=1.0000).
                        Polarization charges: spherical gaussians, with
                                              point-specific exponents (IZeta= 3).
                        Self-potential: point-specific (ISelfS= 7).
                        Self-field    : sphere-specific E.n sum rule (ISelfD= 2).
 1st derivatives      : Analytical E(r).r(x)/FMM algorithm (CHGder, D1EAlg=3).
                        Cavity 1st derivative terms included.
 Solvent              : TetraHydroFuran, Eps=   7.425700 Eps(inf)=   1.974025
 ------------------------------------------------------------------------------
 Spheres list:
 ISph  on   Nord     Re0    Alpha      Xe            Ye            Ze
    1   C      1    1.8500  1.000     -0.479510      0.301468      0.220219
    2   O      2    2.2940  1.000     -0.498980      0.646502      1.419413
    3   C      3    1.8500  1.000     -0.432844      1.419502     -0.825013
    4   H      4    1.2000  1.000     -0.130564      1.062294     -1.813854
    5   H      5    1.2000  1.000     -1.447018      1.841412     -0.889834
    6   H      6    1.2000  1.000      0.254889      2.196327     -0.487767
    7  Cl      7    2.3800  1.000     -1.098109     -0.991292     -0.222621
    8   C      8    1.8500  1.000      1.639170     -0.196586     -0.100934
    9   N      9    1.8900  1.000      2.803070     -0.366629     -0.020703
 ------------------------------------------------------------------------------
 GePol: Number of generator spheres                  =       9
 GePol: Total number of spheres                      =       9
 GePol: Number of exposed spheres                    =       9 (100.00%)
 GePol: Number of points                             =    1129
 GePol: Average weight of points                     =       0.13
 GePol: Minimum weight of points                     =   0.26D-07
 GePol: Maximum weight of points                     =    0.18138
 GePol: Number of points with low weight             =      32
 GePol: Fraction of low-weight points (<1% of avg)   =       2.83%
 GePol: Cavity surface area                          =    151.753 Ang**2
 GePol: Cavity volume                                =    139.479 Ang**3
 ------------------------------------------------------------------------------
 Atomic radii for non-electrostatic terms: SMD-CDS.
 ------------------------------------------------------------------------------
 PCM non-electrostatic energy =         0.0007073002 Hartrees.
 Nuclear repulsion after PCM non-electrostatic terms =      262.7347812763 Hartrees.
 Leave Link  301 at Tue Jan  7 22:46:43 2020, MaxMem=  4294967296 cpu:               2.4 elap:               0.2
 (Enter /home/cwagen/sw/g16/g16/l302.exe)
 NPDir=0 NMtPBC=     1 NCelOv=     1 NCel=       1 NClECP=     1 NCelD=      1
         NCelK=      1 NCelE2=     1 NClLst=     1 CellRange=     0.0.
 One-electron integrals computed using PRISM.
 One-electron integral symmetry used in STVInt
 NBasis=   124 RedAO= T EigKep=  3.52D-05  NBF=   124
 NBsUse=   124 1.00D-06 EigRej= -1.00D+00 NBFU=   124
 Precomputing XC quadrature grid using
 IXCGrd= 4 IRadAn=           5 IRanWt=          -1 IRanGd=           0 AccXCQ= 0.00D+00.
 Generated NRdTot=       0 NPtTot=           0 NUsed=           0 NTot=          32
 NSgBfM=   124   124   124   124   124 MxSgAt=     9 MxSgA2=     9.
 Leave Link  302 at Tue Jan  7 22:46:45 2020, MaxMem=  4294967296 cpu:              24.4 elap:               1.9
 (Enter /home/cwagen/sw/g16/g16/l303.exe)
 DipDrv:  MaxL=1.
 Leave Link  303 at Tue Jan  7 22:46:45 2020, MaxMem=  4294967296 cpu:               3.2 elap:               0.3
[...]
      8        6           0.019433281    0.006264130    0.005150951
      9        7           0.000007564   -0.000018765   -0.000051511
 -------------------------------------------------------------------
 Cartesian Forces:  Max     0.191842432 RMS     0.061648726
 Leave Link  716 at Tue Jan  7 22:52:36 2020, MaxMem=  4294967296 cpu:               1.3 elap:               0.1
 (Enter /home/cwagen/sw/g16/g16/l103.exe)

 GradGradGradGradGradGradGradGradGradGradGradGradGradGradGradGradGradGrad
 Berny optimization.
 Using GEDIIS/GDIIS optimizer.
 FormGI is forming the generalized inverse of G from B-inverse, IUseBI=4.
 Internal  Forces:  Max     0.227379160 RMS     0.041013278
 Search for a local minimum.
 Step number   9 out of a maximum of   41
 All quantities printed in internal units (Hartrees-Bohrs-Radians)
 RMS Force = .68798D-05 SwitMx=.10000D-02 MixMth= 2
 Mixed Optimization -- En-DIIS/RFO-DIIS
 Swapping is turned off.
 Update second derivatives using D2CorX and points    1    2    3    4    5
                                                      6    7    8    9
 DE=  8.70D-09 DEPred=-1.19D-07 R=-7.34D-02
 Trust test=-7.34D-02 RLast= 5.28D-03 DXMaxT set to 2.52D-01
 ITU= -1  1  1  1  1  1  1  1  0
     Eigenvalues ---    0.00367   0.00950   0.04345   0.05348   0.05942
     Eigenvalues ---    0.08194   0.10016   0.15100   0.16313   0.16471
     Eigenvalues ---    0.22397   0.25194   0.25941   0.33853   0.34077
     Eigenvalues ---    0.34681   0.37802   0.61190   1.212291000.00000
     Eigenvalues --- 1000.000001000.000001000.000001000.000001000.00000
     Eigenvalues --- 1000.000001000.000001000.000001000.000001000.00000
     Eigenvalues --- 1000.00000
 En-DIIS/RFO-DIIS/Sim-DIIS IScMMF=       -3 using points:     9    8    7    6    5    4
 RFO step:  Lambda=-5.21669514D-05.
 NNeg= 0 NGDIIS= 6 SimSw=  2.50D-03 Rises=F DC=  8.70D-09 SmlDif=  1.00D-05
 NRisDI= 0 DoIntr=F SqrtH=F CThrHd= 10.0 CDAdj=  3.0
 RMS Error=  0.2247487598D-03 NUsed= 6 OKEnD=F EnDIS=F
 InvSVX:  RCond= 2.83D-08 Info=           0 Equed=N FErr=  2.84D-13 BErr=  1.00D-16
 DIIS inversion failure, remove point   6.
 InvSVX:  RCond= 3.89D-08 Info=           0 Equed=N FErr=  1.32D-13 BErr=  9.75D-17
 DIIS inversion failure, remove point   5.
 InvSVX:  RCond= 1.38D-07 Info=           0 Equed=N FErr=  4.55D-14 BErr=  7.63D-17
 RFO-DIIS uses    4 points instead of    6
 DidBck=F Rises=F RFO-DIIS coefs:    1.06275   -0.05826   -0.03172    0.02723    0.00000
                  RFO-DIIS coefs:    0.00000
 Iteration  1 RMS(Cart)=  0.00029727 RMS(Int)=  0.00000010
 Iteration  2 RMS(Cart)=  0.00000008 RMS(Int)=  0.00000006
 Iteration  1 RMS(Cart)=  0.00000000 RMS(Int)=  0.00000000
 ITry= 1 IFail=0 DXMaxC= 9.03D-04 DCOld= 1.00D+10 DXMaxT= 2.52D-01 DXLimC= 3.00D+00 Rises=F
 Variable       Old X    -DE/DX   Delta X   Delta X   Delta X     New X
                                 (Linear)    (Quad)   (Total)
    R1        2.35785  -0.00002  -0.00001  -0.00001  -0.00002   2.35782
    R2        2.90445  -0.00001   0.00002  -0.00008  -0.00006   2.90439
    R3        2.83459   0.22738   0.00000   0.00000   0.00000   2.83459
    R4        4.15740   0.02106   0.00000   0.00000   0.00000   4.15740
    R5        2.06572   0.00000   0.00000   0.00001   0.00001   2.06573
    R6        2.08077   0.00000   0.00002  -0.00001   0.00000   2.08077
    R7        2.06278   0.00000   0.00001   0.00000   0.00001   2.06279
    R8        2.22776   0.00000   0.00000   0.00000   0.00000   2.22776
    A1        2.05301   0.00000   0.00006  -0.00005   0.00000   2.05301
    A2        2.10505  -0.00001  -0.00002  -0.00001  -0.00003   2.10502
    A3        1.76893   0.00001   0.00002   0.00007   0.00009   1.76902
    A4        2.02268   0.00000  -0.00007   0.00006   0.00000   2.02268
    A5        1.61550  -0.00001  -0.00002   0.00001  -0.00001   1.61549
    A6        1.74713   0.00000   0.00005  -0.00007  -0.00002   1.74711
    A7        1.96792  -0.00001  -0.00001  -0.00003  -0.00004   1.96788
    A8        1.87115   0.00001   0.00004   0.00003   0.00007   1.87122
    A9        1.91121   0.00001   0.00002  -0.00002   0.00001   1.91121
   A10        1.89752   0.00000  -0.00004   0.00004   0.00000   1.89752
   A11        1.91709   0.00000   0.00001  -0.00006  -0.00005   1.91704
   A12        1.89721   0.00000  -0.00003   0.00005   0.00002   1.89723
   A13        3.05510   0.00002   0.00004   0.00053   0.00056   3.05566
   A14        2.67218  -0.00001  -0.00012  -0.00007  -0.00019   2.67199
    D1        2.84241   0.00000  -0.00032  -0.00002  -0.00034   2.84207
    D2       -1.35301   0.00000  -0.00034   0.00003  -0.00032  -1.35333
    D3        0.70235   0.00001  -0.00034   0.00009  -0.00025   0.70209
    D4       -0.76618   0.00000  -0.00038  -0.00002  -0.00041  -0.76659
    D5        1.32158   0.00000  -0.00041   0.00002  -0.00039   1.32120
    D6       -2.90624   0.00000  -0.00041   0.00008  -0.00032  -2.90657
    D7        1.02326   0.00000  -0.00034  -0.00009  -0.00043   1.02283
    D8        3.11102   0.00000  -0.00037  -0.00005  -0.00041   3.11061
    D9       -1.11680   0.00000  -0.00037   0.00002  -0.00035  -1.11715
         Item               Value     Threshold  Converged?
 Maximum Force            0.000023     0.000450     YES
 RMS     Force            0.000007     0.000300     YES
 Maximum Displacement     0.000903     0.001800     YES
 RMS     Displacement     0.000297     0.001200     YES
 Predicted change in Energy=-1.111994D-08
 Optimization completed.
    -- Stationary point found.
                           ----------------------------
                           !   Optimized Parameters   !
                           ! (Angstroms and Degrees)  !
 --------------------------                            --------------------------
 ! Name  Definition              Value          Derivative Info.                !
 --------------------------------------------------------------------------------
 ! R1    R(1,2)                  1.2477         -DE/DX =    0.0                 !
 ! R2    R(1,3)                  1.537          -DE/DX =    0.0                 !
 ! R3    R(1,7)                  1.5            -DE/DX =    0.2274              !
 ! R4    R(1,8)                  2.2            -DE/DX =    0.0211              !
 ! R5    R(3,4)                  1.0931         -DE/DX =    0.0                 !
 ! R6    R(3,5)                  1.1011         -DE/DX =    0.0                 !
 ! R7    R(3,6)                  1.0916         -DE/DX =    0.0                 !
 ! R8    R(8,9)                  1.1789         -DE/DX =    0.0                 !
 ! A1    A(2,1,3)              117.6287         -DE/DX =    0.0                 !
 ! A2    A(2,1,7)              120.6108         -DE/DX =    0.0                 !
 ! A3    A(2,1,8)              101.352          -DE/DX =    0.0                 !
 ! A4    A(3,1,7)              115.891          -DE/DX =    0.0                 !
 ! A5    A(3,1,8)               92.5614         -DE/DX =    0.0                 !
 ! A6    A(7,1,8)              100.1033         -DE/DX =    0.0                 !
 ! A7    A(1,3,4)              112.7535         -DE/DX =    0.0                 !
 ! A8    A(1,3,5)              107.2093         -DE/DX =    0.0                 !
 ! A9    A(1,3,6)              109.5042         -DE/DX =    0.0                 !
 ! A10   A(4,3,5)              108.7201         -DE/DX =    0.0                 !
 ! A11   A(4,3,6)              109.8411         -DE/DX =    0.0                 !
 ! A12   A(5,3,6)              108.7024         -DE/DX =    0.0                 !
 ! A13   L(1,8,9,6,-1)         175.0442         -DE/DX =    0.0                 !
 ! A14   L(1,8,9,6,-2)         153.1047         -DE/DX =    0.0                 !
 ! D1    D(2,1,3,4)            162.858          -DE/DX =    0.0                 !
 ! D2    D(2,1,3,5)            -77.522          -DE/DX =    0.0                 !
 ! D3    D(2,1,3,6)             40.2414         -DE/DX =    0.0                 !
 ! D4    D(7,1,3,4)            -43.8988         -DE/DX =    0.0                 !
 ! D5    D(7,1,3,5)             75.7211         -DE/DX =    0.0                 !
 ! D6    D(7,1,3,6)           -166.5155         -DE/DX =    0.0                 !
 ! D7    D(8,1,3,4)             58.6285         -DE/DX =    0.0                 !
 ! D8    D(8,1,3,5)            178.2484         -DE/DX =    0.0                 !
 ! D9    D(8,1,3,6)            -63.9882         -DE/DX =    0.0                 !
 --------------------------------------------------------------------------------
 Largest change from initial coordinates is atom    5       0.199 Angstoms.
 GradGradGradGradGradGradGradGradGradGradGradGradGradGradGradGradGradGrad

 Leave Link  103 at Tue Jan  7 22:52:40 2020, MaxMem=  4294967296 cpu:              45.9 elap:               3.4
 (Enter /home/cwagen/sw/g16/g16/l202.exe)
                          Input orientation:                          
 ---------------------------------------------------------------------
 Center     Atomic      Atomic             Coordinates (Angstroms)
 Number     Number       Type             X           Y           Z
 ---------------------------------------------------------------------
      1          6           0       -0.308296   -0.300879   -0.236599
      2          8           0       -0.154359   -0.614327   -1.434454
      3          6           0       -0.292905   -1.432070    0.803807
      4          1           0       -0.133877   -1.067778    1.822111
      5          1           0       -1.272931   -1.931767    0.756261
      6          1           0        0.481929   -2.155709    0.543958
      7         17           0       -1.090081    0.923178    0.138228
      8          6           0        1.720564    0.356715    0.303121
      9          7           0        2.878446    0.545867    0.187813
 ---------------------------------------------------------------------
                    Distance matrix (angstroms):
                    1          2          3          4          5
     1  C    0.000000
     2  O    1.247719   0.000000
     3  C    1.536970   2.386988   0.000000
     4  H    2.203825   3.288047   1.093134   0.000000
     5  H    2.139179   2.790355   1.101094   1.783243   0.000000
     6  H    2.161971   2.587438   1.091578   1.787872   1.781784
     7  Cl   1.500000   2.390153   2.574039   2.777354   2.926792
     8  C    2.200000   2.734489   2.739434   2.788452   3.795194
     9  N    3.324519   3.629836   3.788027   3.787990   4.867826
                    6          7          8          9
     6  H    0.000000
     7  Cl   3.480715   0.000000
     8  C    2.811494   2.871898   0.000000
     9  N    3.628863   3.986732   1.178882   0.000000
 Stoichiometry    C3H3ClNO(1-)
 Framework group  C1[X(C3H3ClNO)]
 Deg. of freedom    21
 Full point group                 C1      NOp   1
 RotChk:  IX=0 Diff= 1.75D-15
 Largest Abelian subgroup         C1      NOp   1
 Largest concise Abelian subgroup C1      NOp   1
                         Standard orientation:                         
 ---------------------------------------------------------------------
 Center     Atomic      Atomic             Coordinates (Angstroms)
 Number     Number       Type             X           Y           Z
 ---------------------------------------------------------------------
      1          6           0       -0.453613    0.292326    0.233633
      2          8           0       -0.383310    0.563339    1.449533
      3          6           0       -0.435963    1.464697   -0.760104
      4          1           0       -0.201784    1.150463   -1.780573
      5          1           0       -1.440798    1.914837   -0.750752
      6          1           0        0.285944    2.213105   -0.428021
      7         17           0       -1.151021   -0.951125   -0.232682
      8          6           0        1.632715   -0.245317   -0.211536
      9          7           0        2.790235   -0.383746   -0.036183
 ---------------------------------------------------------------------
 Rotational constants (GHZ):           4.0993039           2.0756632           1.8490764
 Leave Link  202 at Tue Jan  7 22:52:40 2020, MaxMem=  4294967296 cpu:               2.1 elap:               0.2
 (Enter /home/cwagen/sw/g16/g16/l601.exe)
 Copying SCF densities to generalized density rwf, IOpCl= 0 IROHF=0.

 **********************************************************************

            Population analysis using the SCF density.

 **********************************************************************

 Orbital symmetries:
       Occupied  (A) (A) (A) (A) (A) (A) (A) (A) (A) (A) (A) (A)
                 (A) (A) (A) (A) (A) (A) (A) (A) (A) (A) (A) (A)
                 (A) (A) (A)
       Virtual   (A) (A) (A) (A) (A) (A) (A) (A) (A) (A) (A) (A)
                 (A) (A) (A) (A) (A) (A) (A) (A) (A) (A) (A) (A)
                 (A) (A) (A) (A) (A) (A) (A) (A) (A) (A) (A) (A)
                 (A) (A) (A) (A) (A) (A) (A) (A) (A) (A) (A) (A)
                 (A) (A) (A) (A) (A) (A) (A) (A) (A) (A) (A) (A)
                 (A) (A) (A) (A) (A) (A) (A) (A) (A) (A) (A) (A)
                 (A) (A) (A) (A) (A) (A) (A) (A) (A) (A) (A) (A)
                 (A) (A) (A) (A) (A) (A) (A) (A) (A) (A) (A) (A)
                 (A)
 The electronic state is 1-A.
 Alpha  occ. eigenvalues -- -101.53896 -19.09407 -14.26603 -10.28900 -10.16194
 Alpha  occ. eigenvalues --  -10.13153  -9.46285  -7.22568  -7.21715  -7.21588
 Alpha  occ. eigenvalues --   -1.01920  -0.89218  -0.82327  -0.70447  -0.54304
 Alpha  occ. eigenvalues --   -0.46034  -0.44837  -0.42721  -0.37220  -0.36506
 Alpha  occ. eigenvalues --   -0.34651  -0.29639  -0.29297  -0.27127  -0.26426
 Alpha  occ. eigenvalues --   -0.23263  -0.22178
 Alpha virt. eigenvalues --   -0.00037   0.03174   0.05045   0.06065   0.06488
 Alpha virt. eigenvalues --    0.07673   0.08632   0.09228   0.09603   0.09655
 Alpha virt. eigenvalues --    0.10576   0.11185   0.12504   0.13773   0.14061
 Alpha virt. eigenvalues --    0.15006   0.16671   0.18667   0.20554   0.22192
 Alpha virt. eigenvalues --    0.24519   0.24774   0.25222   0.26072   0.26866
 Alpha virt. eigenvalues --    0.28470   0.29090   0.31281   0.33838   0.35694
 Alpha virt. eigenvalues --    0.36808   0.39783   0.43539   0.55103   0.61921
 Alpha virt. eigenvalues --    0.63557   0.64942   0.66257   0.68026   0.72384
 Alpha virt. eigenvalues --    0.73812   0.75878   0.78490   0.81073   0.82302
 Alpha virt. eigenvalues --    0.83732   0.86369   0.89977   0.92519   0.94214
 Alpha virt. eigenvalues --    1.01520   1.03038   1.03809   1.05074   1.07359
 Alpha virt. eigenvalues --    1.12433   1.17031   1.19701   1.25972   1.31712
 Alpha virt. eigenvalues --    1.34208   1.37166   1.38739   1.43208   1.52535
 Alpha virt. eigenvalues --    1.54571   1.61062   1.63040   1.63749   1.68080
 Alpha virt. eigenvalues --    1.73520   1.80972   1.84050   1.87220   1.95587
 Alpha virt. eigenvalues --    1.99491   2.03914   2.08560   2.10739   2.26270
 Alpha virt. eigenvalues --    2.28633   2.33734   2.39216   2.55296   2.59834
 Alpha virt. eigenvalues --    2.65009   2.66469   2.72261   2.87926   3.05922
 Alpha virt. eigenvalues --    3.10913   4.04983   4.26000   4.31104   4.38289
 Alpha virt. eigenvalues --    4.40211   4.56547
          Condensed to atoms (all electrons):
               1          2          3          4          5          6
     1  C    7.202854   0.452754  -0.548982  -0.106821   0.030184  -0.121798
     2  O    0.452754   8.416720  -0.111680   0.009953  -0.009085   0.000170
     3  C   -0.548982  -0.111680   6.492503   0.390051   0.303708   0.440112
     4  H   -0.106821   0.009953   0.390051   0.495382  -0.029566  -0.025036
     5  H    0.030184  -0.009085   0.303708  -0.029566   0.503779  -0.024203
     6  H   -0.121798   0.000170   0.440112  -0.025036  -0.024203   0.471801
     7  Cl  -0.789012  -0.156862   0.034215   0.032025  -0.011620   0.021092
     8  C    0.260328  -0.174678  -0.611744   0.007774   0.017298  -0.000112
     9  N   -0.040775  -0.003011   0.019385  -0.000904  -0.000147  -0.000141
               7          8          9
     1  C   -0.789012   0.260328  -0.040775
     2  O   -0.156862  -0.174678  -0.003011
     3  C    0.034215  -0.611744   0.019385
     4  H    0.032025   0.007774  -0.000904
     5  H   -0.011620   0.017298  -0.000147
     6  H    0.021092  -0.000112  -0.000141
     7  Cl  17.629057  -0.086759   0.004995
     8  C   -0.086759   6.097895   0.639105
     9  N    0.004995   0.639105   7.069578
 Mulliken charges:
               1
     1  C   -0.338734
     2  O   -0.424283
     3  C   -0.407568
     4  H    0.227140
     5  H    0.219652
     6  H    0.238115
     7  Cl   0.322869
     8  C   -0.149107
     9  N   -0.688086
 Sum of Mulliken charges =  -1.00000
 Mulliken charges with hydrogens summed into heavy atoms:
               1
     1  C   -0.338734
     2  O   -0.424283
     3  C    0.277339
     7  Cl   0.322869
     8  C   -0.149107
     9  N   -0.688086
 Electronic spatial extent (au):  <R**2>=            721.8988
 Charge=             -1.0000 electrons
 Dipole moment (field-independent basis, Debye):
    X=             -8.6345    Y=              1.1606    Z=             -3.2790  Tot=              9.3088
 Quadrupole moment (field-independent basis, Debye-Ang):
   XX=            -71.6898   YY=            -45.3678   ZZ=            -51.4761
   XY=              3.7493   XZ=              2.2092   YZ=             -2.6035
 Traceless Quadrupole moment (field-independent basis, Debye-Ang):
   XX=            -15.5119   YY=             10.8101   ZZ=              4.7018
   XY=              3.7493   XZ=              2.2092   YZ=             -2.6035
 Octapole moment (field-independent basis, Debye-Ang**2):
  XXX=           -102.0436  YYY=             -1.3305  ZZZ=             -7.8847  XYY=             -9.9413
  XXY=             11.1352  XXZ=              1.3291  XZZ=             -5.3112  YZZ=             -3.8326
  YYZ=             -1.4707  XYZ=              0.2796
 Hexadecapole moment (field-independent basis, Debye-Ang**3):
 XXXX=           -857.5476 YYYY=           -255.4329 ZZZZ=           -191.7315 XXXY=             42.6236
 XXXZ=              5.1891 YYYX=             16.7804 YYYZ=              2.8419 ZZZX=              6.4575
 ZZZY=             -2.9879 XXYY=           -148.4367 XXZZ=           -137.0627 YYZZ=            -77.4301
 XXYZ=              0.7941 YYXZ=              3.0592 ZZXY=              5.3848
 N-N= 2.627021920495D+02 E-N=-2.203844589633D+03  KE= 7.032487728633D+02
 No NMR shielding tensors so no spin-rotation constants.
 Leave Link  601 at Tue Jan  7 22:52:42 2020, MaxMem=  4294967296 cpu:              19.0 elap:               1.5
 (Enter /home/cwagen/sw/g16/g16/l9999.exe)
 1\1\GINC-NODE041\FOpt\RB3LYP\6-31+G(d)\C3H3Cl1N1O1(1-)\CWAGEN\07-Jan-2
 020\0\\#p opt=modredundant b3lyp/6-31+g(d) scrf=(smd, solvent=tetrahyd
 rofuran)\\title\\-1,1\C,-0.3082955198,-0.3008786694,-0.2365992651\O,-0
 .1543589555,-0.6143274458,-1.4344543556\C,-0.2929054925,-1.4320699242,
 0.8038070419\H,-0.1338773727,-1.067778254,1.8221108114\H,-1.2729310235
 ,-1.9317668648,0.7562605166\H,0.4819287065,-2.1557092032,0.5439582783\
 Cl,-1.0900812046,0.9231782461,0.1382284589\C,1.720564306,0.3567154596,
 0.3031208119\N,2.8784458261,0.5458667456,0.1878130716\\Version=AS64L-G
 16RevA.03\State=1-A\HF=-706.3470656\RMSD=9.764e-09\RMSF=6.165e-02\Dipo
 le=-3.4409814,-0.575747,1.1140337\Quadrupole=-10.9924529,7.5505061,3.4
 419468,-3.6717198,-2.2561754,-2.3887445\PG=C01 [X(C3H3Cl1N1O1)]\\@


 NEVER LOSE YOUR IGNORANCE, IT CAN'T BE REPLACED.
   -- ANDY CAPP
 Job cpu time:       0 days  1 hours 42 minutes 55.3 seconds.
 Elapsed time:       0 days  0 hours  8 minutes  2.3 seconds.
 File lengths (MBytes):  RWF=     33 Int=      0 D2E=      0 Chk=      3 Scr=      1
 Normal termination of Gaussian 16 at Tue Jan  7 22:52:42 2020.
