 Entering Gaussian System, Link 0=g16
 Input=scan_250_180.gjf
 Output=scan_250_180.out
 Initial command:
 /home/cwagen/sw/g16/g16/l1.exe "/scratch/users/cwagen/cwagen_scan_250_180/Gau-12208.inp" -scrdir="/scratch/users/cwagen/cwagen_scan_250_180/"
 Entering Link 1 = /home/cwagen/sw/g16/g16/l1.exe PID=     12209.
  
 Copyright (c) 1988,1990,1992,1993,1995,1998,2003,2009,2016,
            Gaussian, Inc.  All Rights Reserved.
  
 This is part of the Gaussian(R) 16 program.  It is based on
 the Gaussian(R) 09 system (copyright 2009, Gaussian, Inc.),
 the Gaussian(R) 03 system (copyright 2003, Gaussian, Inc.),
 the Gaussian(R) 98 system (copyright 1998, Gaussian, Inc.),
 the Gaussian(R) 94 system (copyright 1995, Gaussian, Inc.),
 the Gaussian 92(TM) system (copyright 1992, Gaussian, Inc.),
 the Gaussian 90(TM) system (copyright 1990, Gaussian, Inc.),
 the Gaussian 88(TM) system (copyright 1988, Gaussian, Inc.),
 the Gaussian 86(TM) system (copyright 1986, Carnegie Mellon
 University), and the Gaussian 82(TM) system (copyright 1983,
 Carnegie Mellon University). Gaussian is a federally registered
 trademark of Gaussian, Inc.
  
 This software contains proprietary and confidential information,
 including trade secrets, belonging to Gaussian, Inc.
  
 This software is provided under written license and may be
 used, copied, transmitted, or stored only in accord with that
 written license.
  
 The following legend is applicable only to US Government
 contracts under FAR:
  
                    RESTRICTED RIGHTS LEGEND
  
 Use, reproduction and disclosure by the US Government is
 subject to restrictions as set forth in subparagraphs (a)
 and (c) of the Commercial Computer Software - Restricted
 Rights clause in FAR 52.227-19.
  
 Gaussian, Inc.
 340 Quinnipiac St., Bldg. 40, Wallingford CT 06492
  
  
 ---------------------------------------------------------------
 Warning -- This program may not be used in any manner that
 competes with the business of Gaussian, Inc. or will provide
 assistance to any competitor of Gaussian, Inc.  The licensee
 of this program is prohibited from giving any competitor of
 Gaussian, Inc. access to this program.  By using this program,
 the user acknowledges that Gaussian, Inc. is engaged in the
 business of creating and licensing software in the field of
 computational chemistry and represents and warrants to the
 licensee that it is not a competitor of Gaussian, Inc. and that
 it will not use this program in any manner prohibited above.
 ---------------------------------------------------------------
  

 Cite this work as:
 Gaussian 16, Revision A.03,
 M. J. Frisch, G. W. Trucks, H. B. Schlegel, G. E. Scuseria, 
 M. A. Robb, J. R. Cheeseman, G. Scalmani, V. Barone, 
 G. A. Petersson, H. Nakatsuji, X. Li, M. Caricato, A. V. Marenich, 
 J. Bloino, B. G. Janesko, R. Gomperts, B. Mennucci, H. P. Hratchian, 
 J. V. Ortiz, A. F. Izmaylov, J. L. Sonnenberg, D. Williams-Young, 
 F. Ding, F. Lipparini, F. Egidi, J. Goings, B. Peng, A. Petrone, 
 T. Henderson, D. Ranasinghe, V. G. Zakrzewski, J. Gao, N. Rega, 
 G. Zheng, W. Liang, M. Hada, M. Ehara, K. Toyota, R. Fukuda, 
 J. Hasegawa, M. Ishida, T. Nakajima, Y. Honda, O. Kitao, H. Nakai, 
 T. Vreven, K. Throssell, J. A. Montgomery, Jr., J. E. Peralta, 
 F. Ogliaro, M. J. Bearpark, J. J. Heyd, E. N. Brothers, K. N. Kudin, 
 V. N. Staroverov, T. A. Keith, R. Kobayashi, J. Normand, 
 K. Raghavachari, A. P. Rendell, J. C. Burant, S. S. Iyengar, 
 J. Tomasi, M. Cossi, J. M. Millam, M. Klene, C. Adamo, R. Cammi, 
 J. W. Ochterski, R. L. Martin, K. Morokuma, O. Farkas, 
 J. B. Foresman, and D. J. Fox, Gaussian, Inc., Wallingford CT, 2016.
 
 ******************************************
 Gaussian 16:  AS64L-G16RevA.03 25-Dec-2016
                 8-Jan-2020 
 ******************************************
 %nprocshared=16
 Will use up to   16 processors via shared memory.
 %mem=32GB
 ----------------------------------------------------------------------
 #p opt=modredundant b3lyp/6-31+g(d) scrf=(smd, solvent=tetrahydrofuran
 )
 ----------------------------------------------------------------------
 1/18=120,19=15,26=3,38=1/1,3;
 2/9=110,12=2,17=6,18=5,40=1/2;
 3/5=1,6=6,7=11,11=2,25=1,30=1,70=32201,71=1,72=20,74=-5/1,2,3;
 4//1;
 5/5=2,38=5,53=20/2;
 6/7=2,8=2,9=2,10=2,28=1/1;
 7//1,2,3,16;
 1/18=20,19=15,26=3/3(2);
 2/9=110/2;
 99//99;
 2/9=110/2;
 3/5=1,6=6,7=11,11=2,25=1,30=1,70=32205,71=1,72=20,74=-5/1,2,3;
 4/5=5,16=3,69=1/1;
 5/5=2,38=5,53=20/2;
 7//1,2,3,16;
 1/18=20,19=15,26=3/3(-5);
 2/9=110/2;
 6/7=2,8=2,9=2,10=2,19=2,28=1/1;
 99/9=1/99;
 Leave Link    1 at Wed Jan  8 01:13:53 2020, MaxMem=  4294967296 cpu:               1.9 elap:               0.2
 (Enter /home/cwagen/sw/g16/g16/l101.exe)
 -----
 title
 -----
 Symbolic Z-matrix:
 Charge = -1 Multiplicity = 1
 6                    -0.19426  -0.292    -0.21291 
 8                    -0.25532  -0.66526  -1.45426 
 6                    -0.33095  -1.45422   0.81632 
 1                    -0.18039  -1.13044   1.85373 
 1                    -1.34067  -1.87301   0.71427 
 1                     0.39707  -2.23395   0.57058 
 17                   -1.69111   1.60688   0.42247 
 6                     1.47456   0.29238   0.12406 
 7                     2.60913   0.57268   0.15436 
 
 Add virtual bond connecting atoms Cl7        and C1         Dist= 4.72D+00.
 The following ModRedundant input section has been read:
 B       1       7 F                                                           
 B       1       8 F                                                           
 
 ITRead=  0  0  0  0  0  0  0  0  0
 MicOpt= -1 -1 -1 -1 -1 -1 -1 -1 -1
 NAtoms=      9 NQM=        9 NQMF=       0 NMMI=      0 NMMIF=      0
                NMic=       0 NMicF=      0.
                    Isotopes and Nuclear Properties:
 (Nuclear quadrupole moments (NQMom) in fm**2, nuclear magnetic moments (NMagM)
  in nuclear magnetons)

  Atom         1           2           3           4           5           6           7           8           9
 IAtWgt=          12          16          12           1           1           1          35          12          14
 AtmWgt=  12.0000000  15.9949146  12.0000000   1.0078250   1.0078250   1.0078250  34.9688527  12.0000000  14.0030740
 NucSpn=           0           0           0           1           1           1           3           0           2
 AtZEff=   0.0000000   0.0000000   0.0000000   0.0000000   0.0000000   0.0000000   0.0000000   0.0000000   0.0000000
 NQMom=    0.0000000   0.0000000   0.0000000   0.0000000   0.0000000   0.0000000  -8.1650000   0.0000000   2.0440000
 NMagM=    0.0000000   0.0000000   0.0000000   2.7928460   2.7928460   2.7928460   0.8218740   0.0000000   0.4037610
 AtZNuc=   6.0000000   8.0000000   6.0000000   1.0000000   1.0000000   1.0000000  17.0000000   6.0000000   7.0000000
 Leave Link  101 at Wed Jan  8 01:13:53 2020, MaxMem=  4294967296 cpu:               7.9 elap:               0.6
 (Enter /home/cwagen/sw/g16/g16/l103.exe)

 GradGradGradGradGradGradGradGradGradGradGradGradGradGradGradGradGradGrad
 Berny optimization.
 Initialization pass.
                           ----------------------------
                           !    Initial Parameters    !
                           ! (Angstroms and Degrees)  !
 --------------------------                            --------------------------
 ! Name  Definition              Value          Derivative Info.                !
 --------------------------------------------------------------------------------
 ! R1    R(1,2)                  1.2977         estimate D2E/DX2                !
 ! R2    R(1,3)                  1.5584         estimate D2E/DX2                !
 ! R3    R(1,7)                  2.5            Frozen                          !
 ! R4    R(1,8)                  1.8            Frozen                          !
 ! R5    R(3,4)                  1.0971         estimate D2E/DX2                !
 ! R6    R(3,5)                  1.0979         estimate D2E/DX2                !
 ! R7    R(3,6)                  1.0947         estimate D2E/DX2                !
 ! R8    R(8,9)                  1.1691         estimate D2E/DX2                !
 ! A1    A(2,1,3)              114.4006         estimate D2E/DX2                !
 ! A2    A(2,1,7)              115.6846         estimate D2E/DX2                !
 ! A3    A(2,1,8)              108.426          estimate D2E/DX2                !
 ! A4    A(3,1,7)              110.248          estimate D2E/DX2                !
 ! A5    A(3,1,8)              101.5248         estimate D2E/DX2                !
 ! A6    A(7,1,8)              105.1256         estimate D2E/DX2                !
 ! A7    A(1,3,4)              113.1005         estimate D2E/DX2                !
 ! A8    A(1,3,5)              107.683          estimate D2E/DX2                !
 ! A9    A(1,3,6)              108.9421         estimate D2E/DX2                !
 ! A10   A(4,3,5)              109.0662         estimate D2E/DX2                !
 ! A11   A(4,3,6)              109.3417         estimate D2E/DX2                !
 ! A12   A(5,3,6)              108.6067         estimate D2E/DX2                !
 ! A13   L(1,8,9,6,-1)         177.5203         estimate D2E/DX2                !
 ! A14   L(1,8,9,6,-2)         166.8283         estimate D2E/DX2                !
 ! D1    D(2,1,3,4)            174.4714         estimate D2E/DX2                !
 ! D2    D(2,1,3,5)            -64.9488         estimate D2E/DX2                !
 ! D3    D(2,1,3,6)             52.6633         estimate D2E/DX2                !
 ! D4    D(7,1,3,4)            -53.1046         estimate D2E/DX2                !
 ! D5    D(7,1,3,5)             67.4752         estimate D2E/DX2                !
 ! D6    D(7,1,3,6)           -174.9127         estimate D2E/DX2                !
 ! D7    D(8,1,3,4)             57.938          estimate D2E/DX2                !
 ! D8    D(8,1,3,5)            178.5177         estimate D2E/DX2                !
 ! D9    D(8,1,3,6)            -63.8702         estimate D2E/DX2                !
 --------------------------------------------------------------------------------
 Trust Radius=3.00D-01 FncErr=1.00D-07 GrdErr=1.00D-06 EigMax=2.50D+02 EigMin=1.00D-04
 Number of steps in this run=     41 maximum allowed number of steps=    100.
 GradGradGradGradGradGradGradGradGradGradGradGradGradGradGradGradGradGrad

 Leave Link  103 at Wed Jan  8 01:13:53 2020, MaxMem=  4294967296 cpu:               0.6 elap:               0.1
 (Enter /home/cwagen/sw/g16/g16/l202.exe)
                          Input orientation:                          
 ---------------------------------------------------------------------
 Center     Atomic      Atomic             Coordinates (Angstroms)
 Number     Number       Type             X           Y           Z
 ---------------------------------------------------------------------
      1          6           0       -0.194263   -0.291999   -0.212908
      2          8           0       -0.255321   -0.665256   -1.454255
      3          6           0       -0.330945   -1.454221    0.816316
      4          1           0       -0.180394   -1.130438    1.853734
      5          1           0       -1.340665   -1.873010    0.714272
      6          1           0        0.397068   -2.233949    0.570583
      7         17           0       -1.691111    1.606880    0.422470
      8          6           0        1.474556    0.292377    0.124059
      9          7           0        2.609127    0.572675    0.154362
 ---------------------------------------------------------------------
                    Distance matrix (angstroms):
                    1          2          3          4          5
     1  C    0.000000
     2  O    1.297687   0.000000
     3  C    1.558443   2.404928   0.000000
     4  H    2.230287   3.341377   1.097150   0.000000
     5  H    2.161827   2.709087   1.097876   1.787740   0.000000
     6  H    2.175937   2.643176   1.094698   1.788205   1.780629
     7  Cl   2.500000   3.278138   3.372759   3.438560   3.509643
     8  C    1.800000   2.529943   2.605697   2.784787   3.600378
     9  N    2.956610   3.510724   3.631875   3.683733   4.679288
                    6          7          8          9
     6  H    0.000000
     7  Cl   4.374288   0.000000
     8  C    2.782569   3.440700   0.000000
     9  N    3.597719   4.430972   1.169075   0.000000
 Stoichiometry    C3H3ClNO(1-)
 Framework group  C1[X(C3H3ClNO)]
 Deg. of freedom    21
 Full point group                 C1      NOp   1
 Largest Abelian subgroup         C1      NOp   1
 Largest concise Abelian subgroup C1      NOp   1
                         Standard orientation:                         
 ---------------------------------------------------------------------
 Center     Atomic      Atomic             Coordinates (Angstroms)
 Number     Number       Type             X           Y           Z
 ---------------------------------------------------------------------
      1          6           0        0.213135    0.516765    0.208999
      2          8           0        0.444207    1.026998    1.379579
      3          6           0        0.486731    1.485291   -0.980894
      4          1           0        0.377801    1.004518   -1.961062
      5          1           0       -0.228557    2.314879   -0.906881
      6          1           0        1.500071    1.888243   -0.885323
      7         17           0       -2.010724   -0.590629   -0.070520
      8          6           0        1.424721   -0.778989   -0.096095
      9          7           0        2.318831   -1.531620   -0.125226
 ---------------------------------------------------------------------
 Rotational constants (GHZ):           3.2207734           1.6973995           1.4073807
 Leave Link  202 at Wed Jan  8 01:13:54 2020, MaxMem=  4294967296 cpu:               3.3 elap:               0.3
 (Enter /home/cwagen/sw/g16/g16/l301.exe)
 Standard basis: 6-31+G(d) (6D, 7F)
 Ernie: Thresh=  0.10000D-02 Tol=  0.10000D-05 Strict=F.
 There are   124 symmetry adapted cartesian basis functions of A   symmetry.
 There are   124 symmetry adapted basis functions of A   symmetry.
   124 basis functions,   228 primitive gaussians,   124 cartesian basis functions
    27 alpha electrons       27 beta electrons
       nuclear repulsion energy       232.4142547110 Hartrees.
 IExCor=  402 DFT=T Ex+Corr=B3LYP ExCW=0 ScaHFX=  0.200000
 ScaDFX=  0.800000  0.720000  1.000000  0.810000 ScalE2=  1.000000  1.000000
 IRadAn=      5 IRanWt=     -1 IRanGd=            0 ICorTp=0 IEmpDi=  4
 NAtoms=    9 NActive=    9 NUniq=    9 SFac= 1.00D+00 NAtFMM=   60 NAOKFM=F Big=F
 Integral buffers will be    131072 words long.
 Raffenetti 2 integral format.
 Two-electron integral symmetry is turned on.
 ------------------------------------------------------------------------------
 Polarizable Continuum Model (PCM)
 =================================
 Model                : PCM.
 Atomic radii         : SMD-Coulomb.
 Polarization charges : Total charges.
 Charge compensation  : None.
 Solution method      : On-the-fly selection.
 Cavity type          : VdW (van der Waals Surface) (Alpha=1.000).
 Cavity algorithm     : GePol (No added spheres)
                        Default sphere list used, NSphG=    9.
                        Lebedev-Laikov grids with approx.  5.0 points / Ang**2.
                        Smoothing algorithm: York/Karplus (Gamma=1.0000).
                        Polarization charges: spherical gaussians, with
                                              point-specific exponents (IZeta= 3).
                        Self-potential: point-specific (ISelfS= 7).
                        Self-field    : sphere-specific E.n sum rule (ISelfD= 2).
 1st derivatives      : Analytical E(r).r(x)/FMM algorithm (CHGder, D1EAlg=3).
                        Cavity 1st derivative terms included.
 Solvent              : TetraHydroFuran, Eps=   7.425700 Eps(inf)=   1.974025
 ------------------------------------------------------------------------------
 Spheres list:
 ISph  on   Nord     Re0    Alpha      Xe            Ye            Ze
    1   C      1    1.8500  1.000      0.213135      0.516765      0.208999
    2   O      2    2.2940  1.000      0.444207      1.026998      1.379579
    3   C      3    1.8500  1.000      0.486731      1.485291     -0.980894
    4   H      4    1.2000  1.000      0.377801      1.004518     -1.961062
    5   H      5    1.2000  1.000     -0.228557      2.314879     -0.906881
    6   H      6    1.2000  1.000      1.500071      1.888243     -0.885323
    7  Cl      7    2.3800  1.000     -2.010724     -0.590629     -0.070520
    8   C      8    1.8500  1.000      1.424721     -0.778989     -0.096095
    9   N      9    1.8900  1.000      2.318831     -1.531620     -0.125226
 ------------------------------------------------------------------------------
 GePol: Number of generator spheres                  =       9
 GePol: Total number of spheres                      =       9
 GePol: Number of exposed spheres                    =       9 (100.00%)
 GePol: Number of points                             =    1222
 GePol: Average weight of points                     =       0.14
 GePol: Minimum weight of points                     =   0.89D-06
 GePol: Maximum weight of points                     =    0.18138
 GePol: Number of points with low weight             =      36
 GePol: Fraction of low-weight points (<1% of avg)   =       2.95%
 GePol: Cavity surface area                          =    166.664 Ang**2
 GePol: Cavity volume                                =    151.458 Ang**3
 ------------------------------------------------------------------------------
 Atomic radii for non-electrostatic terms: SMD-CDS.
 ------------------------------------------------------------------------------
 PCM non-electrostatic energy =        -0.0007651759 Hartrees.
 Nuclear repulsion after PCM non-electrostatic terms =      232.4134895351 Hartrees.
 Leave Link  301 at Wed Jan  8 01:13:54 2020, MaxMem=  4294967296 cpu:               2.3 elap:               0.2
 (Enter /home/cwagen/sw/g16/g16/l302.exe)
 NPDir=0 NMtPBC=     1 NCelOv=     1 NCel=       1 NClECP=     1 NCelD=      1
         NCelK=      1 NCelE2=     1 NClLst=     1 CellRange=     0.0.
 One-electron integrals computed using PRISM.
 One-electron integral symmetry used in STVInt
 NBasis=   124 RedAO= T EigKep=  8.90D-05  NBF=   124
 NBsUse=   124 1.00D-06 EigRej= -1.00D+00 NBFU=   124
 Precomputing XC quadrature grid using
 IXCGrd= 4 IRadAn=           5 IRanWt=          -1 IRanGd=           0 AccXCQ= 0.00D+00.
 Generated NRdTot=       0 NPtTot=           0 NUsed=           0 NTot=          32
 NSgBfM=   124   124   124   124   124 MxSgAt=     9 MxSgA2=     9.
 Leave Link  302 at Wed Jan  8 01:13:56 2020, MaxMem=  4294967296 cpu:              25.2 elap:               1.8
 (Enter /home/cwagen/sw/g16/g16/l303.exe)
 DipDrv:  MaxL=1.
 Leave Link  303 at Wed Jan  8 01:13:56 2020, MaxMem=  4294967296 cpu:               2.4 elap:               0.2
 (Enter /home/cwagen/sw/g16/g16/l401.exe)
 ExpMin= 4.38D-02 ExpMax= 2.52D+04 ExpMxC= 3.78D+03 IAcc=3 IRadAn=         5 AccDes= 0.00D+00
 Harris functional with IExCor=  402 and IRadAn=       5 diagonalized for initial guess.
 HarFok:  IExCor=  402 AccDes= 0.00D+00 IRadAn=         5 IDoV= 1 UseB2=F ITyADJ=14
 ICtDFT=  3500011 ScaDFX=  1.000000  1.000000  1.000000  1.000000
 FoFCou: FMM=F IPFlag=           0 FMFlag=      100000 FMFlg1=           0
         NFxFlg=           0 DoJE=T BraDBF=F KetDBF=T FulRan=T
         wScrn=  0.000000 ICntrl=       500 IOpCl=  0 I1Cent=   200000004 NGrid=           0
         NMat0=    1 NMatS0=      1 NMatT0=    0 NMatD0=    1 NMtDS0=    0 NMtDT0=    0
 Petite list used in FoFCou.
 Harris En= -706.381953376699    
 JPrj=0 DoOrth=F DoCkMO=F.
 Leave Link  401 at Wed Jan  8 01:13:58 2020, MaxMem=  4294967296 cpu:              30.8 elap:               2.3
 (Enter /home/cwagen/sw/g16/g16/l502.exe)
 Keep R1 ints in memory in canonical form, NReq=45236517.
 FoFCou: FMM=F IPFlag=           0 FMFlag=           0 FMFlg1=           0
         NFxFlg=           0 DoJE=F BraDBF=F KetDBF=F FulRan=T
         wScrn=  0.000000 ICntrl=       600 IOpCl=  0 I1Cent=           0 NGrid=           0
         NMat0=    1 NMatS0=   7750 NMatT0=    0 NMatD0=    1 NMtDS0=    0 NMtDT0=    0
 Symmetry not used in FoFCou.
 Two-electron integral symmetry not used.
 Closed shell SCF:
 Using DIIS extrapolation, IDIIS=  1040.
 NGot=  4294967296 LenX=  4264898079 LenY=  4264882262
 Requested convergence on RMS density matrix=1.00D-08 within 128 cycles.
 Requested convergence on MAX density matrix=1.00D-06.
 Requested convergence on             energy=1.00D-06.
 No special actions if energy rises.

 Cycle   1  Pass 1  IDiag  1:
 Inv3:  Mode=1 IEnd=     4479852.
 Iteration    1 A*A^-1 deviation from unit magnitude is 4.22D-15 for   1217.
 Iteration    1 A*A^-1 deviation from orthogonality  is 2.03D-15 for   1220   1219.
 Iteration    1 A^-1*A deviation from unit magnitude is 4.00D-15 for   1217.
 Iteration    1 A^-1*A deviation from orthogonality  is 1.78D-15 for   1219   1065.
 E= -706.204035105779    
 DIIS: error= 2.34D-02 at cycle   1 NSaved=   1.
 NSaved= 1 IEnMin= 1 EnMin= -706.204035105779     IErMin= 1 ErrMin= 2.34D-02
 ErrMax= 2.34D-02  0.00D+00 EMaxC= 1.00D-01 BMatC= 2.18D-01 BMatP= 2.18D-01
 IDIUse=3 WtCom= 7.66D-01 WtEn= 2.34D-01
 Coeff-Com:  0.100D+01
 Coeff-En:   0.100D+01
 Coeff:      0.100D+01
 Gap=     0.186 Goal=   None    Shift=    0.000
 GapD=    0.186 DampG=1.000 DampE=0.500 DampFc=0.5000 IDamp=-1.
 Damping current iteration by 5.00D-01
 RMSDP=1.41D-02 MaxDP=3.50D-01              OVMax= 5.10D-01

 Cycle   2  Pass 1  IDiag  1:
 E= -706.123051352226     Delta-E=        0.080983753553 Rises=F Damp=T
 DIIS: error= 2.15D-02 at cycle   2 NSaved=   2.
 NSaved= 2 IEnMin= 1 EnMin= -706.204035105779     IErMin= 2 ErrMin= 2.15D-02
 ErrMax= 2.15D-02  0.00D+00 EMaxC= 1.00D-01 BMatC= 1.34D-01 BMatP= 2.18D-01
 IDIUse=3 WtCom= 7.85D-01 WtEn= 2.15D-01
 Coeff-Com:  0.426D+00 0.574D+00
 Coeff-En:   0.612D+00 0.388D+00
 Coeff:      0.466D+00 0.534D+00
 Gap=     0.135 Goal=   None    Shift=    0.000
 RMSDP=5.51D-03 MaxDP=1.51D-01 DE= 8.10D-02 OVMax= 3.04D-01

 Cycle   3  Pass 1  IDiag  1:
 E= -706.350796446905     Delta-E=       -0.227745094678 Rises=F Damp=F
 DIIS: error= 1.33D-02 at cycle   3 NSaved=   3.
 NSaved= 3 IEnMin= 3 EnMin= -706.350796446905     IErMin= 3 ErrMin= 1.33D-02
 ErrMax= 1.33D-02  0.00D+00 EMaxC= 1.00D-01 BMatC= 4.42D-02 BMatP= 1.34D-01
 IDIUse=3 WtCom= 8.67D-01 WtEn= 1.33D-01
 Coeff-Com:  0.188D+00 0.349D+00 0.463D+00
 Coeff-En:   0.000D+00 0.000D+00 0.100D+01
 Coeff:      0.163D+00 0.302D+00 0.535D+00
 Gap=     0.180 Goal=   None    Shift=    0.000
 RMSDP=2.48D-03 MaxDP=4.70D-02 DE=-2.28D-01 OVMax= 7.61D-02

 Cycle   4  Pass 1  IDiag  1:
 E= -706.388660804829     Delta-E=       -0.037864357925 Rises=F Damp=F
 DIIS: error= 5.57D-03 at cycle   4 NSaved=   4.
 NSaved= 4 IEnMin= 4 EnMin= -706.388660804829     IErMin= 4 ErrMin= 5.57D-03
 ErrMax= 5.57D-03  0.00D+00 EMaxC= 1.00D-01 BMatC= 7.38D-03 BMatP= 4.42D-02
 IDIUse=3 WtCom= 9.44D-01 WtEn= 5.57D-02
 Coeff-Com:  0.518D-01 0.985D-01 0.302D+00 0.548D+00
 Coeff-En:   0.000D+00 0.000D+00 0.116D+00 0.884D+00
 Coeff:      0.489D-01 0.930D-01 0.292D+00 0.566D+00
 Gap=     0.175 Goal=   None    Shift=    0.000
 RMSDP=9.89D-04 MaxDP=2.08D-02 DE=-3.79D-02 OVMax= 2.83D-02

 Cycle   5  Pass 1  IDiag  1:
 E= -706.392820487164     Delta-E=       -0.004159682335 Rises=F Damp=F
 DIIS: error= 2.82D-03 at cycle   5 NSaved=   5.
 NSaved= 5 IEnMin= 5 EnMin= -706.392820487164     IErMin= 5 ErrMin= 2.82D-03
 ErrMax= 2.82D-03  0.00D+00 EMaxC= 1.00D-01 BMatC= 2.34D-03 BMatP= 7.38D-03
 IDIUse=3 WtCom= 9.72D-01 WtEn= 2.82D-02
 Coeff-Com:  0.512D-02 0.108D-01 0.133D+00 0.427D+00 0.425D+00
 Coeff-En:   0.000D+00 0.000D+00 0.000D+00 0.280D+00 0.720D+00
 Coeff:      0.498D-02 0.105D-01 0.129D+00 0.422D+00 0.433D+00
 Gap=     0.174 Goal=   None    Shift=    0.000
 RMSDP=4.75D-04 MaxDP=8.90D-03 DE=-4.16D-03 OVMax= 1.60D-02

 Cycle   6  Pass 1  IDiag  1:
 E= -706.394888567992     Delta-E=       -0.002068080828 Rises=F Damp=F
 DIIS: error= 4.78D-04 at cycle   6 NSaved=   6.
 NSaved= 6 IEnMin= 6 EnMin= -706.394888567992     IErMin= 6 ErrMin= 4.78D-04
 ErrMax= 4.78D-04  0.00D+00 EMaxC= 1.00D-01 BMatC= 9.34D-05 BMatP= 2.34D-03
 IDIUse=3 WtCom= 9.95D-01 WtEn= 4.78D-03
 Coeff-Com:  0.201D-03-0.136D-02 0.469D-01 0.172D+00 0.245D+00 0.537D+00
 Coeff-En:   0.000D+00 0.000D+00 0.000D+00 0.000D+00 0.000D+00 0.100D+01
 Coeff:      0.200D-03-0.135D-02 0.466D-01 0.171D+00 0.244D+00 0.540D+00
 Gap=     0.174 Goal=   None    Shift=    0.000
 RMSDP=8.85D-05 MaxDP=1.69D-03 DE=-2.07D-03 OVMax= 2.45D-03

 Cycle   7  Pass 1  IDiag  1:
 E= -706.394974733205     Delta-E=       -0.000086165213 Rises=F Damp=F
 DIIS: error= 1.46D-04 at cycle   7 NSaved=   7.
 NSaved= 7 IEnMin= 7 EnMin= -706.394974733205     IErMin= 7 ErrMin= 1.46D-04
 ErrMax= 1.46D-04  0.00D+00 EMaxC= 1.00D-01 BMatC= 3.74D-06 BMatP= 9.34D-05
 IDIUse=3 WtCom= 9.99D-01 WtEn= 1.46D-03
 Coeff-Com:  0.227D-03-0.225D-02 0.760D-02 0.257D-01 0.619D-01 0.197D+00
 Coeff-Com:  0.710D+00
 Coeff-En:   0.000D+00 0.000D+00 0.000D+00 0.000D+00 0.000D+00 0.000D+00
 Coeff-En:   0.100D+01
 Coeff:      0.227D-03-0.225D-02 0.759D-02 0.257D-01 0.618D-01 0.197D+00
 Coeff:      0.710D+00
 Gap=     0.174 Goal=   None    Shift=    0.000
 RMSDP=3.90D-05 MaxDP=9.61D-04 DE=-8.62D-05 OVMax= 5.88D-04

 Cycle   8  Pass 1  IDiag  1:
 E= -706.394978011338     Delta-E=       -0.000003278132 Rises=F Damp=F
 DIIS: error= 2.75D-05 at cycle   8 NSaved=   8.
 NSaved= 8 IEnMin= 8 EnMin= -706.394978011338     IErMin= 8 ErrMin= 2.75D-05
 ErrMax= 2.75D-05  0.00D+00 EMaxC= 1.00D-01 BMatC= 3.73D-07 BMatP= 3.74D-06
 IDIUse=1 WtCom= 1.00D+00 WtEn= 0.00D+00
 Coeff-Com:  0.219D-03-0.120D-02 0.213D-02 0.551D-02 0.215D-01 0.722D-01
 Coeff-Com:  0.336D+00 0.563D+00
 Coeff:      0.219D-03-0.120D-02 0.213D-02 0.551D-02 0.215D-01 0.722D-01
 Coeff:      0.336D+00 0.563D+00
 Gap=     0.174 Goal=   None    Shift=    0.000
 RMSDP=9.18D-06 MaxDP=2.63D-04 DE=-3.28D-06 OVMax= 2.67D-04

 Cycle   9  Pass 1  IDiag  1:
 E= -706.394978293370     Delta-E=       -0.000000282032 Rises=F Damp=F
 DIIS: error= 1.86D-05 at cycle   9 NSaved=   9.
 NSaved= 9 IEnMin= 9 EnMin= -706.394978293370     IErMin= 9 ErrMin= 1.86D-05
 ErrMax= 1.86D-05  0.00D+00 EMaxC= 1.00D-01 BMatC= 8.83D-08 BMatP= 3.73D-07
 IDIUse=1 WtCom= 1.00D+00 WtEn= 0.00D+00
 Coeff-Com:  0.147D-03-0.330D-03-0.476D-03-0.309D-02-0.111D-02-0.254D-02
 Coeff-Com:  0.311D-01 0.326D+00 0.651D+00
 Coeff:      0.147D-03-0.330D-03-0.476D-03-0.309D-02-0.111D-02-0.254D-02
 Coeff:      0.311D-01 0.326D+00 0.651D+00
 Gap=     0.174 Goal=   None    Shift=    0.000
 RMSDP=4.94D-06 MaxDP=1.18D-04 DE=-2.82D-07 OVMax= 1.42D-04

 Cycle  10  Pass 1  IDiag  1:
 E= -706.394978400953     Delta-E=       -0.000000107583 Rises=F Damp=F
 DIIS: error= 2.20D-06 at cycle  10 NSaved=  10.
 NSaved=10 IEnMin=10 EnMin= -706.394978400953     IErMin=10 ErrMin= 2.20D-06
 ErrMax= 2.20D-06  0.00D+00 EMaxC= 1.00D-01 BMatC= 1.14D-09 BMatP= 8.83D-08
 IDIUse=1 WtCom= 1.00D+00 WtEn= 0.00D+00
 Coeff-Com:  0.310D-04-0.453D-04-0.116D-03-0.638D-03-0.875D-03-0.358D-02
 Coeff-Com: -0.108D-01 0.427D-01 0.174D+00 0.800D+00
 Coeff:      0.310D-04-0.453D-04-0.116D-03-0.638D-03-0.875D-03-0.358D-02
 Coeff:     -0.108D-01 0.427D-01 0.174D+00 0.800D+00
 Gap=     0.174 Goal=   None    Shift=    0.000
 RMSDP=7.38D-07 MaxDP=2.04D-05 DE=-1.08D-07 OVMax= 3.12D-05

 Cycle  11  Pass 1  IDiag  1:
 E= -706.394978402319     Delta-E=       -0.000000001367 Rises=F Damp=F
 DIIS: error= 8.66D-07 at cycle  11 NSaved=  11.
 NSaved=11 IEnMin=11 EnMin= -706.394978402319     IErMin=11 ErrMin= 8.66D-07
 ErrMax= 8.66D-07  0.00D+00 EMaxC= 1.00D-01 BMatC= 2.47D-10 BMatP= 1.14D-09
 IDIUse=1 WtCom= 1.00D+00 WtEn= 0.00D+00
 Coeff-Com:  0.699D-05 0.436D-05-0.406D-04-0.172D-03-0.499D-03-0.203D-02
 Coeff-Com: -0.893D-02-0.511D-02 0.417D-01 0.415D+00 0.560D+00
 Coeff:      0.699D-05 0.436D-05-0.406D-04-0.172D-03-0.499D-03-0.203D-02
 Coeff:     -0.893D-02-0.511D-02 0.417D-01 0.415D+00 0.560D+00
 Gap=     0.174 Goal=   None    Shift=    0.000
 RMSDP=2.34D-07 MaxDP=5.76D-06 DE=-1.37D-09 OVMax= 5.60D-06

 Cycle  12  Pass 1  IDiag  1:
 E= -706.394978402619     Delta-E=       -0.000000000300 Rises=F Damp=F
 DIIS: error= 1.45D-07 at cycle  12 NSaved=  12.
 NSaved=12 IEnMin=12 EnMin= -706.394978402619     IErMin=12 ErrMin= 1.45D-07
 ErrMax= 1.45D-07  0.00D+00 EMaxC= 1.00D-01 BMatC= 4.74D-12 BMatP= 2.47D-10
 IDIUse=1 WtCom= 1.00D+00 WtEn= 0.00D+00
 Coeff-Com: -0.140D-05 0.450D-05 0.249D-05 0.219D-04-0.324D-04-0.170D-03
 Coeff-Com: -0.130D-02-0.599D-02-0.309D-02 0.508D-01 0.141D+00 0.819D+00
 Coeff:     -0.140D-05 0.450D-05 0.249D-05 0.219D-04-0.324D-04-0.170D-03
 Coeff:     -0.130D-02-0.599D-02-0.309D-02 0.508D-01 0.141D+00 0.819D+00
 Gap=     0.174 Goal=   None    Shift=    0.000
 RMSDP=6.54D-08 MaxDP=1.95D-06 DE=-3.00D-10 OVMax= 2.76D-06

 Cycle  13  Pass 1  IDiag  1:
 E= -706.394978402625     Delta-E=       -0.000000000007 Rises=F Damp=F
 DIIS: error= 2.40D-08 at cycle  13 NSaved=  13.
 NSaved=13 IEnMin=13 EnMin= -706.394978402625     IErMin=13 ErrMin= 2.40D-08
 ErrMax= 2.40D-08  0.00D+00 EMaxC= 1.00D-01 BMatC= 2.43D-13 BMatP= 4.74D-12
 IDIUse=1 WtCom= 1.00D+00 WtEn= 0.00D+00
 Coeff-Com: -0.568D-06 0.279D-06 0.118D-05 0.572D-05 0.202D-04 0.822D-04
 Coeff-Com:  0.349D-03-0.384D-03-0.268D-02-0.151D-01-0.265D-01 0.722D-01
 Coeff-Com:  0.972D+00
 Coeff:     -0.568D-06 0.279D-06 0.118D-05 0.572D-05 0.202D-04 0.822D-04
 Coeff:      0.349D-03-0.384D-03-0.268D-02-0.151D-01-0.265D-01 0.722D-01
 Coeff:      0.972D+00
 Gap=     0.174 Goal=   None    Shift=    0.000
 RMSDP=1.46D-08 MaxDP=2.69D-07 DE=-6.59D-12 OVMax= 6.65D-07

 Cycle  14  Pass 1  IDiag  1:
 E= -706.394978402627     Delta-E=       -0.000000000001 Rises=F Damp=F
 DIIS: error= 5.68D-09 at cycle  14 NSaved=  14.
 NSaved=14 IEnMin=14 EnMin= -706.394978402627     IErMin=14 ErrMin= 5.68D-09
 ErrMax= 5.68D-09  0.00D+00 EMaxC= 1.00D-01 BMatC= 4.54D-15 BMatP= 2.43D-13
 IDIUse=1 WtCom= 1.00D+00 WtEn= 0.00D+00
 Coeff-Com:  0.233D-07-0.710D-07-0.573D-07-0.298D-06 0.105D-05 0.623D-05
 Coeff-Com:  0.363D-04 0.114D-03 0.113D-03-0.137D-02-0.407D-02-0.215D-01
 Coeff-Com:  0.129D-01 0.101D+01
 Coeff:      0.233D-07-0.710D-07-0.573D-07-0.298D-06 0.105D-05 0.623D-05
 Coeff:      0.363D-04 0.114D-03 0.113D-03-0.137D-02-0.407D-02-0.215D-01
 Coeff:      0.129D-01 0.101D+01
 Gap=     0.174 Goal=   None    Shift=    0.000
 RMSDP=2.49D-09 MaxDP=5.20D-08 DE=-1.36D-12 OVMax= 1.44D-07

 Error on total polarization charges =  0.02268
 SCF Done:  E(RB3LYP) =  -706.394978403     A.U. after   14 cycles
            NFock= 14  Conv=0.25D-08     -V/T= 2.0062
 KE= 7.020278339241D+02 PE=-2.142554191467D+03 EE= 5.017178896054D+02
 SMD-CDS (non-electrostatic) energy       (kcal/mol) =      -0.48
 (included in total energy above)
 Leave Link  502 at Wed Jan  8 01:14:39 2020, MaxMem=  4294967296 cpu:             591.1 elap:              40.9
 (Enter /home/cwagen/sw/g16/g16/l601.exe)
 Copying SCF densities to generalized density rwf, IOpCl= 0 IROHF=0.

 **********************************************************************

            Population analysis using the SCF density.

 **********************************************************************

 Orbital symmetries:
       Occupied  (A) (A) (A) (A) (A) (A) (A) (A) (A) (A) (A) (A)
                 (A) (A) (A) (A) (A) (A) (A) (A) (A) (A) (A) (A)
                 (A) (A) (A)
       Virtual   (A) (A) (A) (A) (A) (A) (A) (A) (A) (A) (A) (A)
                 (A) (A) (A) (A) (A) (A) (A) (A) (A) (A) (A) (A)
                 (A) (A) (A) (A) (A) (A) (A) (A) (A) (A) (A) (A)
                 (A) (A) (A) (A) (A) (A) (A) (A) (A) (A) (A) (A)
                 (A) (A) (A) (A) (A) (A) (A) (A) (A) (A) (A) (A)
                 (A) (A) (A) (A) (A) (A) (A) (A) (A) (A) (A) (A)
                 (A) (A) (A) (A) (A) (A) (A) (A) (A) (A) (A) (A)
                 (A) (A) (A) (A) (A) (A) (A) (A) (A) (A) (A) (A)
                 (A)
 The electronic state is 1-A.
 Alpha  occ. eigenvalues -- -101.46059 -19.14159 -14.32416 -10.32860 -10.21468
 Alpha  occ. eigenvalues --  -10.18563  -9.37362  -7.13430  -7.12994  -7.12990
 Alpha  occ. eigenvalues --   -0.99885  -0.88320  -0.72839  -0.70707  -0.56317
 Alpha  occ. eigenvalues --   -0.46271  -0.42299  -0.41095  -0.38692  -0.35770
 Alpha  occ. eigenvalues --   -0.34645  -0.32043  -0.31827  -0.25497  -0.24851
 Alpha  occ. eigenvalues --   -0.24512  -0.24216
 Alpha virt. eigenvalues --   -0.06859   0.01667   0.03578   0.04301   0.05105
 Alpha virt. eigenvalues --    0.06389   0.07038   0.08488   0.09027   0.09826
 Alpha virt. eigenvalues --    0.09972   0.10430   0.11279   0.12439   0.13456
 Alpha virt. eigenvalues --    0.14239   0.15011   0.16742   0.17034   0.21030
 Alpha virt. eigenvalues --    0.23305   0.24398   0.24630   0.25998   0.26375
 Alpha virt. eigenvalues --    0.27289   0.28542   0.29865   0.33579   0.33872
 Alpha virt. eigenvalues --    0.35948   0.37616   0.42206   0.61509   0.63136
 Alpha virt. eigenvalues --    0.64841   0.66518   0.67985   0.68909   0.72444
 Alpha virt. eigenvalues --    0.74274   0.76581   0.76900   0.78899   0.80774
 Alpha virt. eigenvalues --    0.82713   0.89213   0.93226   0.95315   0.96117
 Alpha virt. eigenvalues --    0.96978   0.98844   0.99282   1.01151   1.02238
 Alpha virt. eigenvalues --    1.06102   1.10372   1.13790   1.16466   1.24505
 Alpha virt. eigenvalues --    1.31426   1.32417   1.34331   1.42913   1.47023
 Alpha virt. eigenvalues --    1.48293   1.55158   1.56450   1.57519   1.61080
 Alpha virt. eigenvalues --    1.66740   1.69476   1.79520   1.84658   1.90912
 Alpha virt. eigenvalues --    1.93432   1.97966   2.00368   2.00733   2.12398
 Alpha virt. eigenvalues --    2.18876   2.25054   2.30627   2.44987   2.50055
 Alpha virt. eigenvalues --    2.64376   2.69830   2.71993   2.79214   2.98271
 Alpha virt. eigenvalues --    3.11061   4.06636   4.13748   4.30181   4.31909
 Alpha virt. eigenvalues --    4.38861   4.52156
          Condensed to atoms (all electrons):
               1          2          3          4          5          6
     1  C    5.307233   0.567597   0.180031  -0.074709  -0.072233   0.005666
     2  O    0.567597   8.173184  -0.155434   0.008865   0.001164  -0.012333
     3  C    0.180031  -0.155434   5.735737   0.372145   0.383587   0.371596
     4  H   -0.074709   0.008865   0.372145   0.475936  -0.021817  -0.029314
     5  H   -0.072233   0.001164   0.383587  -0.021817   0.466918  -0.023584
     6  H    0.005666  -0.012333   0.371596  -0.029314  -0.023584   0.459252
     7  Cl   0.095964  -0.042249  -0.079023   0.005515  -0.001139   0.001181
     8  C   -0.407575  -0.148400  -0.100720   0.025827   0.026572  -0.028424
     9  N   -0.045073  -0.008149   0.005422  -0.001203  -0.000003  -0.000357
               7          8          9
     1  C    0.095964  -0.407575  -0.045073
     2  O   -0.042249  -0.148400  -0.008149
     3  C   -0.079023  -0.100720   0.005422
     4  H    0.005515   0.025827  -0.001203
     5  H   -0.001139   0.026572  -0.000003
     6  H    0.001181  -0.028424  -0.000357
     7  Cl  17.655406  -0.009378  -0.012038
     8  C   -0.009378   5.917397   0.608858
     9  N   -0.012038   0.608858   7.035269
 Mulliken charges:
               1
     1  C    0.443099
     2  O   -0.384246
     3  C   -0.713341
     4  H    0.238755
     5  H    0.240534
     6  H    0.256319
     7  Cl  -0.614238
     8  C    0.115842
     9  N   -0.582725
 Sum of Mulliken charges =  -1.00000
 Mulliken charges with hydrogens summed into heavy atoms:
               1
     1  C    0.443099
     2  O   -0.384246
     3  C    0.022266
     7  Cl  -0.614238
     8  C    0.115842
     9  N   -0.582725
 Electronic spatial extent (au):  <R**2>=            879.5433
 Charge=             -1.0000 electrons
 Dipole moment (field-independent basis, Debye):
    X=              1.5699    Y=              4.6616    Z=             -2.9614  Tot=              5.7415
 Quadrupole moment (field-independent basis, Debye-Ang):
   XX=            -69.9975   YY=            -52.5441   ZZ=            -49.7288
   XY=              4.8462   XZ=             -1.4647   YZ=             -5.0156
 Traceless Quadrupole moment (field-independent basis, Debye-Ang):
   XX=            -12.5741   YY=              4.8794   ZZ=              7.6947
   XY=              4.8462   XZ=             -1.4647   YZ=             -5.0156
 Octapole moment (field-independent basis, Debye-Ang**2):
  XXX=             -5.0674  YYY=             21.1034  ZZZ=             -5.6156  XYY=            -11.6794
  XXY=             32.4664  XXZ=              2.9096  XZZ=             -0.7509  YZZ=             -0.8437
  YYZ=             -3.3312  XYZ=             -3.0963
 Hexadecapole moment (field-independent basis, Debye-Ang**3):
 XXXX=           -854.8666 YYYY=           -373.6462 ZZZZ=           -189.4460 XXXY=             56.2694
 XXXZ=              3.9453 YYYX=             31.0648 YYYZ=             -8.0908 ZZZX=             -2.0075
 ZZZY=             -5.9278 XXYY=           -218.8816 XXZZ=           -155.3524 YYZZ=            -95.7001
 XXYZ=             -5.0130 YYXZ=              0.5552 ZZXY=              1.1557
 N-N= 2.324134895351D+02 E-N=-2.142554191610D+03  KE= 7.020278339241D+02
 No NMR shielding tensors so no spin-rotation constants.
 Leave Link  601 at Wed Jan  8 01:14:41 2020, MaxMem=  4294967296 cpu:              18.9 elap:               1.9
 (Enter /home/cwagen/sw/g16/g16/l701.exe)
 ... and contract with generalized density number  0.
 Compute integral first derivatives.
 D1PCM: PCM CHGder 1st derivatives, ID1Alg=3 FixD1E=F DoIter=F DoCFld=F I1PDM=0.
 GePol: Maximum number of non-zero 1st derivatives   =     387
 Leave Link  701 at Wed Jan  8 01:14:47 2020, MaxMem=  4294967296 cpu:              72.5 elap:               5.6
 (Enter /home/cwagen/sw/g16/g16/l702.exe)
 L702 exits ... SP integral derivatives will be done elsewhere.
 Leave Link  702 at Wed Jan  8 01:14:47 2020, MaxMem=  4294967296 cpu:               0.8 elap:               0.1
 (Enter /home/cwagen/sw/g16/g16/l703.exe)
 Integral derivatives from FoFJK, PRISM(SPDF).
 Compute integral first derivatives, UseDBF=F ICtDFT=           0.
 Calling FoFJK, ICntrl=      2127 FMM=F ISym2X=0 I1Cent= 0 IOpClX= 0 NMat=1 NMatS=1 NMatT=0.
 FoFJK:  IHMeth= 1 ICntrl=    2127 DoSepK=F KAlg= 0 I1Cent=           0 FoldK=F
 IRaf=         0 NMat=       1 IRICut=       1 DoRegI=T DoRafI=F ISym2E= 0 IDoP0=0 IntGTp=1.
 FoFCou: FMM=F IPFlag=           0 FMFlag=      100000 FMFlg1=         800
         NFxFlg=           0 DoJE=F BraDBF=F KetDBF=F FulRan=T
         wScrn=  0.000000 ICntrl=      2127 IOpCl=  0 I1Cent=           0 NGrid=           0
         NMat0=    1 NMatS0=      1 NMatT0=    0 NMatD0=    1 NMtDS0=    0 NMtDT0=    0
 Symmetry not used in FoFCou.
 Leave Link  703 at Wed Jan  8 01:14:49 2020, MaxMem=  4294967296 cpu:              33.8 elap:               2.4
 (Enter /home/cwagen/sw/g16/g16/l716.exe)
 Dipole        = 6.17652978D-01 1.83400880D+00-1.16511139D+00
 ***** Axes restored to original set *****
 -------------------------------------------------------------------
 Center     Atomic                   Forces (Hartrees/Bohr)
 Number     Number              X              Y              Z
 -------------------------------------------------------------------
      1        6           0.066831252   -0.068872388   -0.073206838
      2        8          -0.010985803    0.050002164    0.082807822
      3        6          -0.024597403    0.023027647    0.006504336
      4        1          -0.000599047    0.001312954   -0.002747956
      5        1           0.001296629   -0.000668634    0.001436878
      6        1           0.001862895    0.004683754   -0.003972458
      7       17           0.011631861   -0.013876071   -0.002670912
      8        6          -0.040313680    0.007172040   -0.009709480
      9        7          -0.005126702   -0.002781464    0.001558608
 -------------------------------------------------------------------
 Cartesian Forces:  Max     0.082807822 RMS     0.031868981
 Leave Link  716 at Wed Jan  8 01:14:49 2020, MaxMem=  4294967296 cpu:               0.9 elap:               0.1
 (Enter /home/cwagen/sw/g16/g16/l103.exe)

 GradGradGradGradGradGradGradGradGradGradGradGradGradGradGradGradGradGrad
 Berny optimization.
 FormGI is forming the generalized inverse of G from B-inverse, IUseBI=4.
 Internal  Forces:  Max     0.093091005 RMS     0.022616485
 Search for a local minimum.
 Step number   1 out of a maximum of   41
 All quantities printed in internal units (Hartrees-Bohrs-Radians)
 RMS Force = .21771D-01 SwitMx=.10000D-02 MixMth= 1
 Mixed Optimization -- RFO/linear search
 Second derivative matrix not updated -- first step.
 ITU=  0
     Eigenvalues ---    0.00230   0.04746   0.04746   0.05330   0.05908
     Eigenvalues ---    0.07453   0.10176   0.16000   0.16000   0.16000
     Eigenvalues ---    0.25000   0.25000   0.25000   0.26946   0.33918
     Eigenvalues ---    0.33999   0.34275   0.67840   1.220341000.00000
     Eigenvalues --- 1000.000001000.000001000.000001000.000001000.00000
     Eigenvalues --- 1000.000001000.000001000.000001000.000001000.00000
     Eigenvalues --- 1000.00000
 RFO step:  Lambda=-3.63606315D-02 EMin= 2.30000000D-03
 Linear search not attempted -- first point.
 Maximum step size (   0.300) exceeded in Quadratic search.
    -- Step size scaled by   0.961
 Iteration  1 RMS(Cart)=  0.08578584 RMS(Int)=  0.00862176
 Iteration  2 RMS(Cart)=  0.00841675 RMS(Int)=  0.00550130
 Iteration  3 RMS(Cart)=  0.00003962 RMS(Int)=  0.00550116
 Iteration  4 RMS(Cart)=  0.00000113 RMS(Int)=  0.00550116
 Iteration  5 RMS(Cart)=  0.00000002 RMS(Int)=  0.00550116
 Iteration  1 RMS(Cart)=  0.00000000 RMS(Int)=  0.00000000
 ITry= 1 IFail=0 DXMaxC= 1.94D-01 DCOld= 1.00D+10 DXMaxT= 3.00D-01 DXLimC= 3.00D+00 Rises=F
 Variable       Old X    -DE/DX   Delta X   Delta X   Delta X     New X
                                 (Linear)    (Quad)   (Total)
    R1        2.45227  -0.09309   0.00000  -0.12514  -0.12514   2.32713
    R2        2.94503  -0.01835   0.00000  -0.05764  -0.05764   2.88739
    R3        4.72432  -0.01817   0.00000   0.00000   0.00000   4.72432
    R4        3.40151  -0.04220   0.00000   0.00000   0.00000   3.40151
    R5        2.07331  -0.00229   0.00000  -0.00585  -0.00585   2.06747
    R6        2.07468  -0.00106   0.00000  -0.00272  -0.00272   2.07196
    R7        2.06868  -0.00138   0.00000  -0.00351  -0.00351   2.06517
    R8        2.20923  -0.00559   0.00000  -0.00428  -0.00428   2.20495
    A1        1.99667   0.03963   0.00000   0.14234   0.13284   2.12951
    A2        2.01908  -0.01721   0.00000  -0.08608  -0.08126   1.93782
    A3        1.89239  -0.00915   0.00000   0.04122   0.02098   1.91337
    A4        1.92419  -0.02341   0.00000  -0.10909  -0.10413   1.82007
    A5        1.77194   0.02883   0.00000   0.11823   0.10547   1.87741
    A6        1.83479  -0.01713   0.00000  -0.09391  -0.08929   1.74550
    A7        1.97398  -0.00195   0.00000  -0.01048  -0.01079   1.96319
    A8        1.87942   0.00455   0.00000   0.02618   0.02634   1.90576
    A9        1.90140  -0.00901   0.00000  -0.04716  -0.04734   1.85406
   A10        1.90356  -0.00030   0.00000   0.00405   0.00405   1.90761
   A11        1.90837   0.00447   0.00000   0.01487   0.01422   1.92259
   A12        1.89554   0.00240   0.00000   0.01366   0.01403   1.90957
   A13        3.09831  -0.00412   0.00000  -0.04726  -0.04726   3.05105
   A14        2.91170   0.00226   0.00000   0.02586   0.02586   2.93756
    D1        3.04510   0.01089   0.00000   0.08895   0.09484   3.13994
    D2       -1.13357   0.01241   0.00000   0.10541   0.11122  -1.02235
    D3        0.91915   0.01292   0.00000   0.11069   0.11612   1.03527
    D4       -0.92685   0.00026   0.00000  -0.00773  -0.00730  -0.93415
    D5        1.17766   0.00179   0.00000   0.00872   0.00908   1.18674
    D6       -3.05280   0.00229   0.00000   0.01401   0.01398  -3.03882
    D7        1.01121  -0.01380   0.00000  -0.09670  -0.10249   0.90872
    D8        3.11572  -0.01227   0.00000  -0.08025  -0.08611   3.02961
    D9       -1.11475  -0.01176   0.00000  -0.07496  -0.08121  -1.19595
         Item               Value     Threshold  Converged?
 Maximum Force            0.093091     0.000450     NO 
 RMS     Force            0.021771     0.000300     NO 
 Maximum Displacement     0.193678     0.001800     NO 
 RMS     Displacement     0.084485     0.001200     NO 
 Predicted change in Energy=-2.150931D-02
 Lowest energy point so far.  Saving SCF results.
 GradGradGradGradGradGradGradGradGradGradGradGradGradGradGradGradGradGrad

 Leave Link  103 at Wed Jan  8 01:14:53 2020, MaxMem=  4294967296 cpu:              57.9 elap:               4.2
 (Enter /home/cwagen/sw/g16/g16/l202.exe)
                          Input orientation:                          
 ---------------------------------------------------------------------
 Center     Atomic      Atomic             Coordinates (Angstroms)
 Number     Number       Type             X           Y           Z
 ---------------------------------------------------------------------
      1          6           0       -0.128423   -0.388868   -0.239661
      2          8           0       -0.249778   -0.618690   -1.443389
      3          6           0       -0.365987   -1.465271    0.818415
      4          1           0       -0.213682   -1.092737    1.835754
      5          1           0       -1.389511   -1.846291    0.721492
      6          1           0        0.342617   -2.268467    0.601480
      7         17           0       -1.601131    1.504390    0.465113
      8          6           0        1.487835    0.337233    0.077339
      9          7           0        2.606112    0.661759    0.152089
 ---------------------------------------------------------------------
                    Distance matrix (angstroms):
                    1          2          3          4          5
     1  C    0.000000
     2  O    1.231465   0.000000
     3  C    1.527942   2.417842   0.000000
     4  H    2.193183   3.313428   1.094055   0.000000
     5  H    2.153658   2.737280   1.096436   1.786616   0.000000
     6  H    2.112414   2.693360   1.092843   1.793110   1.786870
     7  Cl   2.500000   3.158481   3.235628   3.247882   3.367131
     8  C    1.800000   2.499140   2.689771   2.834078   3.669037
     9  N    2.955498   3.513006   3.715054   3.723469   4.751794
                    6          7          8          9
     6  H    0.000000
     7  Cl   4.246316   0.000000
     8  C    2.894118   3.324805   0.000000
     9  N    3.729824   4.302198   1.166812   0.000000
 Stoichiometry    C3H3ClNO(1-)
 Framework group  C1[X(C3H3ClNO)]
 Deg. of freedom    21
 Full point group                 C1      NOp   1
 RotChk:  IX=0 Diff= 1.15D-01
 Largest Abelian subgroup         C1      NOp   1
 Largest concise Abelian subgroup C1      NOp   1
                         Standard orientation:                         
 ---------------------------------------------------------------------
 Center     Atomic      Atomic             Coordinates (Angstroms)
 Number     Number       Type             X           Y           Z
 ---------------------------------------------------------------------
      1          6           0        0.244029    0.591040    0.226628
      2          8           0        0.362620    0.993510    1.384411
      3          6           0        0.278925    1.541816   -0.968952
      4          1           0        0.160893    1.019079   -1.922772
      5          1           0       -0.519964    2.285100   -0.861819
      6          1           0        1.249106    2.043503   -0.932019
      7         17           0       -1.883856   -0.688478   -0.064819
      8          6           0        1.440769   -0.717050   -0.084357
      9          7           0        2.350318   -1.440925   -0.185237
 ---------------------------------------------------------------------
 Rotational constants (GHZ):           3.1791791           1.8061430           1.4733845
 Leave Link  202 at Wed Jan  8 01:14:54 2020, MaxMem=  4294967296 cpu:               4.2 elap:               0.3
 (Enter /home/cwagen/sw/g16/g16/l301.exe)
 Standard basis: 6-31+G(d) (6D, 7F)
 Ernie: Thresh=  0.10000D-02 Tol=  0.10000D-05 Strict=F.
 There are   124 symmetry adapted cartesian basis functions of A   symmetry.
 There are   124 symmetry adapted basis functions of A   symmetry.
   124 basis functions,   228 primitive gaussians,   124 cartesian basis functions
    27 alpha electrons       27 beta electrons
       nuclear repulsion energy       236.1670486867 Hartrees.
 IExCor=  402 DFT=T Ex+Corr=B3LYP ExCW=0 ScaHFX=  0.200000
 ScaDFX=  0.800000  0.720000  1.000000  0.810000 ScalE2=  1.000000  1.000000
 IRadAn=      5 IRanWt=     -1 IRanGd=            0 ICorTp=0 IEmpDi=  4
 NAtoms=    9 NActive=    9 NUniq=    9 SFac= 1.00D+00 NAtFMM=   60 NAOKFM=F Big=F
 Integral buffers will be    131072 words long.
 Raffenetti 2 integral format.
 Two-electron integral symmetry is turned on.
 ------------------------------------------------------------------------------
 Polarizable Continuum Model (PCM)
 =================================
 Model                : PCM.
 Atomic radii         : SMD-Coulomb.
 Polarization charges : Total charges.
 Charge compensation  : None.
 Solution method      : On-the-fly selection.
 Cavity type          : VdW (van der Waals Surface) (Alpha=1.000).
 Cavity algorithm     : GePol (No added spheres)
                        Default sphere list used, NSphG=    9.
                        Lebedev-Laikov grids with approx.  5.0 points / Ang**2.
                        Smoothing algorithm: York/Karplus (Gamma=1.0000).
                        Polarization charges: spherical gaussians, with
                                              point-specific exponents (IZeta= 3).
                        Self-potential: point-specific (ISelfS= 7).
                        Self-field    : sphere-specific E.n sum rule (ISelfD= 2).
 1st derivatives      : Analytical E(r).r(x)/FMM algorithm (CHGder, D1EAlg=3).
                        Cavity 1st derivative terms included.
 Solvent              : TetraHydroFuran, Eps=   7.425700 Eps(inf)=   1.974025
 ------------------------------------------------------------------------------
 Spheres list:
 ISph  on   Nord     Re0    Alpha      Xe            Ye            Ze
    1   C      1    1.8500  1.000      0.244029      0.591040      0.226628
    2   O      2    2.2940  1.000      0.362620      0.993510      1.384411
    3   C      3    1.8500  1.000      0.278925      1.541816     -0.968952
    4   H      4    1.2000  1.000      0.160893      1.019079     -1.922772
    5   H      5    1.2000  1.000     -0.519964      2.285100     -0.861819
    6   H      6    1.2000  1.000      1.249106      2.043503     -0.932019
    7  Cl      7    2.3800  1.000     -1.883856     -0.688478     -0.064819
    8   C      8    1.8500  1.000      1.440769     -0.717050     -0.084357
    9   N      9    1.8900  1.000      2.350318     -1.440925     -0.185237
 ------------------------------------------------------------------------------
 GePol: Number of generator spheres                  =       9
 GePol: Total number of spheres                      =       9
 GePol: Number of exposed spheres                    =       9 (100.00%)
 GePol: Number of points                             =    1201
 GePol: Average weight of points                     =       0.14
 GePol: Minimum weight of points                     =   0.43D-07
 GePol: Maximum weight of points                     =    0.18138
 GePol: Number of points with low weight             =      30
 GePol: Fraction of low-weight points (<1% of avg)   =       2.50%
 GePol: Cavity surface area                          =    164.455 Ang**2
 GePol: Cavity volume                                =    149.783 Ang**3
 ------------------------------------------------------------------------------
 Atomic radii for non-electrostatic terms: SMD-CDS.
 ------------------------------------------------------------------------------
 PCM non-electrostatic energy =        -0.0008514307 Hartrees.
 Nuclear repulsion after PCM non-electrostatic terms =      236.1661972561 Hartrees.
 Leave Link  301 at Wed Jan  8 01:14:54 2020, MaxMem=  4294967296 cpu:               2.3 elap:               0.2
 (Enter /home/cwagen/sw/g16/g16/l302.exe)
 NPDir=0 NMtPBC=     1 NCelOv=     1 NCel=       1 NClECP=     1 NCelD=      1
         NCelK=      1 NCelE2=     1 NClLst=     1 CellRange=     0.0.
 One-electron integrals computed using PRISM.
 One-electron integral symmetry used in STVInt
 NBasis=   124 RedAO= T EigKep=  7.76D-05  NBF=   124
 NBsUse=   124 1.00D-06 EigRej= -1.00D+00 NBFU=   124
 Precomputing XC quadrature grid using
 IXCGrd= 4 IRadAn=           5 IRanWt=          -1 IRanGd=           0 AccXCQ= 0.00D+00.
 Generated NRdTot=       0 NPtTot=           0 NUsed=           0 NTot=          32
 NSgBfM=   124   124   124   124   124 MxSgAt=     9 MxSgA2=     9.
 Leave Link  302 at Wed Jan  8 01:14:56 2020, MaxMem=  4294967296 cpu:              27.2 elap:               2.0
 (Enter /home/cwagen/sw/g16/g16/l303.exe)
 DipDrv:  MaxL=1.
 Leave Link  303 at Wed Jan  8 01:14:56 2020, MaxMem=  4294967296 cpu:               4.9 elap:               0.5
 (Enter /home/cwagen/sw/g16/g16/l401.exe)
 Initial guess from the checkpoint file:  "/scratch/users/cwagen/cwagen_scan_250_180/Gau-12209.chk"
 B after Tr=     0.000000    0.000000    0.000000
         Rot=    0.999445   -0.008845   -0.007328   -0.031278 Ang=  -3.82 deg.
 Guess basis will be translated and rotated to current coordinates.
 JPrj=2 DoOrth=T DoCkMO=T.
 Generating alternative initial guess.
 ExpMin= 4.38D-02 ExpMax= 2.52D+04 ExpMxC= 3.78D+03 IAcc=2 IRadAn=         4 AccDes= 0.00D+00
 Harris functional with IExCor=  402 and IRadAn=       4 diagonalized for initial guess.
 HarFok:  IExCor=  402 AccDes= 0.00D+00 IRadAn=         4 IDoV= 1 UseB2=F ITyADJ=14
 ICtDFT=  3500011 ScaDFX=  1.000000  1.000000  1.000000  1.000000
 FoFCou: FMM=F IPFlag=           0 FMFlag=      100000 FMFlg1=           0
         NFxFlg=           0 DoJE=T BraDBF=F KetDBF=T FulRan=T
         wScrn=  0.000000 ICntrl=       500 IOpCl=  0 I1Cent=   200000004 NGrid=           0
         NMat0=    1 NMatS0=      1 NMatT0=    0 NMatD0=    1 NMtDS0=    0 NMtDT0=    0
 Petite list used in FoFCou.
 Harris En= -706.403665423566    
 Leave Link  401 at Wed Jan  8 01:15:00 2020, MaxMem=  4294967296 cpu:              46.8 elap:               3.4
 (Enter /home/cwagen/sw/g16/g16/l502.exe)
 Keep R1 ints in memory in canonical form, NReq=45236517.
 FoFCou: FMM=F IPFlag=           0 FMFlag=           0 FMFlg1=           0
         NFxFlg=           0 DoJE=F BraDBF=F KetDBF=F FulRan=T
         wScrn=  0.000000 ICntrl=       600 IOpCl=  0 I1Cent=           0 NGrid=           0
         NMat0=    1 NMatS0=   7750 NMatT0=    0 NMatD0=    1 NMtDS0=    0 NMtDT0=    0
 Symmetry not used in FoFCou.
 Two-electron integral symmetry not used.
 Closed shell SCF:
 Using DIIS extrapolation, IDIIS=  1040.
 NGot=  4294967296 LenX=  4264898079 LenY=  4264882262
 Requested convergence on RMS density matrix=1.00D-08 within 128 cycles.
 Requested convergence on MAX density matrix=1.00D-06.
 Requested convergence on             energy=1.00D-06.
 No special actions if energy rises.

 Cycle   1  Pass 1  IDiag  1:
 Inv3:  Mode=1 IEnd=     4327203.
 Iteration    1 A*A^-1 deviation from unit magnitude is 2.89D-15 for   1197.
 Iteration    1 A*A^-1 deviation from orthogonality  is 1.82D-15 for   1192   1027.
 Iteration    1 A^-1*A deviation from unit magnitude is 2.89D-15 for   1197.
 Iteration    1 A^-1*A deviation from orthogonality  is 1.52D-15 for   1192   1027.
 E= -706.404063373755    
 DIIS: error= 4.66D-03 at cycle   1 NSaved=   1.
 NSaved= 1 IEnMin= 1 EnMin= -706.404063373755     IErMin= 1 ErrMin= 4.66D-03
 ErrMax= 4.66D-03  0.00D+00 EMaxC= 1.00D-01 BMatC= 9.85D-03 BMatP= 9.85D-03
 IDIUse=3 WtCom= 9.53D-01 WtEn= 4.66D-02
 Coeff-Com:  0.100D+01
 Coeff-En:   0.100D+01
 Coeff:      0.100D+01
 Gap=     0.575 Goal=   None    Shift=    0.000
 GapD=    0.575 DampG=2.000 DampE=1.000 DampFc=2.0000 IDamp=-1.
 RMSDP=2.36D-03 MaxDP=5.20D-02              OVMax= 4.42D-02

 Cycle   2  Pass 1  IDiag  1:
 E= -706.419728278848     Delta-E=       -0.015664905093 Rises=F Damp=F
 DIIS: error= 1.70D-03 at cycle   2 NSaved=   2.
 NSaved= 2 IEnMin= 2 EnMin= -706.419728278848     IErMin= 2 ErrMin= 1.70D-03
 ErrMax= 1.70D-03  0.00D+00 EMaxC= 1.00D-01 BMatC= 6.56D-04 BMatP= 9.85D-03
 IDIUse=3 WtCom= 9.83D-01 WtEn= 1.70D-02
 Coeff-Com:  0.627D-01 0.937D+00
 Coeff-En:   0.000D+00 0.100D+01
 Coeff:      0.616D-01 0.938D+00
 Gap=     0.199 Goal=   None    Shift=    0.000
 RMSDP=6.15D-04 MaxDP=1.18D-02 DE=-1.57D-02 OVMax= 2.10D-02

 Cycle   3  Pass 1  IDiag  1:
 E= -706.419130419038     Delta-E=        0.000597859811 Rises=F Damp=F
 DIIS: error= 2.50D-03 at cycle   3 NSaved=   3.
 NSaved= 3 IEnMin= 2 EnMin= -706.419728278848     IErMin= 2 ErrMin= 1.70D-03
 ErrMax= 2.50D-03  0.00D+00 EMaxC= 1.00D-01 BMatC= 1.36D-03 BMatP= 6.56D-04
 IDIUse=3 WtCom= 1.67D-01 WtEn= 8.33D-01
 Coeff-Com: -0.293D-01 0.608D+00 0.421D+00
 Coeff-En:   0.000D+00 0.642D+00 0.358D+00
 Coeff:     -0.488D-02 0.636D+00 0.369D+00
 Gap=     0.193 Goal=   None    Shift=    0.000
 RMSDP=4.39D-04 MaxDP=9.24D-03 DE= 5.98D-04 OVMax= 1.36D-02

 Cycle   4  Pass 1  IDiag  1:
 E= -706.420369412155     Delta-E=       -0.001238993118 Rises=F Damp=F
 DIIS: error= 5.76D-04 at cycle   4 NSaved=   4.
 NSaved= 4 IEnMin= 4 EnMin= -706.420369412155     IErMin= 4 ErrMin= 5.76D-04
 ErrMax= 5.76D-04  0.00D+00 EMaxC= 1.00D-01 BMatC= 5.74D-05 BMatP= 6.56D-04
 IDIUse=3 WtCom= 9.94D-01 WtEn= 5.76D-03
 Coeff-Com: -0.231D-01 0.280D+00 0.222D+00 0.521D+00
 Coeff-En:   0.000D+00 0.000D+00 0.000D+00 0.100D+01
 Coeff:     -0.229D-01 0.278D+00 0.221D+00 0.524D+00
 Gap=     0.191 Goal=   None    Shift=    0.000
 RMSDP=1.01D-04 MaxDP=1.82D-03 DE=-1.24D-03 OVMax= 2.44D-03

 Cycle   5  Pass 1  IDiag  1:
 E= -706.420411030797     Delta-E=       -0.000041618642 Rises=F Damp=F
 DIIS: error= 1.78D-04 at cycle   5 NSaved=   5.
 NSaved= 5 IEnMin= 5 EnMin= -706.420411030797     IErMin= 5 ErrMin= 1.78D-04
 ErrMax= 1.78D-04  0.00D+00 EMaxC= 1.00D-01 BMatC= 9.32D-06 BMatP= 5.74D-05
 IDIUse=3 WtCom= 9.98D-01 WtEn= 1.78D-03
 Coeff-Com: -0.716D-02 0.725D-01 0.754D-01 0.301D+00 0.558D+00
 Coeff-En:   0.000D+00 0.000D+00 0.000D+00 0.132D+00 0.868D+00
 Coeff:     -0.714D-02 0.723D-01 0.753D-01 0.301D+00 0.559D+00
 Gap=     0.192 Goal=   None    Shift=    0.000
 RMSDP=6.12D-05 MaxDP=2.07D-03 DE=-4.16D-05 OVMax= 1.12D-03

 Cycle   6  Pass 1  IDiag  1:
 E= -706.420420368749     Delta-E=       -0.000009337951 Rises=F Damp=F
 DIIS: error= 4.76D-05 at cycle   6 NSaved=   6.
 NSaved= 6 IEnMin= 6 EnMin= -706.420420368749     IErMin= 6 ErrMin= 4.76D-05
 ErrMax= 4.76D-05  0.00D+00 EMaxC= 1.00D-01 BMatC= 6.54D-07 BMatP= 9.32D-06
 IDIUse=1 WtCom= 1.00D+00 WtEn= 0.00D+00
 Coeff-Com: -0.179D-02 0.113D-01 0.182D-01 0.110D+00 0.285D+00 0.577D+00
 Coeff:     -0.179D-02 0.113D-01 0.182D-01 0.110D+00 0.285D+00 0.577D+00
 Gap=     0.192 Goal=   None    Shift=    0.000
 RMSDP=1.39D-05 MaxDP=4.72D-04 DE=-9.34D-06 OVMax= 2.92D-04

 Cycle   7  Pass 1  IDiag  1:
 E= -706.420420851164     Delta-E=       -0.000000482415 Rises=F Damp=F
 DIIS: error= 3.57D-05 at cycle   7 NSaved=   7.
 NSaved= 7 IEnMin= 7 EnMin= -706.420420851164     IErMin= 7 ErrMin= 3.57D-05
 ErrMax= 3.57D-05  0.00D+00 EMaxC= 1.00D-01 BMatC= 2.12D-07 BMatP= 6.54D-07
 IDIUse=1 WtCom= 1.00D+00 WtEn= 0.00D+00
 Coeff-Com: -0.148D-03-0.375D-02 0.640D-03 0.323D-01 0.122D+00 0.396D+00
 Coeff-Com:  0.453D+00
 Coeff:     -0.148D-03-0.375D-02 0.640D-03 0.323D-01 0.122D+00 0.396D+00
 Coeff:      0.453D+00
 Gap=     0.192 Goal=   None    Shift=    0.000
 RMSDP=4.18D-06 MaxDP=1.02D-04 DE=-4.82D-07 OVMax= 1.83D-04

 Cycle   8  Pass 1  IDiag  1:
 E= -706.420421018283     Delta-E=       -0.000000167119 Rises=F Damp=F
 DIIS: error= 1.19D-05 at cycle   8 NSaved=   8.
 NSaved= 8 IEnMin= 8 EnMin= -706.420421018283     IErMin= 8 ErrMin= 1.19D-05
 ErrMax= 1.19D-05  0.00D+00 EMaxC= 1.00D-01 BMatC= 2.27D-08 BMatP= 2.12D-07
 IDIUse=1 WtCom= 1.00D+00 WtEn= 0.00D+00
 Coeff-Com:  0.190D-03-0.419D-02-0.285D-02 0.285D-02 0.326D-01 0.148D+00
 Coeff-Com:  0.289D+00 0.535D+00
 Coeff:      0.190D-03-0.419D-02-0.285D-02 0.285D-02 0.326D-01 0.148D+00
 Coeff:      0.289D+00 0.535D+00
 Gap=     0.192 Goal=   None    Shift=    0.000
 RMSDP=2.01D-06 MaxDP=4.97D-05 DE=-1.67D-07 OVMax= 4.64D-05

 Cycle   9  Pass 1  IDiag  1:
 E= -706.420421039700     Delta-E=       -0.000000021417 Rises=F Damp=F
 DIIS: error= 1.56D-06 at cycle   9 NSaved=   9.
 NSaved= 9 IEnMin= 9 EnMin= -706.420421039700     IErMin= 9 ErrMin= 1.56D-06
 ErrMax= 1.56D-06  0.00D+00 EMaxC= 1.00D-01 BMatC= 9.39D-10 BMatP= 2.27D-08
 IDIUse=1 WtCom= 1.00D+00 WtEn= 0.00D+00
 Coeff-Com:  0.885D-04-0.142D-02-0.150D-02-0.132D-02 0.389D-02 0.253D-01
 Coeff-Com:  0.817D-01 0.218D+00 0.675D+00
 Coeff:      0.885D-04-0.142D-02-0.150D-02-0.132D-02 0.389D-02 0.253D-01
 Coeff:      0.817D-01 0.218D+00 0.675D+00
 Gap=     0.192 Goal=   None    Shift=    0.000
 RMSDP=5.23D-07 MaxDP=1.58D-05 DE=-2.14D-08 OVMax= 1.66D-05

 Cycle  10  Pass 1  IDiag  1:
 E= -706.420421040845     Delta-E=       -0.000000001145 Rises=F Damp=F
 DIIS: error= 4.93D-07 at cycle  10 NSaved=  10.
 NSaved=10 IEnMin=10 EnMin= -706.420421040845     IErMin=10 ErrMin= 4.93D-07
 ErrMax= 4.93D-07  0.00D+00 EMaxC= 1.00D-01 BMatC= 7.16D-11 BMatP= 9.39D-10
 IDIUse=1 WtCom= 1.00D+00 WtEn= 0.00D+00
 Coeff-Com:  0.170D-04-0.116D-03-0.337D-03-0.730D-03-0.159D-02-0.541D-02
 Coeff-Com:  0.823D-03 0.322D-01 0.272D+00 0.703D+00
 Coeff:      0.170D-04-0.116D-03-0.337D-03-0.730D-03-0.159D-02-0.541D-02
 Coeff:      0.823D-03 0.322D-01 0.272D+00 0.703D+00
 Gap=     0.192 Goal=   None    Shift=    0.000
 RMSDP=1.49D-07 MaxDP=4.90D-06 DE=-1.14D-09 OVMax= 4.01D-06

 Cycle  11  Pass 1  IDiag  1:
 E= -706.420421040936     Delta-E=       -0.000000000091 Rises=F Damp=F
 DIIS: error= 1.16D-07 at cycle  11 NSaved=  11.
 NSaved=11 IEnMin=11 EnMin= -706.420421040936     IErMin=11 ErrMin= 1.16D-07
 ErrMax= 1.16D-07  0.00D+00 EMaxC= 1.00D-01 BMatC= 2.00D-12 BMatP= 7.16D-11
 IDIUse=1 WtCom= 1.00D+00 WtEn= 0.00D+00
 Coeff-Com: -0.495D-07 0.477D-04-0.185D-05-0.150D-03-0.645D-03-0.284D-02
 Coeff-Com: -0.454D-02-0.220D-02 0.389D-01 0.190D+00 0.781D+00
 Coeff:     -0.495D-07 0.477D-04-0.185D-05-0.150D-03-0.645D-03-0.284D-02
 Coeff:     -0.454D-02-0.220D-02 0.389D-01 0.190D+00 0.781D+00
 Gap=     0.192 Goal=   None    Shift=    0.000
 RMSDP=6.23D-08 MaxDP=2.55D-06 DE=-9.11D-11 OVMax= 9.72D-07

 Cycle  12  Pass 1  IDiag  1:
 E= -706.420421040935     Delta-E=        0.000000000001 Rises=F Damp=F
 DIIS: error= 2.40D-08 at cycle  12 NSaved=  12.
 NSaved=12 IEnMin=11 EnMin= -706.420421040936     IErMin=12 ErrMin= 2.40D-08
 ErrMax= 2.40D-08  0.00D+00 EMaxC= 1.00D-01 BMatC= 9.75D-14 BMatP= 2.00D-12
 IDIUse=1 WtCom= 1.00D+00 WtEn= 0.00D+00
 Coeff-Com: -0.646D-06 0.126D-04 0.162D-04-0.676D-05-0.617D-04-0.271D-03
 Coeff-Com: -0.971D-03-0.158D-02-0.399D-02 0.393D-02 0.157D+00 0.845D+00
 Coeff:     -0.646D-06 0.126D-04 0.162D-04-0.676D-05-0.617D-04-0.271D-03
 Coeff:     -0.971D-03-0.158D-02-0.399D-02 0.393D-02 0.157D+00 0.845D+00
 Gap=     0.192 Goal=   None    Shift=    0.000
 RMSDP=1.12D-08 MaxDP=3.33D-07 DE= 9.09D-13 OVMax= 2.82D-07

 Cycle  13  Pass 1  IDiag  1:
 E= -706.420421040939     Delta-E=       -0.000000000004 Rises=F Damp=F
 DIIS: error= 4.32D-09 at cycle  13 NSaved=  13.
 NSaved=13 IEnMin=13 EnMin= -706.420421040939     IErMin=13 ErrMin= 4.32D-09
 ErrMax= 4.32D-09  0.00D+00 EMaxC= 1.00D-01 BMatC= 6.76D-15 BMatP= 9.75D-14
 IDIUse=1 WtCom= 1.00D+00 WtEn= 0.00D+00
 Coeff-Com: -0.186D-06 0.806D-06 0.453D-05 0.862D-05 0.250D-04 0.104D-03
 Coeff-Com:  0.155D-04-0.300D-03-0.352D-02-0.112D-01-0.313D-02 0.238D+00
 Coeff-Com:  0.780D+00
 Coeff:     -0.186D-06 0.806D-06 0.453D-05 0.862D-05 0.250D-04 0.104D-03
 Coeff:      0.155D-04-0.300D-03-0.352D-02-0.112D-01-0.313D-02 0.238D+00
 Coeff:      0.780D+00
 Gap=     0.192 Goal=   None    Shift=    0.000
 RMSDP=1.63D-09 MaxDP=2.88D-08 DE=-4.21D-12 OVMax= 7.57D-08

 Error on total polarization charges =  0.02321
 SCF Done:  E(RB3LYP) =  -706.420421041     A.U. after   13 cycles
            NFock= 13  Conv=0.16D-08     -V/T= 2.0059
 KE= 7.022676317383D+02 PE=-2.150339547288D+03 EE= 5.054852972526D+02
 SMD-CDS (non-electrostatic) energy       (kcal/mol) =      -0.53
 (included in total energy above)
 Leave Link  502 at Wed Jan  8 01:15:37 2020, MaxMem=  4294967296 cpu:             495.6 elap:              36.9
 (Enter /home/cwagen/sw/g16/g16/l701.exe)
 ... and contract with generalized density number  0.
 Compute integral first derivatives.
 D1PCM: PCM CHGder 1st derivatives, ID1Alg=3 FixD1E=F DoIter=F DoCFld=F I1PDM=0.
 GePol: Maximum number of non-zero 1st derivatives   =     376
 Leave Link  701 at Wed Jan  8 01:15:42 2020, MaxMem=  4294967296 cpu:              61.1 elap:               4.8
 (Enter /home/cwagen/sw/g16/g16/l702.exe)
 L702 exits ... SP integral derivatives will be done elsewhere.
 Leave Link  702 at Wed Jan  8 01:15:42 2020, MaxMem=  4294967296 cpu:               1.2 elap:               0.1
 (Enter /home/cwagen/sw/g16/g16/l703.exe)
 Integral derivatives from FoFJK, PRISM(SPDF).
 Compute integral first derivatives, UseDBF=F ICtDFT=           0.
 Calling FoFJK, ICntrl=      2127 FMM=F ISym2X=0 I1Cent= 0 IOpClX= 0 NMat=1 NMatS=1 NMatT=0.
 FoFJK:  IHMeth= 1 ICntrl=    2127 DoSepK=F KAlg= 0 I1Cent=           0 FoldK=F
 IRaf=         0 NMat=       1 IRICut=       1 DoRegI=T DoRafI=F ISym2E= 0 IDoP0=0 IntGTp=1.
 FoFCou: FMM=F IPFlag=           0 FMFlag=      100000 FMFlg1=         800
         NFxFlg=           0 DoJE=F BraDBF=F KetDBF=F FulRan=T
         wScrn=  0.000000 ICntrl=      2127 IOpCl=  0 I1Cent=           0 NGrid=           0
         NMat0=    1 NMatS0=      1 NMatT0=    0 NMatD0=    1 NMtDS0=    0 NMtDT0=    0
 Symmetry not used in FoFCou.
 Leave Link  703 at Wed Jan  8 01:15:45 2020, MaxMem=  4294967296 cpu:              35.2 elap:               3.0
 (Enter /home/cwagen/sw/g16/g16/l716.exe)
 Dipole        = 7.14420413D-01 2.21754122D+00-1.03676339D+00
 ***** Axes restored to original set *****
 -------------------------------------------------------------------
 Center     Atomic                   Forces (Hartrees/Bohr)
 Number     Number              X              Y              Z
 -------------------------------------------------------------------
      1        6           0.052195147   -0.022361539   -0.034770850
      2        8          -0.009401617    0.018632588    0.034476223
      3        6          -0.011172645    0.018651170    0.003807522
      4        1           0.000476048   -0.000130168   -0.001592092
      5        1           0.001365136    0.000415126   -0.000679909
      6        1           0.001959215   -0.000653303   -0.000492438
      7       17           0.005682166   -0.006153141   -0.000098697
      8        6          -0.040351118   -0.008872349   -0.000231316
      9        7          -0.000752331    0.000471616   -0.000418443
 -------------------------------------------------------------------
 Cartesian Forces:  Max     0.052195147 RMS     0.017567478
 Leave Link  716 at Wed Jan  8 01:15:45 2020, MaxMem=  4294967296 cpu:               1.3 elap:               0.1
 (Enter /home/cwagen/sw/g16/g16/l103.exe)

 GradGradGradGradGradGradGradGradGradGradGradGradGradGradGradGradGradGrad
 Berny optimization.
 Using GEDIIS/GDIIS optimizer.
 FormGI is forming the generalized inverse of G from B-inverse, IUseBI=4.
 Internal  Forces:  Max     0.040419294 RMS     0.011673944
 Search for a local minimum.
 Step number   2 out of a maximum of   41
 All quantities printed in internal units (Hartrees-Bohrs-Radians)
 RMS Force = .93334D-02 SwitMx=.10000D-02 MixMth= 1
 Mixed Optimization -- RFO/linear search
 Update second derivatives using D2CorX and points    1    2
 DE= -2.54D-02 DEPred=-2.15D-02 R= 1.18D+00
 TightC=F SS=  1.41D+00  RLast= 3.74D-01 DXNew= 5.0454D-01 1.1215D+00
 Trust test= 1.18D+00 RLast= 3.74D-01 DXMaxT set to 5.05D-01
 ITU=  1  0
 Use linear search instead of GDIIS.
     Eigenvalues ---    0.00230   0.04714   0.04749   0.05437   0.05782
     Eigenvalues ---    0.06030   0.08960   0.15987   0.16000   0.16215
     Eigenvalues ---    0.23345   0.25000   0.26437   0.27938   0.33915
     Eigenvalues ---    0.33988   0.34350   0.58082   1.220621000.00000
     Eigenvalues --- 1000.000001000.000001000.000001000.000001000.00000
     Eigenvalues --- 1000.000001000.000001000.000001000.000001000.00000
     Eigenvalues --- 1000.00000
 RFO step:  Lambda=-4.92291817D-03 EMin= 2.30174144D-03
 Quartic linear search produced a step of  0.67486.
 Iteration  1 RMS(Cart)=  0.09990789 RMS(Int)=  0.01136171
 Iteration  2 RMS(Cart)=  0.01023539 RMS(Int)=  0.00797496
 Iteration  3 RMS(Cart)=  0.00007101 RMS(Int)=  0.00797473
 Iteration  4 RMS(Cart)=  0.00000174 RMS(Int)=  0.00797473
 Iteration  5 RMS(Cart)=  0.00000003 RMS(Int)=  0.00797473
 Iteration  1 RMS(Cart)=  0.00000000 RMS(Int)=  0.00000000
 ITry= 1 IFail=0 DXMaxC= 2.44D-01 DCOld= 1.00D+10 DXMaxT= 5.05D-01 DXLimC= 3.00D+00 Rises=F
 Variable       Old X    -DE/DX   Delta X   Delta X   Delta X     New X
                                 (Linear)    (Quad)   (Total)
    R1        2.32713  -0.03624  -0.08445  -0.00939  -0.09385   2.23328
    R2        2.88739  -0.01102  -0.03890  -0.02558  -0.06447   2.82292
    R3        4.72432  -0.00805   0.00000   0.00000   0.00000   4.72432
    R4        3.40151  -0.04042   0.00000   0.00000   0.00000   3.40151
    R5        2.06747  -0.00144  -0.00395  -0.00297  -0.00692   2.06054
    R6        2.07196  -0.00137  -0.00184  -0.00483  -0.00667   2.06529
    R7        2.06517   0.00190  -0.00237   0.01174   0.00937   2.07455
    R8        2.20495  -0.00062  -0.00289   0.00177  -0.00111   2.20384
    A1        2.12951   0.01700   0.08965   0.03567   0.10808   2.23759
    A2        1.93782  -0.00533  -0.05484  -0.00888  -0.05395   1.88387
    A3        1.91337   0.00131   0.01416   0.08636   0.07304   1.98641
    A4        1.82007  -0.01285  -0.07027  -0.05322  -0.11601   1.70406
    A5        1.87741   0.00170   0.07118  -0.03758   0.01040   1.88781
    A6        1.74550  -0.00681  -0.06026  -0.04458  -0.10283   1.64267
    A7        1.96319  -0.00058  -0.00728   0.00317  -0.00433   1.95886
    A8        1.90576  -0.00031   0.01778  -0.02461  -0.00674   1.89903
    A9        1.85406  -0.00107  -0.03195   0.02805  -0.00404   1.85002
   A10        1.90761   0.00091   0.00273   0.00769   0.01042   1.91803
   A11        1.92259   0.00035   0.00959  -0.00945  -0.00033   1.92226
   A12        1.90957   0.00069   0.00947  -0.00503   0.00467   1.91424
   A13        3.05105   0.00172  -0.03190   0.12244   0.09054   3.14159
   A14        2.93756  -0.00030   0.01745  -0.04603  -0.02858   2.90898
    D1        3.13994   0.00827   0.06400   0.04803   0.11896  -3.02429
    D2       -1.02235   0.00883   0.07506   0.04268   0.12461  -0.89774
    D3        1.03527   0.00888   0.07837   0.03949   0.12447   1.15974
    D4       -0.93415   0.00158  -0.00493   0.01183   0.00535  -0.92880
    D5        1.18674   0.00213   0.00613   0.00648   0.01100   1.19774
    D6       -3.03882   0.00219   0.00944   0.00329   0.01086  -3.02796
    D7        0.90872  -0.01049  -0.06917  -0.07203  -0.14619   0.76252
    D8        3.02961  -0.00994  -0.05811  -0.07738  -0.14054   2.88907
    D9       -1.19595  -0.00988  -0.05480  -0.08057  -0.14068  -1.33664
         Item               Value     Threshold  Converged?
 Maximum Force            0.036243     0.000450     NO 
 RMS     Force            0.009333     0.000300     NO 
 Maximum Displacement     0.244423     0.001800     NO 
 RMS     Displacement     0.102058     0.001200     NO 
 Predicted change in Energy=-1.021798D-02
 Lowest energy point so far.  Saving SCF results.
 GradGradGradGradGradGradGradGradGradGradGradGradGradGradGradGradGradGrad

 Leave Link  103 at Wed Jan  8 01:15:50 2020, MaxMem=  4294967296 cpu:              60.0 elap:               4.7
 (Enter /home/cwagen/sw/g16/g16/l202.exe)
                          Input orientation:                          
 ---------------------------------------------------------------------
 Center     Atomic      Atomic             Coordinates (Angstroms)
 Number     Number       Type             X           Y           Z
 ---------------------------------------------------------------------
      1          6           0       -0.072720   -0.493694   -0.296045
      2          8           0       -0.270517   -0.618356   -1.454489
      3          6           0       -0.378890   -1.458489    0.802564
      4          1           0       -0.195098   -1.032184    1.789195
      5          1           0       -1.424082   -1.766899    0.719497
      6          1           0        0.276139   -2.323703    0.636694
      7         17           0       -1.479490    1.402605    0.525569
      8          6           0        1.483932    0.322677    0.091731
      9          7           0        2.548779    0.791102    0.173918
 ---------------------------------------------------------------------
                    Distance matrix (angstroms):
                    1          2          3          4          5
     1  C    0.000000
     2  O    1.181803   0.000000
     3  C    1.493824   2.410779   0.000000
     4  H    2.157121   3.270846   1.090393   0.000000
     5  H    2.116259   2.715893   1.092906   1.787306   0.000000
     6  H    2.083419   2.753196   1.097803   1.793975   1.790988
     7  Cl   2.500000   3.076772   3.077971   3.028962   3.175914
     8  C    1.800000   2.520800   2.673564   2.745209   3.635514
     9  N    2.956996   3.547775   3.745277   3.669108   4.756537
                    6          7          8          9
     6  H    0.000000
     7  Cl   4.120673   0.000000
     8  C    2.959574   3.183761   0.000000
     9  N    3.883435   4.089565   1.166222   0.000000
 Stoichiometry    C3H3ClNO(1-)
 Framework group  C1[X(C3H3ClNO)]
 Deg. of freedom    21
 Full point group                 C1      NOp   1
 RotChk:  IX=0 Diff= 1.39D-01
 Largest Abelian subgroup         C1      NOp   1
 Largest concise Abelian subgroup C1      NOp   1
                         Standard orientation:                         
 ---------------------------------------------------------------------
 Center     Atomic      Atomic             Coordinates (Angstroms)
 Number     Number       Type             X           Y           Z
 ---------------------------------------------------------------------
      1          6           0        0.261847    0.697480    0.234593
      2          8           0        0.278364    1.088788    1.349610
      3          6           0        0.084417    1.489035   -1.019787
      4          1           0       -0.005663    0.852186   -1.900279
      5          1           0       -0.807128    2.113147   -0.919414
      6          1           0        0.974296    2.126398   -1.103781
      7         17           0       -1.727884   -0.792998   -0.028933
      8          6           0        1.450207   -0.614197   -0.092977
      9          7           0        2.315254   -1.393568   -0.158933
 ---------------------------------------------------------------------
 Rotational constants (GHZ):           3.1022591           1.9724455           1.5619005
 Leave Link  202 at Wed Jan  8 01:15:50 2020, MaxMem=  4294967296 cpu:               2.4 elap:               0.2
 (Enter /home/cwagen/sw/g16/g16/l301.exe)
 Standard basis: 6-31+G(d) (6D, 7F)
 Ernie: Thresh=  0.10000D-02 Tol=  0.10000D-05 Strict=F.
 There are   124 symmetry adapted cartesian basis functions of A   symmetry.
 There are   124 symmetry adapted basis functions of A   symmetry.
   124 basis functions,   228 primitive gaussians,   124 cartesian basis functions
    27 alpha electrons       27 beta electrons
       nuclear repulsion energy       240.6108160244 Hartrees.
 IExCor=  402 DFT=T Ex+Corr=B3LYP ExCW=0 ScaHFX=  0.200000
 ScaDFX=  0.800000  0.720000  1.000000  0.810000 ScalE2=  1.000000  1.000000
 IRadAn=      5 IRanWt=     -1 IRanGd=            0 ICorTp=0 IEmpDi=  4
 NAtoms=    9 NActive=    9 NUniq=    9 SFac= 1.00D+00 NAtFMM=   60 NAOKFM=F Big=F
 Integral buffers will be    131072 words long.
 Raffenetti 2 integral format.
 Two-electron integral symmetry is turned on.
 ------------------------------------------------------------------------------
 Polarizable Continuum Model (PCM)
 =================================
 Model                : PCM.
 Atomic radii         : SMD-Coulomb.
 Polarization charges : Total charges.
 Charge compensation  : None.
 Solution method      : On-the-fly selection.
 Cavity type          : VdW (van der Waals Surface) (Alpha=1.000).
 Cavity algorithm     : GePol (No added spheres)
                        Default sphere list used, NSphG=    9.
                        Lebedev-Laikov grids with approx.  5.0 points / Ang**2.
                        Smoothing algorithm: York/Karplus (Gamma=1.0000).
                        Polarization charges: spherical gaussians, with
                                              point-specific exponents (IZeta= 3).
                        Self-potential: point-specific (ISelfS= 7).
                        Self-field    : sphere-specific E.n sum rule (ISelfD= 2).
 1st derivatives      : Analytical E(r).r(x)/FMM algorithm (CHGder, D1EAlg=3).
                        Cavity 1st derivative terms included.
 Solvent              : TetraHydroFuran, Eps=   7.425700 Eps(inf)=   1.974025
 ------------------------------------------------------------------------------
 Spheres list:
 ISph  on   Nord     Re0    Alpha      Xe            Ye            Ze
    1   C      1    1.8500  1.000      0.261847      0.697480      0.234593
    2   O      2    2.2940  1.000      0.278364      1.088788      1.349610
    3   C      3    1.8500  1.000      0.084417      1.489035     -1.019787
    4   H      4    1.2000  1.000     -0.005663      0.852186     -1.900279
    5   H      5    1.2000  1.000     -0.807128      2.113147     -0.919414
    6   H      6    1.2000  1.000      0.974296      2.126398     -1.103781
    7  Cl      7    2.3800  1.000     -1.727884     -0.792998     -0.028933
    8   C      8    1.8500  1.000      1.450207     -0.614197     -0.092977
    9   N      9    1.8900  1.000      2.315254     -1.393568     -0.158933
 ------------------------------------------------------------------------------
 GePol: Number of generator spheres                  =       9
 GePol: Total number of spheres                      =       9
 GePol: Number of exposed spheres                    =       9 (100.00%)
 GePol: Number of points                             =    1198
 GePol: Average weight of points                     =       0.13
 GePol: Minimum weight of points                     =   0.28D-10
 GePol: Maximum weight of points                     =    0.18138
 GePol: Number of points with low weight             =      46
 GePol: Fraction of low-weight points (<1% of avg)   =       3.84%
 GePol: Cavity surface area                          =    161.374 Ang**2
 GePol: Cavity volume                                =    148.173 Ang**3
 ------------------------------------------------------------------------------
 Atomic radii for non-electrostatic terms: SMD-CDS.
 ------------------------------------------------------------------------------
 PCM non-electrostatic energy =        -0.0008484198 Hartrees.
[...]
      8        6          -0.035407558   -0.020166208   -0.008967907
      9        7           0.000005028   -0.000008350   -0.000021486
 -------------------------------------------------------------------
 Cartesian Forces:  Max     0.038663917 RMS     0.011479027
 Leave Link  716 at Wed Jan  8 01:20:46 2020, MaxMem=  4294967296 cpu:               0.9 elap:               0.1
 (Enter /home/cwagen/sw/g16/g16/l103.exe)

 GradGradGradGradGradGradGradGradGradGradGradGradGradGradGradGradGradGrad
 Berny optimization.
 Using GEDIIS/GDIIS optimizer.
 FormGI is forming the generalized inverse of G from B-inverse, IUseBI=4.
 Internal  Forces:  Max     0.041717967 RMS     0.007573794
 Search for a local minimum.
 Step number   8 out of a maximum of   41
 All quantities printed in internal units (Hartrees-Bohrs-Radians)
 RMS Force = .18447D-04 SwitMx=.10000D-02 MixMth= 2
 Mixed Optimization -- En-DIIS/RFO-DIIS
 Swapping is turned off.
 Update second derivatives using D2CorX and points    2    3    4    5    6
                                                      7    8
 DE= -5.93D-07 DEPred=-3.24D-07 R= 1.83D+00
 Trust test= 1.83D+00 RLast= 3.23D-03 DXMaxT set to 8.49D-01
 ITU=  0  1  1  1  1  1  1  0
     Eigenvalues ---    0.00237   0.03022   0.04290   0.05089   0.05431
     Eigenvalues ---    0.06002   0.08155   0.15385   0.16139   0.16397
     Eigenvalues ---    0.21544   0.23197   0.25009   0.28259   0.33962
     Eigenvalues ---    0.34084   0.34483   0.90590   1.222181000.00000
     Eigenvalues --- 1000.000001000.000001000.000001000.000001000.00000
     Eigenvalues --- 1000.000001000.000001000.000001000.000001000.00000
     Eigenvalues --- 1000.00000
 En-DIIS/RFO-DIIS/Sim-DIIS IScMMF=       -3 using points:     8    7    6    5
 RFO step:  Lambda=-1.83625015D-06.
 NNeg= 0 NGDIIS= 4 SimSw=  2.50D-01 Rises=F DC= -5.93D-07 SmlDif=  1.00D-05
 NRisDI= 0 DoIntr=F SqrtH=F CThrHd= 10.0 CDAdj=  3.0
 RMS Error=  0.2220536878D-03 NUsed= 4 OKEnD=F EnDIS=F
 InvSVX:  RCond= 3.01D-07 Info=           0 Equed=N FErr=  6.25D-15 BErr=  4.72D-17
 DidBck=F Rises=F RFO-DIIS coefs:    1.24876   -0.25057   -0.01404    0.01586
 Iteration  1 RMS(Cart)=  0.00037885 RMS(Int)=  0.00000007
 Iteration  2 RMS(Cart)=  0.00000006 RMS(Int)=  0.00000004
 Iteration  1 RMS(Cart)=  0.00000000 RMS(Int)=  0.00000000
 ITry= 1 IFail=0 DXMaxC= 1.01D-03 DCOld= 1.00D+10 DXMaxT= 8.49D-01 DXLimC= 3.00D+00 Rises=F
 Variable       Old X    -DE/DX   Delta X   Delta X   Delta X     New X
                                 (Linear)    (Quad)   (Total)
    R1        2.26161   0.00001   0.00006  -0.00006   0.00000   2.26161
    R2        2.83003   0.00001   0.00013  -0.00007   0.00006   2.83008
    R3        4.72432   0.00615   0.00000   0.00000   0.00000   4.72432
    R4        3.40151  -0.04172   0.00000   0.00000   0.00000   3.40151
    R5        2.05817   0.00000   0.00001  -0.00002   0.00000   2.05817
    R6        2.06648   0.00000   0.00001   0.00000   0.00001   2.06649
    R7        2.07843   0.00000  -0.00002   0.00001  -0.00002   2.07841
    R8        2.20460   0.00000   0.00001  -0.00001   0.00000   2.20460
    A1        2.25627   0.00001  -0.00008   0.00010   0.00002   2.25629
    A2        1.86381   0.00001  -0.00001   0.00003   0.00003   1.86384
    A3        2.01525   0.00005   0.00020   0.00003   0.00023   2.01548
    A4        1.67117  -0.00003  -0.00004  -0.00008  -0.00012   1.67105
    A5        1.90527  -0.00007  -0.00016  -0.00016  -0.00033   1.90494
    A6        1.57180   0.00003   0.00015   0.00010   0.00025   1.57205
    A7        1.95226   0.00000   0.00005  -0.00007  -0.00002   1.95224
    A8        1.90733   0.00001   0.00007  -0.00002   0.00005   1.90738
    A9        1.86551  -0.00001  -0.00010   0.00003  -0.00008   1.86544
   A10        1.92586  -0.00001  -0.00015   0.00001  -0.00014   1.92572
   A11        1.90823   0.00001   0.00011   0.00004   0.00015   1.90838
   A12        1.90319   0.00000   0.00002   0.00002   0.00004   1.90323
   A13        3.13033  -0.00001  -0.00034   0.00009  -0.00025   3.13007
   A14        2.99169   0.00000  -0.00019   0.00009  -0.00009   2.99160
    D1       -2.92781   0.00000  -0.00026  -0.00001  -0.00027  -2.92807
    D2       -0.78994   0.00000  -0.00036  -0.00006  -0.00042  -0.79037
    D3        1.26728   0.00000  -0.00036  -0.00004  -0.00039   1.26689
    D4       -0.88197   0.00000  -0.00034   0.00001  -0.00034  -0.88231
    D5        1.25589  -0.00001  -0.00045  -0.00004  -0.00049   1.25540
    D6       -2.97007  -0.00001  -0.00044  -0.00002  -0.00046  -2.97053
    D7        0.72489   0.00001  -0.00022   0.00007  -0.00015   0.72475
    D8        2.86276   0.00000  -0.00032   0.00002  -0.00030   2.86246
    D9       -1.36320   0.00000  -0.00032   0.00004  -0.00027  -1.36347
         Item               Value     Threshold  Converged?
 Maximum Force            0.000068     0.000450     YES
 RMS     Force            0.000018     0.000300     YES
 Maximum Displacement     0.001009     0.001800     YES
 RMS     Displacement     0.000379     0.001200     YES
 Predicted change in Energy=-2.895883D-08
 Optimization completed.
    -- Stationary point found.
                           ----------------------------
                           !   Optimized Parameters   !
                           ! (Angstroms and Degrees)  !
 --------------------------                            --------------------------
 ! Name  Definition              Value          Derivative Info.                !
 --------------------------------------------------------------------------------
 ! R1    R(1,2)                  1.1968         -DE/DX =    0.0                 !
 ! R2    R(1,3)                  1.4976         -DE/DX =    0.0                 !
 ! R3    R(1,7)                  2.5            -DE/DX =    0.0062              !
 ! R4    R(1,8)                  1.8            -DE/DX =   -0.0417              !
 ! R5    R(3,4)                  1.0891         -DE/DX =    0.0                 !
 ! R6    R(3,5)                  1.0935         -DE/DX =    0.0                 !
 ! R7    R(3,6)                  1.0999         -DE/DX =    0.0                 !
 ! R8    R(8,9)                  1.1666         -DE/DX =    0.0                 !
 ! A1    A(2,1,3)              129.2746         -DE/DX =    0.0                 !
 ! A2    A(2,1,7)              106.7887         -DE/DX =    0.0                 !
 ! A3    A(2,1,8)              115.4653         -DE/DX =    0.0001              !
 ! A4    A(3,1,7)               95.751          -DE/DX =    0.0                 !
 ! A5    A(3,1,8)              109.164          -DE/DX =   -0.0001              !
 ! A6    A(7,1,8)               90.0573         -DE/DX =    0.0                 !
 ! A7    A(1,3,4)              111.8561         -DE/DX =    0.0                 !
 ! A8    A(1,3,5)              109.2821         -DE/DX =    0.0                 !
 ! A9    A(1,3,6)              106.8861         -DE/DX =    0.0                 !
 ! A10   A(4,3,5)              110.3436         -DE/DX =    0.0                 !
 ! A11   A(4,3,6)              109.3333         -DE/DX =    0.0                 !
 ! A12   A(5,3,6)              109.0448         -DE/DX =    0.0                 !
 ! A13   L(1,8,9,6,-1)         179.3545         -DE/DX =    0.0                 !
 ! A14   L(1,8,9,6,-2)         171.4112         -DE/DX =    0.0                 !
 ! D1    D(2,1,3,4)           -167.7509         -DE/DX =    0.0                 !
 ! D2    D(2,1,3,5)            -45.2605         -DE/DX =    0.0                 !
 ! D3    D(2,1,3,6)             72.61           -DE/DX =    0.0                 !
 ! D4    D(7,1,3,4)            -50.5334         -DE/DX =    0.0                 !
 ! D5    D(7,1,3,5)             71.957          -DE/DX =    0.0                 !
 ! D6    D(7,1,3,6)           -170.1725         -DE/DX =    0.0                 !
 ! D7    D(8,1,3,4)             41.5334         -DE/DX =    0.0                 !
 ! D8    D(8,1,3,5)            164.0238         -DE/DX =    0.0                 !
 ! D9    D(8,1,3,6)            -78.1057         -DE/DX =    0.0                 !
 --------------------------------------------------------------------------------
 Lowest energy point so far.  Saving SCF results.
 Largest change from initial coordinates is atom    6       0.151 Angstoms.
 GradGradGradGradGradGradGradGradGradGradGradGradGradGradGradGradGradGrad

 Leave Link  103 at Wed Jan  8 01:20:49 2020, MaxMem=  4294967296 cpu:              39.3 elap:               2.7
 (Enter /home/cwagen/sw/g16/g16/l202.exe)
                          Input orientation:                          
 ---------------------------------------------------------------------
 Center     Atomic      Atomic             Coordinates (Angstroms)
 Number     Number       Type             X           Y           Z
 ---------------------------------------------------------------------
      1          6           0       -0.053222   -0.531569   -0.323918
      2          8           0       -0.310960   -0.624591   -1.488919
      3          6           0       -0.385359   -1.466209    0.798087
      4          1           0       -0.205755   -1.011412    1.771287
      5          1           0       -1.429878   -1.778033    0.711121
      6          1           0        0.262972   -2.347127    0.682611
      7         17           0       -1.377185    1.397554    0.556766
      8          6           0        1.474575    0.337662    0.063730
      9          7           0        2.512864    0.846785    0.217867
 ---------------------------------------------------------------------
                    Distance matrix (angstroms):
                    1          2          3          4          5
     1  C    0.000000
     2  O    1.196791   0.000000
     3  C    1.497585   2.438084   0.000000
     4  H    2.154855   3.284759   1.089135   0.000000
     5  H    2.126066   2.724441   1.093534   1.791685   0.000000
     6  H    2.099840   2.830561   1.099856   1.785792   1.786175
     7  Cl   2.500000   3.067692   3.040246   2.941161   3.179773
     8  C    1.800000   2.554367   2.693062   2.749411   3.651181
     9  N    2.962802   3.612763   3.753171   3.641003   4.762162
                    6          7          8          9
     6  H    0.000000
     7  Cl   4.090060   0.000000
     8  C    3.009831   3.082044   0.000000
     9  N    3.934346   3.943435   1.166623   0.000000
 Stoichiometry    C3H3ClNO(1-)
 Framework group  C1[X(C3H3ClNO)]
 Deg. of freedom    21
 Full point group                 C1      NOp   1
 RotChk:  IX=0 Diff= 1.90D-15
 Largest Abelian subgroup         C1      NOp   1
 Largest concise Abelian subgroup C1      NOp   1
                         Standard orientation:                         
 ---------------------------------------------------------------------
 Center     Atomic      Atomic             Coordinates (Angstroms)
 Number     Number       Type             X           Y           Z
 ---------------------------------------------------------------------
      1          6           0        0.262253    0.755312    0.225955
      2          8           0        0.218433    1.178300    1.344647
      3          6           0        0.017760    1.469053   -1.067706
      4          1           0       -0.077834    0.775249   -1.901800
      5          1           0       -0.883648    2.081537   -0.977456
      6          1           0        0.882808    2.126532   -1.238284
      7         17           0       -1.636520   -0.853322   -0.012703
      8          6           0        1.433456   -0.583402   -0.049955
      9          7           0        2.267319   -1.392718   -0.153349
 ---------------------------------------------------------------------
 Rotational constants (GHZ):           2.9655556           2.0841683           1.6050397
 Leave Link  202 at Wed Jan  8 01:20:49 2020, MaxMem=  4294967296 cpu:               1.3 elap:               0.1
 (Enter /home/cwagen/sw/g16/g16/l601.exe)
 Copying SCF densities to generalized density rwf, IOpCl= 0 IROHF=0.

 **********************************************************************

            Population analysis using the SCF density.

 **********************************************************************

 Orbital symmetries:
       Occupied  (A) (A) (A) (A) (A) (A) (A) (A) (A) (A) (A) (A)
                 (A) (A) (A) (A) (A) (A) (A) (A) (A) (A) (A) (A)
                 (A) (A) (A)
       Virtual   (A) (A) (A) (A) (A) (A) (A) (A) (A) (A) (A) (A)
                 (A) (A) (A) (A) (A) (A) (A) (A) (A) (A) (A) (A)
                 (A) (A) (A) (A) (A) (A) (A) (A) (A) (A) (A) (A)
                 (A) (A) (A) (A) (A) (A) (A) (A) (A) (A) (A) (A)
                 (A) (A) (A) (A) (A) (A) (A) (A) (A) (A) (A) (A)
                 (A) (A) (A) (A) (A) (A) (A) (A) (A) (A) (A) (A)
                 (A) (A) (A) (A) (A) (A) (A) (A) (A) (A) (A) (A)
                 (A) (A) (A) (A) (A) (A) (A) (A) (A) (A) (A) (A)
                 (A)
 The electronic state is 1-A.
 Alpha  occ. eigenvalues -- -101.43181 -19.15440 -14.32066 -10.32363 -10.21020
 Alpha  occ. eigenvalues --  -10.18412  -9.34618  -7.10534  -7.10317  -7.10307
 Alpha  occ. eigenvalues --   -1.06027  -0.88151  -0.74642  -0.68785  -0.56273
 Alpha  occ. eigenvalues --   -0.47952  -0.44007  -0.43802  -0.39313  -0.36498
 Alpha  occ. eigenvalues --   -0.36283  -0.32235  -0.32086  -0.27193  -0.23012
 Alpha  occ. eigenvalues --   -0.22625  -0.22566
 Alpha virt. eigenvalues --   -0.02177   0.02134   0.03230   0.04392   0.05375
 Alpha virt. eigenvalues --    0.06779   0.06870   0.08374   0.09505   0.09870
 Alpha virt. eigenvalues --    0.10428   0.10629   0.11285   0.13191   0.13739
 Alpha virt. eigenvalues --    0.14201   0.14474   0.17255   0.17448   0.21318
 Alpha virt. eigenvalues --    0.23575   0.24651   0.25110   0.25312   0.26742
 Alpha virt. eigenvalues --    0.28518   0.29039   0.30855   0.33100   0.35145
 Alpha virt. eigenvalues --    0.37830   0.41610   0.46981   0.62139   0.64133
 Alpha virt. eigenvalues --    0.64770   0.66099   0.69128   0.70972   0.72233
 Alpha virt. eigenvalues --    0.75165   0.78014   0.79172   0.80047   0.81420
 Alpha virt. eigenvalues --    0.82764   0.89385   0.94185   0.97603   0.98047
 Alpha virt. eigenvalues --    0.98777   0.99321   1.01616   1.01949   1.04009
 Alpha virt. eigenvalues --    1.05295   1.09900   1.14882   1.17630   1.28633
 Alpha virt. eigenvalues --    1.30710   1.34004   1.34825   1.41625   1.45522
 Alpha virt. eigenvalues --    1.50068   1.55647   1.56519   1.59487   1.63226
 Alpha virt. eigenvalues --    1.68086   1.70215   1.80910   1.85030   1.89654
 Alpha virt. eigenvalues --    1.94160   1.98227   1.99280   2.06148   2.15242
 Alpha virt. eigenvalues --    2.25145   2.27132   2.39989   2.50519   2.57339
 Alpha virt. eigenvalues --    2.64860   2.74293   2.79582   2.89888   3.13161
 Alpha virt. eigenvalues --    3.15399   4.11405   4.17159   4.31055   4.36924
 Alpha virt. eigenvalues --    4.41626   4.55251
          Condensed to atoms (all electrons):
               1          2          3          4          5          6
     1  C    5.684077   0.604675   0.040449  -0.091783  -0.080100   0.015277
     2  O    0.604675   8.049106  -0.120104   0.008019   0.001015  -0.006496
     3  C    0.040449  -0.120104   5.814814   0.399853   0.390920   0.337817
     4  H   -0.091783   0.008019   0.399853   0.449272  -0.020054  -0.025596
     5  H   -0.080100   0.001015   0.390920  -0.020054   0.452938  -0.023677
     6  H    0.015277  -0.006496   0.337817  -0.025596  -0.023677   0.471307
     7  Cl   0.216796  -0.076651  -0.126754  -0.001336  -0.005948   0.005707
     8  C   -0.694221  -0.134779  -0.091400   0.023721   0.028358  -0.026494
     9  N   -0.027092  -0.002661  -0.010544   0.000384  -0.000007  -0.000872
               7          8          9
     1  C    0.216796  -0.694221  -0.027092
     2  O   -0.076651  -0.134779  -0.002661
     3  C   -0.126754  -0.091400  -0.010544
     4  H   -0.001336   0.023721   0.000384
     5  H   -0.005948   0.028358  -0.000007
     6  H    0.005707  -0.026494  -0.000872
     7  Cl  17.809670  -0.075978  -0.019115
     8  C   -0.075978   6.176613   0.601694
     9  N   -0.019115   0.601694   7.066162
 Mulliken charges:
               1
     1  C    0.331923
     2  O   -0.322124
     3  C   -0.635050
     4  H    0.257520
     5  H    0.256555
     6  H    0.253028
     7  Cl  -0.726392
     8  C    0.192488
     9  N   -0.607948
 Sum of Mulliken charges =  -1.00000
 Mulliken charges with hydrogens summed into heavy atoms:
               1
     1  C    0.331923
     2  O   -0.322124
     3  C    0.132053
     7  Cl  -0.726392
     8  C    0.192488
     9  N   -0.607948
 Electronic spatial extent (au):  <R**2>=            801.0391
 Charge=             -1.0000 electrons
 Dipole moment (field-independent basis, Debye):
    X=              1.7070    Y=              6.4888    Z=             -2.7959  Tot=              7.2687
 Quadrupole moment (field-independent basis, Debye-Ang):
   XX=            -67.8155   YY=            -53.3135   ZZ=            -48.3087
   XY=              2.0213   XZ=              0.3463   YZ=             -5.1185
 Traceless Quadrupole moment (field-independent basis, Debye-Ang):
   XX=            -11.3363   YY=              3.1657   ZZ=              8.1705
   XY=              2.0213   XZ=              0.3463   YZ=             -5.1185
 Octapole moment (field-independent basis, Debye-Ang**2):
  XXX=             -9.5185  YYY=             24.8907  ZZZ=             -4.1992  XYY=             -6.9581
  XXY=             34.0294  XXZ=              3.2141  XZZ=              0.1289  YZZ=              1.0377
  YYZ=             -4.2958  XYZ=             -2.1494
 Hexadecapole moment (field-independent basis, Debye-Ang**3):
 XXXX=           -702.3238 YYYY=           -400.9208 ZZZZ=           -188.5569 XXXY=             36.5561
 XXXZ=              7.1867 YYYX=             17.2398 YYYZ=             -9.3828 ZZZX=              0.4910
 ZZZY=             -4.6726 XXYY=           -197.6454 XXZZ=           -131.8171 YYZZ=           -100.4634
 XXYZ=             -4.5861 YYXZ=              1.6813 ZZXY=             -0.2348
 N-N= 2.412404503988D+02 E-N=-2.160769304147D+03  KE= 7.024467343927D+02
 No NMR shielding tensors so no spin-rotation constants.
 Leave Link  601 at Wed Jan  8 01:20:50 2020, MaxMem=  4294967296 cpu:              12.3 elap:               0.9
 (Enter /home/cwagen/sw/g16/g16/l9999.exe)
 1\1\GINC-NODE028\FOpt\RB3LYP\6-31+G(d)\C3H3Cl1N1O1(1-)\CWAGEN\08-Jan-2
 020\0\\#p opt=modredundant b3lyp/6-31+g(d) scrf=(smd, solvent=tetrahyd
 rofuran)\\title\\-1,1\C,-0.0532223855,-0.531569413,-0.3239181108\O,-0.
 3109604047,-0.6245909798,-1.4889192291\C,-0.3853585537,-1.466208928,0.
 7980873224\H,-0.2057550621,-1.0114122241,1.771286991\H,-1.4298776247,-
 1.7780332314,0.7111207839\H,0.2629723574,-2.3471269564,0.6826112288\Cl
 ,-1.3771852427,1.3975540181,0.5567663729\C,1.474575416,0.3376615341,0.
 0637304858\N,2.51286416,0.8467852006,0.217867485\\Version=AS64L-G16Rev
 A.03\State=1-A\HF=-706.4307414\RMSD=8.431e-09\RMSF=1.148e-02\Dipole=-0
 .0081624,-2.8340057,0.3827117\Quadrupole=-8.4767817,4.394353,4.0824287
 ,1.4350417,0.2449636,-4.1842975\PG=C01 [X(C3H3Cl1N1O1)]\\@


 SATCHEL PAIGE'S GUIDE TO LONGEVITY

    1.  AVOID FRIED MEATS, WHICH ANGRY UP THE BLOOD.

    2.  IF YOUR STOMACH DISPUTES YOU, LIE DOWN AND PACIFY IT WITH COOL
        THOUGHTS.

    3.  KEEP THE JUICES FLOWING BY JANGLING AROUND GENTLY AS YOU MOVE.

    4.  GO VERY LIGHT ON THE VICES, SUCH AS CARRYING ON IN SOCIETY.
        THE SOCIAL RUMBLE AIN'T RESTFUL.

    5.  AVOID RUNNING AT ALL TIMES.

    6.  DON'T LOOK BACK.  SOMETHING MAY BE GAINING ON YOU.
 Job cpu time:       0 days  1 hours 33 minutes 14.3 seconds.
 Elapsed time:       0 days  0 hours  6 minutes 56.5 seconds.
 File lengths (MBytes):  RWF=     36 Int=      0 D2E=      0 Chk=      3 Scr=      1
 Normal termination of Gaussian 16 at Wed Jan  8 01:20:50 2020.
