 Entering Gaussian System, Link 0=g16
 Input=scan_300_250.gjf
 Output=scan_300_250.out
 Initial command:
 /home/cwagen/sw/g16/g16/l1.exe "/scratch/users/cwagen/cwagen_scan_300_250/Gau-16423.inp" -scrdir="/scratch/users/cwagen/cwagen_scan_300_250/"
 Entering Link 1 = /home/cwagen/sw/g16/g16/l1.exe PID=     16424.
  
 Copyright (c) 1988,1990,1992,1993,1995,1998,2003,2009,2016,
            Gaussian, Inc.  All Rights Reserved.
  
 This is part of the Gaussian(R) 16 program.  It is based on
 the Gaussian(R) 09 system (copyright 2009, Gaussian, Inc.),
 the Gaussian(R) 03 system (copyright 2003, Gaussian, Inc.),
 the Gaussian(R) 98 system (copyright 1998, Gaussian, Inc.),
 the Gaussian(R) 94 system (copyright 1995, Gaussian, Inc.),
 the Gaussian 92(TM) system (copyright 1992, Gaussian, Inc.),
 the Gaussian 90(TM) system (copyright 1990, Gaussian, Inc.),
 the Gaussian 88(TM) system (copyright 1988, Gaussian, Inc.),
 the Gaussian 86(TM) system (copyright 1986, Carnegie Mellon
 University), and the Gaussian 82(TM) system (copyright 1983,
 Carnegie Mellon University). Gaussian is a federally registered
 trademark of Gaussian, Inc.
  
 This software contains proprietary and confidential information,
 including trade secrets, belonging to Gaussian, Inc.
  
 This software is provided under written license and may be
 used, copied, transmitted, or stored only in accord with that
 written license.
  
 The following legend is applicable only to US Government
 contracts under FAR:
  
                    RESTRICTED RIGHTS LEGEND
  
 Use, reproduction and disclosure by the US Government is
 subject to restrictions as set forth in subparagraphs (a)
 and (c) of the Commercial Computer Software - Restricted
 Rights clause in FAR 52.227-19.
  
 Gaussian, Inc.
 340 Quinnipiac St., Bldg. 40, Wallingford CT 06492
  
  
 ---------------------------------------------------------------
 Warning -- This program may not be used in any manner that
 competes with the business of Gaussian, Inc. or will provide
 assistance to any competitor of Gaussian, Inc.  The licensee
 of this program is prohibited from giving any competitor of
 Gaussian, Inc. access to this program.  By using this program,
 the user acknowledges that Gaussian, Inc. is engaged in the
 business of creating and licensing software in the field of
 computational chemistry and represents and warrants to the
 licensee that it is not a competitor of Gaussian, Inc. and that
 it will not use this program in any manner prohibited above.
 ---------------------------------------------------------------
  

 Cite this work as:
 Gaussian 16, Revision A.03,
 M. J. Frisch, G. W. Trucks, H. B. Schlegel, G. E. Scuseria, 
 M. A. Robb, J. R. Cheeseman, G. Scalmani, V. Barone, 
 G. A. Petersson, H. Nakatsuji, X. Li, M. Caricato, A. V. Marenich, 
 J. Bloino, B. G. Janesko, R. Gomperts, B. Mennucci, H. P. Hratchian, 
 J. V. Ortiz, A. F. Izmaylov, J. L. Sonnenberg, D. Williams-Young, 
 F. Ding, F. Lipparini, F. Egidi, J. Goings, B. Peng, A. Petrone, 
 T. Henderson, D. Ranasinghe, V. G. Zakrzewski, J. Gao, N. Rega, 
 G. Zheng, W. Liang, M. Hada, M. Ehara, K. Toyota, R. Fukuda, 
 J. Hasegawa, M. Ishida, T. Nakajima, Y. Honda, O. Kitao, H. Nakai, 
 T. Vreven, K. Throssell, J. A. Montgomery, Jr., J. E. Peralta, 
 F. Ogliaro, M. J. Bearpark, J. J. Heyd, E. N. Brothers, K. N. Kudin, 
 V. N. Staroverov, T. A. Keith, R. Kobayashi, J. Normand, 
 K. Raghavachari, A. P. Rendell, J. C. Burant, S. S. Iyengar, 
 J. Tomasi, M. Cossi, J. M. Millam, M. Klene, C. Adamo, R. Cammi, 
 J. W. Ochterski, R. L. Martin, K. Morokuma, O. Farkas, 
 J. B. Foresman, and D. J. Fox, Gaussian, Inc., Wallingford CT, 2016.
 
 ******************************************
 Gaussian 16:  AS64L-G16RevA.03 25-Dec-2016
                 8-Jan-2020 
 ******************************************
 %nprocshared=16
 Will use up to   16 processors via shared memory.
 %mem=32GB
 ----------------------------------------------------------------------
 #p opt=modredundant b3lyp/6-31+g(d) scrf=(smd, solvent=tetrahydrofuran
 )
 ----------------------------------------------------------------------
 1/18=120,19=15,26=3,38=1/1,3;
 2/9=110,12=2,17=6,18=5,40=1/2;
 3/5=1,6=6,7=11,11=2,25=1,30=1,70=32201,71=1,72=20,74=-5/1,2,3;
 4//1;
 5/5=2,38=5,53=20/2;
 6/7=2,8=2,9=2,10=2,28=1/1;
 7//1,2,3,16;
 1/18=20,19=15,26=3/3(2);
 2/9=110/2;
 99//99;
 2/9=110/2;
 3/5=1,6=6,7=11,11=2,25=1,30=1,70=32205,71=1,72=20,74=-5/1,2,3;
 4/5=5,16=3,69=1/1;
 5/5=2,38=5,53=20/2;
 7//1,2,3,16;
 1/18=20,19=15,26=3/3(-5);
 2/9=110/2;
 6/7=2,8=2,9=2,10=2,19=2,28=1/1;
 99/9=1/99;
 Leave Link    1 at Wed Jan  8 02:20:40 2020, MaxMem=  4294967296 cpu:               1.7 elap:               0.1
 (Enter /home/cwagen/sw/g16/g16/l101.exe)
 -----
 title
 -----
 Symbolic Z-matrix:
 Charge = -1 Multiplicity = 1
 6                    -0.19426  -0.292    -0.21291 
 8                    -0.25532  -0.66526  -1.45426 
 6                    -0.33095  -1.45422   0.81632 
 1                    -0.18039  -1.13044   1.85373 
 1                    -1.34067  -1.87301   0.71427 
 1                     0.39707  -2.23395   0.57058 
 17                   -1.99048   1.98666   0.54955 
 6                     2.12354   0.51963   0.2551 
 7                     3.25811   0.79993   0.28541 
 
 Add virtual bond connecting atoms C8         and C1         Dist= 4.72D+00.
 Add virtual bond connecting atoms Cl7        and C1         Dist= 5.67D+00.
 The following ModRedundant input section has been read:
 B       1       7 F                                                           
 B       1       8 F                                                           
 
 ITRead=  0  0  0  0  0  0  0  0  0
 MicOpt= -1 -1 -1 -1 -1 -1 -1 -1 -1
 NAtoms=      9 NQM=        9 NQMF=       0 NMMI=      0 NMMIF=      0
                NMic=       0 NMicF=      0.
                    Isotopes and Nuclear Properties:
 (Nuclear quadrupole moments (NQMom) in fm**2, nuclear magnetic moments (NMagM)
  in nuclear magnetons)

  Atom         1           2           3           4           5           6           7           8           9
 IAtWgt=          12          16          12           1           1           1          35          12          14
 AtmWgt=  12.0000000  15.9949146  12.0000000   1.0078250   1.0078250   1.0078250  34.9688527  12.0000000  14.0030740
 NucSpn=           0           0           0           1           1           1           3           0           2
 AtZEff=   0.0000000   0.0000000   0.0000000   0.0000000   0.0000000   0.0000000   0.0000000   0.0000000   0.0000000
 NQMom=    0.0000000   0.0000000   0.0000000   0.0000000   0.0000000   0.0000000  -8.1650000   0.0000000   2.0440000
 NMagM=    0.0000000   0.0000000   0.0000000   2.7928460   2.7928460   2.7928460   0.8218740   0.0000000   0.4037610
 AtZNuc=   6.0000000   8.0000000   6.0000000   1.0000000   1.0000000   1.0000000  17.0000000   6.0000000   7.0000000
 Leave Link  101 at Wed Jan  8 02:20:40 2020, MaxMem=  4294967296 cpu:               7.9 elap:               0.6
 (Enter /home/cwagen/sw/g16/g16/l103.exe)

 GradGradGradGradGradGradGradGradGradGradGradGradGradGradGradGradGradGrad
 Berny optimization.
 Initialization pass.
                           ----------------------------
                           !    Initial Parameters    !
                           ! (Angstroms and Degrees)  !
 --------------------------                            --------------------------
 ! Name  Definition              Value          Derivative Info.                !
 --------------------------------------------------------------------------------
 ! R1    R(1,2)                  1.2977         estimate D2E/DX2                !
 ! R2    R(1,3)                  1.5584         estimate D2E/DX2                !
 ! R3    R(1,7)                  3.0            Frozen                          !
 ! R4    R(1,8)                  2.5            Frozen                          !
 ! R5    R(3,4)                  1.0971         estimate D2E/DX2                !
 ! R6    R(3,5)                  1.0979         estimate D2E/DX2                !
 ! R7    R(3,6)                  1.0947         estimate D2E/DX2                !
 ! R8    R(8,9)                  1.1691         estimate D2E/DX2                !
 ! A1    A(2,1,3)              114.4006         estimate D2E/DX2                !
 ! A2    A(2,1,7)              115.6846         estimate D2E/DX2                !
 ! A3    A(2,1,8)              108.426          estimate D2E/DX2                !
 ! A4    A(3,1,7)              110.248          estimate D2E/DX2                !
 ! A5    A(3,1,8)              101.5248         estimate D2E/DX2                !
 ! A6    A(7,1,8)              105.1256         estimate D2E/DX2                !
 ! A7    A(1,3,4)              113.1005         estimate D2E/DX2                !
 ! A8    A(1,3,5)              107.683          estimate D2E/DX2                !
 ! A9    A(1,3,6)              108.9421         estimate D2E/DX2                !
 ! A10   A(4,3,5)              109.0662         estimate D2E/DX2                !
 ! A11   A(4,3,6)              109.3417         estimate D2E/DX2                !
 ! A12   A(5,3,6)              108.6067         estimate D2E/DX2                !
 ! A13   L(1,8,9,6,-1)         177.2286         estimate D2E/DX2                !
 ! A14   L(1,8,9,6,-2)         164.7826         estimate D2E/DX2                !
 ! D1    D(2,1,3,4)            174.4714         estimate D2E/DX2                !
 ! D2    D(2,1,3,5)            -64.9488         estimate D2E/DX2                !
 ! D3    D(2,1,3,6)             52.6633         estimate D2E/DX2                !
 ! D4    D(7,1,3,4)            -53.1046         estimate D2E/DX2                !
 ! D5    D(7,1,3,5)             67.4752         estimate D2E/DX2                !
 ! D6    D(7,1,3,6)           -174.9127         estimate D2E/DX2                !
 ! D7    D(8,1,3,4)             57.938          estimate D2E/DX2                !
 ! D8    D(8,1,3,5)            178.5177         estimate D2E/DX2                !
 ! D9    D(8,1,3,6)            -63.8702         estimate D2E/DX2                !
 --------------------------------------------------------------------------------
 Trust Radius=3.00D-01 FncErr=1.00D-07 GrdErr=1.00D-06 EigMax=2.50D+02 EigMin=1.00D-04
 Number of steps in this run=     41 maximum allowed number of steps=    100.
 GradGradGradGradGradGradGradGradGradGradGradGradGradGradGradGradGradGrad

 Leave Link  103 at Wed Jan  8 02:20:41 2020, MaxMem=  4294967296 cpu:               1.0 elap:               0.1
 (Enter /home/cwagen/sw/g16/g16/l202.exe)
                          Input orientation:                          
 ---------------------------------------------------------------------
 Center     Atomic      Atomic             Coordinates (Angstroms)
 Number     Number       Type             X           Y           Z
 ---------------------------------------------------------------------
      1          6           0       -0.194263   -0.291999   -0.212908
      2          8           0       -0.255321   -0.665256   -1.454255
      3          6           0       -0.330945   -1.454221    0.816316
      4          1           0       -0.180394   -1.130438    1.853734
      5          1           0       -1.340665   -1.873010    0.714272
      6          1           0        0.397068   -2.233949    0.570583
      7         17           0       -1.990480    1.986656    0.549545
      8          6           0        2.123542    0.519634    0.255102
      9          7           0        3.258113    0.799932    0.285405
 ---------------------------------------------------------------------
                    Distance matrix (angstroms):
                    1          2          3          4          5
     1  C    0.000000
     2  O    1.297687   0.000000
     3  C    1.558443   2.404928   0.000000
     4  H    2.230287   3.341377   1.097150   0.000000
     5  H    2.161827   2.709087   1.097876   1.787740   0.000000
     6  H    2.175937   2.643176   1.094698   1.788205   1.780629
     7  Cl   3.000000   3.749484   3.829472   3.833222   3.917450
     8  C    2.500000   3.159882   3.199308   3.253687   4.235128
     9  N    3.655069   4.185380   4.271347   4.243738   5.336413
                    6          7          8          9
     6  H    0.000000
     7  Cl   4.849158   0.000000
     8  C    3.265342   4.377674   0.000000
     9  N    4.179873   5.387561   1.169075   0.000000
 Stoichiometry    C3H3ClNO(1-)
 Framework group  C1[X(C3H3ClNO)]
 Deg. of freedom    21
 Full point group                 C1      NOp   1
 Largest Abelian subgroup         C1      NOp   1
 Largest concise Abelian subgroup C1      NOp   1
                         Standard orientation:                         
 ---------------------------------------------------------------------
 Center     Atomic      Atomic             Coordinates (Angstroms)
 Number     Number       Type             X           Y           Z
 ---------------------------------------------------------------------
      1          6           0        0.171703    0.746521    0.206354
      2          8           0        0.341492    1.356404    1.339141
      3          6           0        0.370765    1.650265   -1.047586
      4          1           0        0.317644    1.094118   -1.991840
      5          1           0       -0.417563    2.414300   -1.036536
      6          1           0        1.342217    2.149652   -0.975094
      7         17           0       -2.361362   -0.840399   -0.049120
      8          6           0        2.015529   -0.917405   -0.079396
      9          7           0        2.974420   -1.585543   -0.050122
 ---------------------------------------------------------------------
 Rotational constants (GHZ):           2.5450163           1.1991756           0.9642969
 Leave Link  202 at Wed Jan  8 02:20:41 2020, MaxMem=  4294967296 cpu:               2.3 elap:               0.2
 (Enter /home/cwagen/sw/g16/g16/l301.exe)
 Standard basis: 6-31+G(d) (6D, 7F)
 Ernie: Thresh=  0.10000D-02 Tol=  0.10000D-05 Strict=F.
 There are   124 symmetry adapted cartesian basis functions of A   symmetry.
 There are   124 symmetry adapted basis functions of A   symmetry.
   124 basis functions,   228 primitive gaussians,   124 cartesian basis functions
    27 alpha electrons       27 beta electrons
       nuclear repulsion energy       206.6552922529 Hartrees.
 IExCor=  402 DFT=T Ex+Corr=B3LYP ExCW=0 ScaHFX=  0.200000
 ScaDFX=  0.800000  0.720000  1.000000  0.810000 ScalE2=  1.000000  1.000000
 IRadAn=      5 IRanWt=     -1 IRanGd=            0 ICorTp=0 IEmpDi=  4
 NAtoms=    9 NActive=    9 NUniq=    9 SFac= 1.00D+00 NAtFMM=   60 NAOKFM=F Big=F
 Integral buffers will be    131072 words long.
 Raffenetti 2 integral format.
 Two-electron integral symmetry is turned on.
 ------------------------------------------------------------------------------
 Polarizable Continuum Model (PCM)
 =================================
 Model                : PCM.
 Atomic radii         : SMD-Coulomb.
 Polarization charges : Total charges.
 Charge compensation  : None.
 Solution method      : On-the-fly selection.
 Cavity type          : VdW (van der Waals Surface) (Alpha=1.000).
 Cavity algorithm     : GePol (No added spheres)
                        Default sphere list used, NSphG=    9.
                        Lebedev-Laikov grids with approx.  5.0 points / Ang**2.
                        Smoothing algorithm: York/Karplus (Gamma=1.0000).
                        Polarization charges: spherical gaussians, with
                                              point-specific exponents (IZeta= 3).
                        Self-potential: point-specific (ISelfS= 7).
                        Self-field    : sphere-specific E.n sum rule (ISelfD= 2).
 1st derivatives      : Analytical E(r).r(x)/FMM algorithm (CHGder, D1EAlg=3).
                        Cavity 1st derivative terms included.
 Solvent              : TetraHydroFuran, Eps=   7.425700 Eps(inf)=   1.974025
 ------------------------------------------------------------------------------
 Spheres list:
 ISph  on   Nord     Re0    Alpha      Xe            Ye            Ze
    1   C      1    1.8500  1.000      0.171703      0.746521      0.206354
    2   O      2    2.2940  1.000      0.341492      1.356404      1.339141
    3   C      3    1.8500  1.000      0.370765      1.650265     -1.047586
    4   H      4    1.2000  1.000      0.317644      1.094118     -1.991840
    5   H      5    1.2000  1.000     -0.417563      2.414300     -1.036536
    6   H      6    1.2000  1.000      1.342217      2.149652     -0.975094
    7  Cl      7    2.3800  1.000     -2.361362     -0.840399     -0.049120
    8   C      8    1.8500  1.000      2.015529     -0.917405     -0.079396
    9   N      9    1.8900  1.000      2.974420     -1.585543     -0.050122
 ------------------------------------------------------------------------------
 GePol: Number of generator spheres                  =       9
 GePol: Total number of spheres                      =       9
 GePol: Number of exposed spheres                    =       9 (100.00%)
 GePol: Number of points                             =    1365
 GePol: Average weight of points                     =       0.14
 GePol: Minimum weight of points                     =   0.15D-07
 GePol: Maximum weight of points                     =    0.18138
 GePol: Number of points with low weight             =      30
 GePol: Fraction of low-weight points (<1% of avg)   =       2.20%
 GePol: Cavity surface area                          =    186.646 Ang**2
 GePol: Cavity volume                                =    162.653 Ang**3
 ------------------------------------------------------------------------------
 Atomic radii for non-electrostatic terms: SMD-CDS.
 ------------------------------------------------------------------------------
 PCM non-electrostatic energy =         0.0010164260 Hartrees.
 Nuclear repulsion after PCM non-electrostatic terms =      206.6563086790 Hartrees.
 Leave Link  301 at Wed Jan  8 02:20:41 2020, MaxMem=  4294967296 cpu:               2.5 elap:               0.2
 (Enter /home/cwagen/sw/g16/g16/l302.exe)
 NPDir=0 NMtPBC=     1 NCelOv=     1 NCel=       1 NClECP=     1 NCelD=      1
         NCelK=      1 NCelE2=     1 NClLst=     1 CellRange=     0.0.
 One-electron integrals computed using PRISM.
 One-electron integral symmetry used in STVInt
 NBasis=   124 RedAO= T EigKep=  2.15D-04  NBF=   124
 NBsUse=   124 1.00D-06 EigRej= -1.00D+00 NBFU=   124
 Precomputing XC quadrature grid using
 IXCGrd= 4 IRadAn=           5 IRanWt=          -1 IRanGd=           0 AccXCQ= 0.00D+00.
 Generated NRdTot=       0 NPtTot=           0 NUsed=           0 NTot=          32
 NSgBfM=   123   123   123   123   123 MxSgAt=     9 MxSgA2=     9.
 Leave Link  302 at Wed Jan  8 02:20:43 2020, MaxMem=  4294967296 cpu:              22.3 elap:               1.5
 (Enter /home/cwagen/sw/g16/g16/l303.exe)
 DipDrv:  MaxL=1.
 Leave Link  303 at Wed Jan  8 02:20:43 2020, MaxMem=  4294967296 cpu:               3.0 elap:               0.3
 (Enter /home/cwagen/sw/g16/g16/l401.exe)
 ExpMin= 4.38D-02 ExpMax= 2.52D+04 ExpMxC= 3.78D+03 IAcc=3 IRadAn=         5 AccDes= 0.00D+00
 Harris functional with IExCor=  402 and IRadAn=       5 diagonalized for initial guess.
 HarFok:  IExCor=  402 AccDes= 0.00D+00 IRadAn=         5 IDoV= 1 UseB2=F ITyADJ=14
 ICtDFT=  3500011 ScaDFX=  1.000000  1.000000  1.000000  1.000000
 FoFCou: FMM=F IPFlag=           0 FMFlag=      100000 FMFlg1=           0
         NFxFlg=           0 DoJE=T BraDBF=F KetDBF=T FulRan=T
         wScrn=  0.000000 ICntrl=       500 IOpCl=  0 I1Cent=   200000004 NGrid=           0
         NMat0=    1 NMatS0=      1 NMatT0=    0 NMatD0=    1 NMtDS0=    0 NMtDT0=    0
 Petite list used in FoFCou.
 Harris En= -706.319858859484    
 JPrj=0 DoOrth=F DoCkMO=F.
 Leave Link  401 at Wed Jan  8 02:20:44 2020, MaxMem=  4294967296 cpu:              10.9 elap:               0.8
 (Enter /home/cwagen/sw/g16/g16/l502.exe)
 Keep R1 ints in memory in canonical form, NReq=45236517.
 FoFCou: FMM=F IPFlag=           0 FMFlag=           0 FMFlg1=           0
         NFxFlg=           0 DoJE=F BraDBF=F KetDBF=F FulRan=T
         wScrn=  0.000000 ICntrl=       600 IOpCl=  0 I1Cent=           0 NGrid=           0
         NMat0=    1 NMatS0=   7750 NMatT0=    0 NMatD0=    1 NMtDS0=    0 NMtDT0=    0
 Symmetry not used in FoFCou.
 Two-electron integral symmetry not used.
 Closed shell SCF:
 Using DIIS extrapolation, IDIIS=  1040.
 NGot=  4294967296 LenX=  4264898079 LenY=  4264882262
 Requested convergence on RMS density matrix=1.00D-08 within 128 cycles.
 Requested convergence on MAX density matrix=1.00D-06.
 Requested convergence on             energy=1.00D-06.
 No special actions if energy rises.

 Cycle   1  Pass 1  IDiag  1:
 Inv3:  Mode=1 IEnd=     5589675.
 Iteration    1 A*A^-1 deviation from unit magnitude is 6.11D-15 for   1360.
 Iteration    1 A*A^-1 deviation from orthogonality  is 1.62D-15 for   1362   1202.
 Iteration    1 A^-1*A deviation from unit magnitude is 5.88D-15 for   1360.
 Iteration    1 A^-1*A deviation from orthogonality  is 1.38D-15 for   1352   1166.
 E= -706.145809720309    
 DIIS: error= 2.66D-02 at cycle   1 NSaved=   1.
 NSaved= 1 IEnMin= 1 EnMin= -706.145809720309     IErMin= 1 ErrMin= 2.66D-02
 ErrMax= 2.66D-02  0.00D+00 EMaxC= 1.00D-01 BMatC= 1.88D-01 BMatP= 1.88D-01
 IDIUse=3 WtCom= 7.34D-01 WtEn= 2.66D-01
 Coeff-Com:  0.100D+01
 Coeff-En:   0.100D+01
 Coeff:      0.100D+01
 Gap=     0.014 Goal=   None    Shift=    0.000
 GapD=    0.014 DampG=0.250 DampE=0.500 DampFc=0.2500 IDamp=-1.
 Damping current iteration by 2.50D-01
 RMSDP=9.78D-03 MaxDP=2.49D-01              OVMax= 4.85D-01

 Cycle   2  Pass 1  IDiag  1:
 E= -706.197387950332     Delta-E=       -0.051578230022 Rises=F Damp=T
 DIIS: error= 1.89D-02 at cycle   2 NSaved=   2.
 NSaved= 2 IEnMin= 2 EnMin= -706.197387950332     IErMin= 2 ErrMin= 1.89D-02
 ErrMax= 1.89D-02  0.00D+00 EMaxC= 1.00D-01 BMatC= 2.66D-02 BMatP= 1.88D-01
 IDIUse=3 WtCom= 8.11D-01 WtEn= 1.89D-01
 Coeff-Com: -0.250D+00 0.125D+01
 Coeff-En:   0.178D+00 0.822D+00
 Coeff:     -0.169D+00 0.117D+01
 Gap=     0.128 Goal=   None    Shift=    0.000
 RMSDP=2.65D-03 MaxDP=5.68D-02 DE=-5.16D-02 OVMax= 4.00D-01

 Cycle   3  Pass 1  IDiag  1:
 E= -706.301161358057     Delta-E=       -0.103773407725 Rises=F Damp=F
 DIIS: error= 9.33D-03 at cycle   3 NSaved=   3.
 NSaved= 3 IEnMin= 3 EnMin= -706.301161358057     IErMin= 3 ErrMin= 9.33D-03
 ErrMax= 9.33D-03  0.00D+00 EMaxC= 1.00D-01 BMatC= 2.84D-02 BMatP= 2.66D-02
 IDIUse=3 WtCom= 9.07D-01 WtEn= 9.33D-02
 Coeff-Com: -0.220D+00 0.752D+00 0.468D+00
 Coeff-En:   0.000D+00 0.000D+00 0.100D+01
 Coeff:     -0.200D+00 0.682D+00 0.518D+00
 Gap=     0.093 Goal=   None    Shift=    0.000
 RMSDP=1.61D-03 MaxDP=3.72D-02 DE=-1.04D-01 OVMax= 4.38D-02

 Cycle   4  Pass 1  IDiag  1:
 E= -706.329429854852     Delta-E=       -0.028268496795 Rises=F Damp=F
 DIIS: error= 2.85D-03 at cycle   4 NSaved=   4.
 NSaved= 4 IEnMin= 4 EnMin= -706.329429854852     IErMin= 4 ErrMin= 2.85D-03
 ErrMax= 2.85D-03  0.00D+00 EMaxC= 1.00D-01 BMatC= 2.22D-03 BMatP= 2.66D-02
 IDIUse=3 WtCom= 9.71D-01 WtEn= 2.85D-02
 Coeff-Com: -0.732D-01 0.179D+00 0.234D+00 0.660D+00
 Coeff-En:   0.000D+00 0.000D+00 0.000D+00 0.100D+01
 Coeff:     -0.711D-01 0.174D+00 0.228D+00 0.670D+00
 Gap=     0.093 Goal=   None    Shift=    0.000
 RMSDP=5.82D-04 MaxDP=1.22D-02 DE=-2.83D-02 OVMax= 3.45D-02

 Cycle   5  Pass 1  IDiag  1:
 E= -706.330181869497     Delta-E=       -0.000752014645 Rises=F Damp=F
 DIIS: error= 2.69D-03 at cycle   5 NSaved=   5.
 NSaved= 5 IEnMin= 5 EnMin= -706.330181869497     IErMin= 5 ErrMin= 2.69D-03
 ErrMax= 2.69D-03  0.00D+00 EMaxC= 1.00D-01 BMatC= 1.39D-03 BMatP= 2.22D-03
 IDIUse=3 WtCom= 9.73D-01 WtEn= 2.69D-02
 Coeff-Com: -0.424D-01 0.736D-01 0.108D+00 0.462D+00 0.399D+00
 Coeff-En:   0.000D+00 0.000D+00 0.000D+00 0.409D+00 0.591D+00
 Coeff:     -0.413D-01 0.716D-01 0.105D+00 0.460D+00 0.404D+00
 Gap=     0.098 Goal=   None    Shift=    0.000
 RMSDP=4.09D-04 MaxDP=8.39D-03 DE=-7.52D-04 OVMax= 2.85D-02

 Cycle   6  Pass 1  IDiag  1:
 E= -706.331494502396     Delta-E=       -0.001312632900 Rises=F Damp=F
 DIIS: error= 6.32D-04 at cycle   6 NSaved=   6.
 NSaved= 6 IEnMin= 6 EnMin= -706.331494502396     IErMin= 6 ErrMin= 6.32D-04
 ErrMax= 6.32D-04  0.00D+00 EMaxC= 1.00D-01 BMatC= 1.24D-04 BMatP= 1.39D-03
 IDIUse=3 WtCom= 9.94D-01 WtEn= 6.32D-03
 Coeff-Com: -0.205D-01 0.312D-01 0.432D-01 0.225D+00 0.283D+00 0.437D+00
 Coeff-En:   0.000D+00 0.000D+00 0.000D+00 0.000D+00 0.100D+00 0.900D+00
 Coeff:     -0.204D-01 0.310D-01 0.430D-01 0.224D+00 0.282D+00 0.440D+00
 Gap=     0.096 Goal=   None    Shift=    0.000
 RMSDP=1.56D-04 MaxDP=5.40D-03 DE=-1.31D-03 OVMax= 1.03D-02

 Cycle   7  Pass 1  IDiag  1:
 E= -706.331632216917     Delta-E=       -0.000137714521 Rises=F Damp=F
 DIIS: error= 2.98D-04 at cycle   7 NSaved=   7.
 NSaved= 7 IEnMin= 7 EnMin= -706.331632216917     IErMin= 7 ErrMin= 2.98D-04
 ErrMax= 2.98D-04  0.00D+00 EMaxC= 1.00D-01 BMatC= 2.23D-05 BMatP= 1.24D-04
 IDIUse=3 WtCom= 9.97D-01 WtEn= 2.98D-03
 Coeff-Com: -0.901D-02 0.120D-01 0.106D-01 0.745D-01 0.143D+00 0.313D+00
 Coeff-Com:  0.457D+00
 Coeff-En:   0.000D+00 0.000D+00 0.000D+00 0.000D+00 0.000D+00 0.905D-01
 Coeff-En:   0.910D+00
 Coeff:     -0.899D-02 0.120D-01 0.105D-01 0.743D-01 0.142D+00 0.312D+00
 Coeff:      0.458D+00
 Gap=     0.097 Goal=   None    Shift=    0.000
 RMSDP=5.83D-05 MaxDP=1.82D-03 DE=-1.38D-04 OVMax= 3.94D-03

 Cycle   8  Pass 1  IDiag  1:
 E= -706.331652690257     Delta-E=       -0.000020473339 Rises=F Damp=F
 DIIS: error= 1.38D-04 at cycle   8 NSaved=   8.
 NSaved= 8 IEnMin= 8 EnMin= -706.331652690257     IErMin= 8 ErrMin= 1.38D-04
 ErrMax= 1.38D-04  0.00D+00 EMaxC= 1.00D-01 BMatC= 4.67D-06 BMatP= 2.23D-05
 IDIUse=3 WtCom= 9.99D-01 WtEn= 1.38D-03
 Coeff-Com: -0.169D-02 0.499D-03-0.428D-02-0.174D-02 0.399D-01 0.112D+00
 Coeff-Com:  0.337D+00 0.519D+00
 Coeff-En:   0.000D+00 0.000D+00 0.000D+00 0.000D+00 0.000D+00 0.000D+00
 Coeff-En:   0.150D+00 0.850D+00
 Coeff:     -0.169D-02 0.498D-03-0.427D-02-0.174D-02 0.399D-01 0.111D+00
 Coeff:      0.337D+00 0.519D+00
 Gap=     0.097 Goal=   None    Shift=    0.000
 RMSDP=1.70D-05 MaxDP=4.68D-04 DE=-2.05D-05 OVMax= 5.61D-04

 Cycle   9  Pass 1  IDiag  1:
 E= -706.331656648316     Delta-E=       -0.000003958059 Rises=F Damp=F
 DIIS: error= 3.75D-05 at cycle   9 NSaved=   9.
 NSaved= 9 IEnMin= 9 EnMin= -706.331656648316     IErMin= 9 ErrMin= 3.75D-05
 ErrMax= 3.75D-05  0.00D+00 EMaxC= 1.00D-01 BMatC= 4.62D-07 BMatP= 4.67D-06
 IDIUse=1 WtCom= 1.00D+00 WtEn= 0.00D+00
 Coeff-Com: -0.751D-03 0.539D-03-0.330D-02-0.863D-02 0.110D-01 0.297D-01
 Coeff-Com:  0.164D+00 0.320D+00 0.488D+00
 Coeff:     -0.751D-03 0.539D-03-0.330D-02-0.863D-02 0.110D-01 0.297D-01
 Coeff:      0.164D+00 0.320D+00 0.488D+00
 Gap=     0.096 Goal=   None    Shift=    0.000
 RMSDP=9.66D-06 MaxDP=2.96D-04 DE=-3.96D-06 OVMax= 5.75D-04

 Cycle  10  Pass 1  IDiag  1:
 E= -706.331657183485     Delta-E=       -0.000000535169 Rises=F Damp=F
 DIIS: error= 1.28D-05 at cycle  10 NSaved=  10.
 NSaved=10 IEnMin=10 EnMin= -706.331657183485     IErMin=10 ErrMin= 1.28D-05
 ErrMax= 1.28D-05  0.00D+00 EMaxC= 1.00D-01 BMatC= 4.34D-08 BMatP= 4.62D-07
 IDIUse=1 WtCom= 1.00D+00 WtEn= 0.00D+00
 Coeff-Com: -0.735D-04 0.377D-04-0.977D-03-0.333D-02-0.563D-03-0.997D-02
 Coeff-Com:  0.141D-01 0.515D-01 0.259D+00 0.690D+00
 Coeff:     -0.735D-04 0.377D-04-0.977D-03-0.333D-02-0.563D-03-0.997D-02
 Coeff:      0.141D-01 0.515D-01 0.259D+00 0.690D+00
 Gap=     0.097 Goal=   None    Shift=    0.000
 RMSDP=2.31D-06 MaxDP=3.84D-05 DE=-5.35D-07 OVMax= 1.08D-04

 Cycle  11  Pass 1  IDiag  1:
 E= -706.331657242561     Delta-E=       -0.000000059076 Rises=F Damp=F
 DIIS: error= 2.64D-06 at cycle  11 NSaved=  11.
 NSaved=11 IEnMin=11 EnMin= -706.331657242561     IErMin=11 ErrMin= 2.64D-06
 ErrMax= 2.64D-06  0.00D+00 EMaxC= 1.00D-01 BMatC= 1.14D-09 BMatP= 4.34D-08
 IDIUse=1 WtCom= 1.00D+00 WtEn= 0.00D+00
 Coeff-Com:  0.395D-04-0.259D-04 0.251D-04-0.241D-04-0.820D-03-0.476D-02
 Coeff-Com: -0.986D-02-0.182D-01 0.224D-01 0.491D-01 0.962D+00
 Coeff:      0.395D-04-0.259D-04 0.251D-04-0.241D-04-0.820D-03-0.476D-02
 Coeff:     -0.986D-02-0.182D-01 0.224D-01 0.491D-01 0.962D+00
 Gap=     0.097 Goal=   None    Shift=    0.000
 RMSDP=5.65D-07 MaxDP=1.32D-05 DE=-5.91D-08 OVMax= 2.93D-05

 Cycle  12  Pass 1  IDiag  1:
 E= -706.331657244396     Delta-E=       -0.000000001835 Rises=F Damp=F
 DIIS: error= 2.34D-07 at cycle  12 NSaved=  12.
 NSaved=12 IEnMin=12 EnMin= -706.331657244396     IErMin=12 ErrMin= 2.34D-07
 ErrMax= 2.34D-07  0.00D+00 EMaxC= 1.00D-01 BMatC= 1.56D-11 BMatP= 1.14D-09
 IDIUse=1 WtCom= 1.00D+00 WtEn= 0.00D+00
 Coeff-Com:  0.741D-05-0.492D-05 0.375D-04 0.113D-03-0.161D-04-0.163D-03
 Coeff-Com: -0.134D-02-0.324D-02-0.472D-02-0.215D-01 0.101D+00 0.930D+00
 Coeff:      0.741D-05-0.492D-05 0.375D-04 0.113D-03-0.161D-04-0.163D-03
 Coeff:     -0.134D-02-0.324D-02-0.472D-02-0.215D-01 0.101D+00 0.930D+00
 Gap=     0.097 Goal=   None    Shift=    0.000
 RMSDP=8.82D-08 MaxDP=1.79D-06 DE=-1.83D-09 OVMax= 5.00D-06

 Cycle  13  Pass 1  IDiag  1:
 E= -706.331657244428     Delta-E=       -0.000000000032 Rises=F Damp=F
 DIIS: error= 5.60D-08 at cycle  13 NSaved=  13.
 NSaved=13 IEnMin=13 EnMin= -706.331657244428     IErMin=13 ErrMin= 5.60D-08
 ErrMax= 5.60D-08  0.00D+00 EMaxC= 1.00D-01 BMatC= 9.92D-13 BMatP= 1.56D-11
 IDIUse=1 WtCom= 1.00D+00 WtEn= 0.00D+00
 Coeff-Com:  0.278D-06-0.927D-06 0.550D-05 0.199D-04 0.434D-04 0.207D-03
 Coeff-Com:  0.370D-03 0.528D-03-0.201D-02-0.536D-02-0.375D-01 0.120D+00
 Coeff-Com:  0.924D+00
 Coeff:      0.278D-06-0.927D-06 0.550D-05 0.199D-04 0.434D-04 0.207D-03
 Coeff:      0.370D-03 0.528D-03-0.201D-02-0.536D-02-0.375D-01 0.120D+00
 Coeff:      0.924D+00
 Gap=     0.097 Goal=   None    Shift=    0.000
 RMSDP=1.98D-08 MaxDP=4.11D-07 DE=-3.19D-11 OVMax= 9.96D-07

 Cycle  14  Pass 1  IDiag  1:
 E= -706.331657244430     Delta-E=       -0.000000000003 Rises=F Damp=F
 DIIS: error= 1.08D-08 at cycle  14 NSaved=  14.
 NSaved=14 IEnMin=14 EnMin= -706.331657244430     IErMin=14 ErrMin= 1.08D-08
 ErrMax= 1.08D-08  0.00D+00 EMaxC= 1.00D-01 BMatC= 1.97D-14 BMatP= 9.92D-13
 IDIUse=1 WtCom= 1.00D+00 WtEn= 0.00D+00
 Coeff-Com:  0.148D-06-0.237D-06-0.189D-06 0.191D-06-0.173D-06 0.638D-05
 Coeff-Com:  0.274D-04 0.462D-04-0.445D-04 0.453D-03-0.291D-02-0.135D-01
 Coeff-Com:  0.403D-01 0.976D+00
 Coeff:      0.148D-06-0.237D-06-0.189D-06 0.191D-06-0.173D-06 0.638D-05
 Coeff:      0.274D-04 0.462D-04-0.445D-04 0.453D-03-0.291D-02-0.135D-01
 Coeff:      0.403D-01 0.976D+00
 Gap=     0.097 Goal=   None    Shift=    0.000
 RMSDP=3.19D-09 MaxDP=5.34D-08 DE=-2.50D-12 OVMax= 1.70D-07

 Error on total polarization charges =  0.02518
 SCF Done:  E(RB3LYP) =  -706.331657244     A.U. after   14 cycles
            NFock= 14  Conv=0.32D-08     -V/T= 2.0065
 KE= 7.017897549155D+02 PE=-2.089906040331D+03 EE= 4.751283194919D+02
 SMD-CDS (non-electrostatic) energy       (kcal/mol) =       0.64
 (included in total energy above)
 Leave Link  502 at Wed Jan  8 02:21:04 2020, MaxMem=  4294967296 cpu:             301.2 elap:              20.5
 (Enter /home/cwagen/sw/g16/g16/l601.exe)
 Copying SCF densities to generalized density rwf, IOpCl= 0 IROHF=0.

 **********************************************************************

            Population analysis using the SCF density.

 **********************************************************************

 Orbital symmetries:
       Occupied  (A) (A) (A) (A) (A) (A) (A) (A) (A) (A) (A) (A)
                 (A) (A) (A) (A) (A) (A) (A) (A) (A) (A) (A) (A)
                 (A) (A) (A)
       Virtual   (A) (A) (A) (A) (A) (A) (A) (A) (A) (A) (A) (A)
                 (A) (A) (A) (A) (A) (A) (A) (A) (A) (A) (A) (A)
                 (A) (A) (A) (A) (A) (A) (A) (A) (A) (A) (A) (A)
                 (A) (A) (A) (A) (A) (A) (A) (A) (A) (A) (A) (A)
                 (A) (A) (A) (A) (A) (A) (A) (A) (A) (A) (A) (A)
                 (A) (A) (A) (A) (A) (A) (A) (A) (A) (A) (A) (A)
                 (A) (A) (A) (A) (A) (A) (A) (A) (A) (A) (A) (A)
                 (A) (A) (A) (A) (A) (A) (A) (A) (A) (A) (A) (A)
                 (A)
 The electronic state is 1-A.
 Alpha  occ. eigenvalues -- -101.46023 -19.22967 -14.29699 -10.37688 -10.22292
 Alpha  occ. eigenvalues --  -10.17771  -9.37242  -7.13310  -7.12886  -7.12883
 Alpha  occ. eigenvalues --   -1.06018  -0.85625  -0.75342  -0.70321  -0.56396
 Alpha  occ. eigenvalues --   -0.45694  -0.45514  -0.44946  -0.39060  -0.37834
 Alpha  occ. eigenvalues --   -0.36682  -0.30045  -0.30009  -0.27558  -0.24995
 Alpha  occ. eigenvalues --   -0.24314  -0.24296
 Alpha virt. eigenvalues --   -0.14645  -0.05787   0.02941   0.04359   0.04692
 Alpha virt. eigenvalues --    0.05181   0.06715   0.07741   0.08484   0.09022
 Alpha virt. eigenvalues --    0.10002   0.10278   0.10907   0.11675   0.12961
 Alpha virt. eigenvalues --    0.13988   0.14797   0.16080   0.16411   0.19337
 Alpha virt. eigenvalues --    0.21501   0.22487   0.24106   0.24199   0.25000
 Alpha virt. eigenvalues --    0.25828   0.26667   0.27943   0.29703   0.31815
 Alpha virt. eigenvalues --    0.33658   0.36010   0.38849   0.54580   0.62533
 Alpha virt. eigenvalues --    0.64507   0.64932   0.66207   0.67395   0.68222
 Alpha virt. eigenvalues --    0.71131   0.73776   0.74222   0.78337   0.78652
 Alpha virt. eigenvalues --    0.83424   0.84830   0.93682   0.95597   0.95845
 Alpha virt. eigenvalues --    0.96071   0.96545   0.96740   0.99157   1.01146
 Alpha virt. eigenvalues --    1.01716   1.04796   1.12621   1.13545   1.17205
 Alpha virt. eigenvalues --    1.23186   1.26874   1.27754   1.30609   1.40292
 Alpha virt. eigenvalues --    1.44997   1.47539   1.55748   1.57568   1.57948
 Alpha virt. eigenvalues --    1.60119   1.62453   1.71507   1.75019   1.78763
 Alpha virt. eigenvalues --    1.85409   1.94275   2.00570   2.00766   2.09677
 Alpha virt. eigenvalues --    2.17187   2.21897   2.25824   2.45570   2.46998
 Alpha virt. eigenvalues --    2.51236   2.64148   2.64414   2.69173   2.90866
 Alpha virt. eigenvalues --    3.07709   3.99332   4.12671   4.19087   4.26289
 Alpha virt. eigenvalues --    4.35154   4.41120
          Condensed to atoms (all electrons):
               1          2          3          4          5          6
     1  C    5.027349   0.517934   0.052260  -0.051855  -0.030938  -0.005110
     2  O    0.517934   7.882314  -0.120087   0.007026  -0.004056  -0.010155
     3  C    0.052260  -0.120087   5.744930   0.376527   0.357638   0.361471
     4  H   -0.051855   0.007026   0.376527   0.434134  -0.021191  -0.023529
     5  H   -0.030938  -0.004056   0.357638  -0.021191   0.431208  -0.021755
     6  H   -0.005110  -0.010155   0.361471  -0.023529  -0.021755   0.419593
     7  Cl   0.120852  -0.021018  -0.042108   0.001579  -0.001445   0.000699
     8  C    0.055975  -0.059490  -0.107508   0.004731   0.009309  -0.013243
     9  N    0.000429  -0.000320  -0.003864  -0.000323  -0.000049   0.000306
               7          8          9
     1  C    0.120852   0.055975   0.000429
     2  O   -0.021018  -0.059490  -0.000320
     3  C   -0.042108  -0.107508  -0.003864
     4  H    0.001579   0.004731  -0.000323
     5  H   -0.001445   0.009309  -0.000049
     6  H    0.000699  -0.013243   0.000306
     7  Cl  17.652016  -0.038980  -0.000298
     8  C   -0.038980   5.589929   0.647793
     9  N   -0.000298   0.647793   6.944106
 Mulliken charges:
               1
     1  C    0.313103
     2  O   -0.192149
     3  C   -0.619260
     4  H    0.272901
     5  H    0.281278
     6  H    0.291721
     7  Cl  -0.671298
     8  C   -0.088516
     9  N   -0.587780
 Sum of Mulliken charges =  -1.00000
 Mulliken charges with hydrogens summed into heavy atoms:
               1
     1  C    0.313103
     2  O   -0.192149
     3  C    0.226640
     7  Cl  -0.671298
     8  C   -0.088516
     9  N   -0.587780
 Electronic spatial extent (au):  <R**2>=           1185.8586
 Charge=             -1.0000 electrons
 Dipole moment (field-independent basis, Debye):
    X=             -0.1099    Y=              9.1760    Z=             -2.5893  Tot=              9.5350
 Quadrupole moment (field-independent basis, Debye-Ang):
   XX=            -88.4949   YY=            -51.8457   ZZ=            -46.9206
   XY=              7.7332   XZ=             -0.9845   YZ=             -5.4131
 Traceless Quadrupole moment (field-independent basis, Debye-Ang):
   XX=            -26.0745   YY=             10.5747   ZZ=             15.4997
   XY=              7.7332   XZ=             -0.9845   YZ=             -5.4131
 Octapole moment (field-independent basis, Debye-Ang**2):
  XXX=            -37.9459  YYY=             41.3460  ZZZ=             -3.9897  XYY=            -16.9415
  XXY=             62.9649  XXZ=              2.4422  XZZ=             -0.9831  YZZ=              6.0664
  YYZ=             -6.8972  XYZ=             -2.3912
 Hexadecapole moment (field-independent basis, Debye-Ang**3):
 XXXX=          -1437.5578 YYYY=           -465.8583 ZZZZ=           -176.3174 XXXY=            119.6964
 XXXZ=              3.5695 YYYX=             52.2151 YYYZ=            -14.1251 ZZZX=             -0.7356
 ZZZY=             -6.0535 XXYY=           -335.0109 XXZZ=           -216.4088 YYZZ=           -106.8873
 XXYZ=             -4.4362 YYXZ=             -1.0375 ZZXY=              5.3450
 N-N= 2.066563086790D+02 E-N=-2.089906040055D+03  KE= 7.017897549155D+02
 No NMR shielding tensors so no spin-rotation constants.
 Leave Link  601 at Wed Jan  8 02:21:06 2020, MaxMem=  4294967296 cpu:              13.2 elap:               1.6
 (Enter /home/cwagen/sw/g16/g16/l701.exe)
 ... and contract with generalized density number  0.
 Compute integral first derivatives.
 D1PCM: PCM CHGder 1st derivatives, ID1Alg=3 FixD1E=F DoIter=F DoCFld=F I1PDM=0.
 GePol: Maximum number of non-zero 1st derivatives   =     412
 Leave Link  701 at Wed Jan  8 02:21:10 2020, MaxMem=  4294967296 cpu:              60.3 elap:               4.4
 (Enter /home/cwagen/sw/g16/g16/l702.exe)
 L702 exits ... SP integral derivatives will be done elsewhere.
 Leave Link  702 at Wed Jan  8 02:21:10 2020, MaxMem=  4294967296 cpu:               1.2 elap:               0.1
 (Enter /home/cwagen/sw/g16/g16/l703.exe)
 Integral derivatives from FoFJK, PRISM(SPDF).
 Compute integral first derivatives, UseDBF=F ICtDFT=           0.
 Calling FoFJK, ICntrl=      2127 FMM=F ISym2X=0 I1Cent= 0 IOpClX= 0 NMat=1 NMatS=1 NMatT=0.
 FoFJK:  IHMeth= 1 ICntrl=    2127 DoSepK=F KAlg= 0 I1Cent=           0 FoldK=F
 IRaf=         0 NMat=       1 IRICut=       1 DoRegI=T DoRafI=F ISym2E= 0 IDoP0=0 IntGTp=1.
 FoFCou: FMM=F IPFlag=           0 FMFlag=      100000 FMFlg1=         800
         NFxFlg=           0 DoJE=F BraDBF=F KetDBF=F FulRan=T
         wScrn=  0.000000 ICntrl=      2127 IOpCl=  0 I1Cent=           0 NGrid=           0
         NMat0=    1 NMatS0=      1 NMatT0=    0 NMatD0=    1 NMtDS0=    0 NMtDT0=    0
 Symmetry not used in FoFCou.
 Leave Link  703 at Wed Jan  8 02:21:13 2020, MaxMem=  4294967296 cpu:              34.1 elap:               2.3
 (Enter /home/cwagen/sw/g16/g16/l716.exe)
 Dipole        =-4.32404772D-02 3.61010777D+00-1.01872523D+00
 ***** Axes restored to original set *****
 -------------------------------------------------------------------
 Center     Atomic                   Forces (Hartrees/Bohr)
 Number     Number              X              Y              Z
 -------------------------------------------------------------------
      1        6           0.009832785   -0.095964942   -0.142690142
      2        8           0.004824781    0.077185732    0.144183340
      3        6          -0.005706440    0.024455492    0.019719904
      4        1          -0.000419243    0.002149210   -0.005326975
      5        1           0.000096600    0.004399457   -0.002408363
      6        1           0.003126058    0.006126505   -0.005584765
      7       17           0.011567465   -0.014307322   -0.004182158
      8        6          -0.033893799   -0.006457012   -0.004804027
      9        7           0.010571792    0.002412880    0.001093186
 -------------------------------------------------------------------
 Cartesian Forces:  Max     0.144183340 RMS     0.046857096
 Leave Link  716 at Wed Jan  8 02:21:13 2020, MaxMem=  4294967296 cpu:               1.3 elap:               0.1
 (Enter /home/cwagen/sw/g16/g16/l103.exe)

 GradGradGradGradGradGradGradGradGradGradGradGradGradGradGradGradGradGrad
 Berny optimization.
 FormGI is forming the generalized inverse of G from B-inverse, IUseBI=4.
 Internal  Forces:  Max     0.160349155 RMS     0.032289542
 Search for a local minimum.
 Step number   1 out of a maximum of   41
 All quantities printed in internal units (Hartrees-Bohrs-Radians)
 RMS Force = .32910D-01 SwitMx=.10000D-02 MixMth= 1
 Mixed Optimization -- RFO/linear search
 Second derivative matrix not updated -- first step.
 ITU=  0
     Eigenvalues ---    0.00230   0.04746   0.04746   0.05330   0.05908
     Eigenvalues ---    0.07453   0.10176   0.16000   0.16000   0.16000
     Eigenvalues ---    0.25000   0.25000   0.25000   0.26946   0.33918
     Eigenvalues ---    0.33999   0.34275   0.67840   1.220341000.00000
     Eigenvalues --- 1000.000001000.000001000.000001000.000001000.00000
     Eigenvalues --- 1000.000001000.000001000.000001000.000001000.00000
     Eigenvalues --- 1000.00000
 RFO step:  Lambda=-5.51025442D-02 EMin= 2.30000000D-03
 Linear search not attempted -- first point.
 Maximum step size (   0.300) exceeded in Quadratic search.
    -- Step size scaled by   0.894
 Iteration  1 RMS(Cart)=  0.06405191 RMS(Int)=  0.00531746
 Iteration  2 RMS(Cart)=  0.00695439 RMS(Int)=  0.00139705
 Iteration  3 RMS(Cart)=  0.00004932 RMS(Int)=  0.00139645
 Iteration  4 RMS(Cart)=  0.00000031 RMS(Int)=  0.00139645
 Iteration  1 RMS(Cart)=  0.00000000 RMS(Int)=  0.00000000
 ITry= 1 IFail=0 DXMaxC= 1.62D-01 DCOld= 1.00D+10 DXMaxT= 3.00D-01 DXLimC= 3.00D+00 Rises=F
 Variable       Old X    -DE/DX   Delta X   Delta X   Delta X     New X
                                 (Linear)    (Quad)   (Total)
    R1        2.45227  -0.16035   0.00000  -0.19543  -0.19543   2.25684
    R2        2.94503  -0.02321   0.00000  -0.06392  -0.06392   2.88111
    R3        5.66918  -0.01886   0.00000   0.00000   0.00000   5.66918
    R4        4.72432  -0.02360   0.00000   0.00000   0.00000   4.72432
    R5        2.07331  -0.00445   0.00000  -0.01007  -0.01007   2.06324
    R6        2.07468  -0.00154   0.00000  -0.00349  -0.00349   2.07119
    R7        2.06868  -0.00111   0.00000  -0.00250  -0.00250   2.06618
    R8        2.20923   0.01087   0.00000   0.00762   0.00762   2.21685
    A1        1.99667   0.05818   0.00000   0.18022   0.17841   2.17508
    A2        2.01908  -0.02324   0.00000  -0.06578  -0.06484   1.95424
    A3        1.89239  -0.01315   0.00000  -0.01693  -0.02217   1.87022
    A4        1.92419  -0.01910   0.00000  -0.06342  -0.06311   1.86108
    A5        1.77194  -0.00018   0.00000  -0.00130  -0.00530   1.76664
    A6        1.83479  -0.00494   0.00000  -0.04260  -0.04407   1.79072
    A7        1.97398  -0.00223   0.00000  -0.00982  -0.01005   1.96392
    A8        1.87942  -0.00412   0.00000  -0.01569  -0.01591   1.86351
    A9        1.90140  -0.01093   0.00000  -0.04637  -0.04680   1.85459
   A10        1.90356   0.00387   0.00000   0.01773   0.01768   1.92124
   A11        1.90837   0.00646   0.00000   0.02427   0.02384   1.93221
   A12        1.89554   0.00725   0.00000   0.03123   0.03076   1.92631
   A13        3.09322  -0.00076   0.00000  -0.00666  -0.00666   3.08657
   A14        2.87600   0.00117   0.00000   0.01020   0.01020   2.88620
    D1        3.04510   0.00255   0.00000   0.01455   0.01613   3.06123
    D2       -1.13357   0.00319   0.00000   0.01992   0.02128  -1.11230
    D3        0.91915   0.00361   0.00000   0.02329   0.02478   0.94392
    D4       -0.92685   0.00437   0.00000   0.02498   0.02444  -0.90241
    D5        1.17766   0.00501   0.00000   0.03035   0.02959   1.20725
    D6       -3.05280   0.00543   0.00000   0.03372   0.03309  -3.01971
    D7        1.01121  -0.00816   0.00000  -0.04643  -0.04715   0.96405
    D8        3.11572  -0.00752   0.00000  -0.04106  -0.04201   3.07372
    D9       -1.11475  -0.00709   0.00000  -0.03769  -0.03850  -1.15325
         Item               Value     Threshold  Converged?
 Maximum Force            0.160349     0.000450     NO 
 RMS     Force            0.032910     0.000300     NO 
 Maximum Displacement     0.161562     0.001800     NO 
 RMS     Displacement     0.062751     0.001200     NO 
 Predicted change in Energy=-2.999222D-02
 Lowest energy point so far.  Saving SCF results.
 GradGradGradGradGradGradGradGradGradGradGradGradGradGradGradGradGradGrad

 Leave Link  103 at Wed Jan  8 02:21:19 2020, MaxMem=  4294967296 cpu:              86.4 elap:               6.2
 (Enter /home/cwagen/sw/g16/g16/l202.exe)
                          Input orientation:                          
 ---------------------------------------------------------------------
 Center     Atomic      Atomic             Coordinates (Angstroms)
 Number     Number       Type             X           Y           Z
 ---------------------------------------------------------------------
      1          6           0       -0.188979   -0.377494   -0.254863
      2          8           0       -0.241115   -0.582615   -1.430227
      3          6           0       -0.336286   -1.449706    0.818972
      4          1           0       -0.176306   -1.058280    1.825582
      5          1           0       -1.352283   -1.850698    0.728237
      6          1           0        0.400335   -2.222494    0.583065
      7         17           0       -1.952276    1.906907    0.565076
      8          6           0        2.100581    0.495764    0.240455
      9          7           0        3.232982    0.795966    0.301497
 ---------------------------------------------------------------------
                    Distance matrix (angstroms):
                    1          2          3          4          5
     1  C    0.000000
     2  O    1.194268   0.000000
     3  C    1.524618   2.412426   0.000000
     4  H    2.189036   3.291011   1.091820   0.000000
     5  H    2.118984   2.738923   1.096028   1.793046   0.000000
     6  H    2.110318   2.674698   1.093374   1.797709   1.797492
     7  Cl   3.000000   3.620362   3.733997   3.679032   3.808701
     8  C    2.500000   3.072071   3.171412   3.179920   4.203104
     9  N    3.660103   4.119309   4.248587   4.169449   5.311458
                    6          7          8          9
     6  H    0.000000
     7  Cl   4.752584   0.000000
     8  C    3.224460   4.303759   0.000000
     9  N    4.149008   5.309478   1.173107   0.000000
 Stoichiometry    C3H3ClNO(1-)
 Framework group  C1[X(C3H3ClNO)]
 Deg. of freedom    21
 Full point group                 C1      NOp   1
 RotChk:  IX=0 Diff= 3.58D-02
 Largest Abelian subgroup         C1      NOp   1
 Largest concise Abelian subgroup C1      NOp   1
                         Standard orientation:                         
 ---------------------------------------------------------------------
 Center     Atomic      Atomic             Coordinates (Angstroms)
 Number     Number       Type             X           Y           Z
 ---------------------------------------------------------------------
      1          6           0        0.175678    0.817660    0.238482
      2          8           0        0.286197    1.259082    1.342659
      3          6           0        0.301625    1.639379   -1.039554
      4          1           0        0.245299    1.024035   -1.939693
      5          1           0       -0.517666    2.367347   -1.029523
      6          1           0        1.266097    2.151043   -0.980746
      7         17           0       -2.294820   -0.858239   -0.058171
      8          6           0        2.008905   -0.853029   -0.074694
      9          7           0        2.973055   -1.521296   -0.078258
 ---------------------------------------------------------------------
 Rotational constants (GHZ):           2.6329405           1.2358271           1.0008139
 Leave Link  202 at Wed Jan  8 02:21:19 2020, MaxMem=  4294967296 cpu:               2.0 elap:               0.2
 (Enter /home/cwagen/sw/g16/g16/l301.exe)
 Standard basis: 6-31+G(d) (6D, 7F)
 Ernie: Thresh=  0.10000D-02 Tol=  0.10000D-05 Strict=F.
 There are   124 symmetry adapted cartesian basis functions of A   symmetry.
 There are   124 symmetry adapted basis functions of A   symmetry.
   124 basis functions,   228 primitive gaussians,   124 cartesian basis functions
    27 alpha electrons       27 beta electrons
       nuclear repulsion energy       210.7375506738 Hartrees.
 IExCor=  402 DFT=T Ex+Corr=B3LYP ExCW=0 ScaHFX=  0.200000
 ScaDFX=  0.800000  0.720000  1.000000  0.810000 ScalE2=  1.000000  1.000000
 IRadAn=      5 IRanWt=     -1 IRanGd=            0 ICorTp=0 IEmpDi=  4
 NAtoms=    9 NActive=    9 NUniq=    9 SFac= 1.00D+00 NAtFMM=   60 NAOKFM=F Big=F
 Integral buffers will be    131072 words long.
 Raffenetti 2 integral format.
 Two-electron integral symmetry is turned on.
 ------------------------------------------------------------------------------
 Polarizable Continuum Model (PCM)
 =================================
 Model                : PCM.
 Atomic radii         : SMD-Coulomb.
 Polarization charges : Total charges.
 Charge compensation  : None.
 Solution method      : On-the-fly selection.
 Cavity type          : VdW (van der Waals Surface) (Alpha=1.000).
 Cavity algorithm     : GePol (No added spheres)
                        Default sphere list used, NSphG=    9.
                        Lebedev-Laikov grids with approx.  5.0 points / Ang**2.
                        Smoothing algorithm: York/Karplus (Gamma=1.0000).
                        Polarization charges: spherical gaussians, with
                                              point-specific exponents (IZeta= 3).
                        Self-potential: point-specific (ISelfS= 7).
                        Self-field    : sphere-specific E.n sum rule (ISelfD= 2).
 1st derivatives      : Analytical E(r).r(x)/FMM algorithm (CHGder, D1EAlg=3).
                        Cavity 1st derivative terms included.
 Solvent              : TetraHydroFuran, Eps=   7.425700 Eps(inf)=   1.974025
 ------------------------------------------------------------------------------
 Spheres list:
 ISph  on   Nord     Re0    Alpha      Xe            Ye            Ze
    1   C      1    1.8500  1.000      0.175678      0.817660      0.238482
    2   O      2    2.2940  1.000      0.286197      1.259082      1.342659
    3   C      3    1.8500  1.000      0.301625      1.639379     -1.039554
    4   H      4    1.2000  1.000      0.245299      1.024035     -1.939693
    5   H      5    1.2000  1.000     -0.517666      2.367347     -1.029523
    6   H      6    1.2000  1.000      1.266097      2.151043     -0.980746
    7  Cl      7    2.3800  1.000     -2.294820     -0.858239     -0.058171
    8   C      8    1.8500  1.000      2.008905     -0.853029     -0.074694
    9   N      9    1.8900  1.000      2.973055     -1.521296     -0.078258
 ------------------------------------------------------------------------------
 GePol: Number of generator spheres                  =       9
 GePol: Total number of spheres                      =       9
 GePol: Number of exposed spheres                    =       9 (100.00%)
 GePol: Number of points                             =    1345
 GePol: Average weight of points                     =       0.14
 GePol: Minimum weight of points                     =   0.11D-05
 GePol: Maximum weight of points                     =    0.18138
 GePol: Number of points with low weight             =      24
 GePol: Fraction of low-weight points (<1% of avg)   =       1.78%
 GePol: Cavity surface area                          =    184.388 Ang**2
 GePol: Cavity volume                                =    160.960 Ang**3
 ------------------------------------------------------------------------------
 Atomic radii for non-electrostatic terms: SMD-CDS.
 ------------------------------------------------------------------------------
 PCM non-electrostatic energy =         0.0008039410 Hartrees.
 Nuclear repulsion after PCM non-electrostatic terms =      210.7383546148 Hartrees.
 Leave Link  301 at Wed Jan  8 02:21:19 2020, MaxMem=  4294967296 cpu:               2.5 elap:               0.2
 (Enter /home/cwagen/sw/g16/g16/l302.exe)
 NPDir=0 NMtPBC=     1 NCelOv=     1 NCel=       1 NClECP=     1 NCelD=      1
         NCelK=      1 NCelE2=     1 NClLst=     1 CellRange=     0.0.
 One-electron integrals computed using PRISM.
 One-electron integral symmetry used in STVInt
 NBasis=   124 RedAO= T EigKep=  1.86D-04  NBF=   124
 NBsUse=   124 1.00D-06 EigRej= -1.00D+00 NBFU=   124
 Precomputing XC quadrature grid using
 IXCGrd= 4 IRadAn=           5 IRanWt=          -1 IRanGd=           0 AccXCQ= 0.00D+00.
 Generated NRdTot=       0 NPtTot=           0 NUsed=           0 NTot=          32
 NSgBfM=   123   123   123   123   123 MxSgAt=     9 MxSgA2=     9.
 Leave Link  302 at Wed Jan  8 02:21:21 2020, MaxMem=  4294967296 cpu:              22.0 elap:               1.6
 (Enter /home/cwagen/sw/g16/g16/l303.exe)
 DipDrv:  MaxL=1.
 Leave Link  303 at Wed Jan  8 02:21:21 2020, MaxMem=  4294967296 cpu:               3.5 elap:               0.4
 (Enter /home/cwagen/sw/g16/g16/l401.exe)
 Initial guess from the checkpoint file:  "/scratch/users/cwagen/cwagen_scan_300_250/Gau-16424.chk"
 B after Tr=     0.000000    0.000000    0.000000
         Rot=    0.999925   -0.006959   -0.000516   -0.010092 Ang=  -1.41 deg.
 Guess basis will be translated and rotated to current coordinates.
 JPrj=2 DoOrth=T DoCkMO=T.
 Generating alternative initial guess.
 ExpMin= 4.38D-02 ExpMax= 2.52D+04 ExpMxC= 3.78D+03 IAcc=2 IRadAn=         4 AccDes= 0.00D+00
 Harris functional with IExCor=  402 and IRadAn=       4 diagonalized for initial guess.
 HarFok:  IExCor=  402 AccDes= 0.00D+00 IRadAn=         4 IDoV= 1 UseB2=F ITyADJ=14
 ICtDFT=  3500011 ScaDFX=  1.000000  1.000000  1.000000  1.000000
 FoFCou: FMM=F IPFlag=           0 FMFlag=      100000 FMFlg1=           0
         NFxFlg=           0 DoJE=T BraDBF=F KetDBF=T FulRan=T
         wScrn=  0.000000 ICntrl=       500 IOpCl=  0 I1Cent=   200000004 NGrid=           0
         NMat0=    1 NMatS0=      1 NMatT0=    0 NMatD0=    1 NMtDS0=    0 NMtDT0=    0
 Petite list used in FoFCou.
 Harris En= -706.354701750171    
 Leave Link  401 at Wed Jan  8 02:21:23 2020, MaxMem=  4294967296 cpu:              26.3 elap:               1.9
 (Enter /home/cwagen/sw/g16/g16/l502.exe)
 Keep R1 ints in memory in canonical form, NReq=45236517.
 FoFCou: FMM=F IPFlag=           0 FMFlag=           0 FMFlg1=           0
         NFxFlg=           0 DoJE=F BraDBF=F KetDBF=F FulRan=T
         wScrn=  0.000000 ICntrl=       600 IOpCl=  0 I1Cent=           0 NGrid=           0
         NMat0=    1 NMatS0=   7750 NMatT0=    0 NMatD0=    1 NMtDS0=    0 NMtDT0=    0
 Symmetry not used in FoFCou.
 Two-electron integral symmetry not used.
 Closed shell SCF:
 Using DIIS extrapolation, IDIIS=  1040.
 NGot=  4294967296 LenX=  4264898079 LenY=  4264882262
 Requested convergence on RMS density matrix=1.00D-08 within 128 cycles.
 Requested convergence on MAX density matrix=1.00D-06.
 Requested convergence on             energy=1.00D-06.
 No special actions if energy rises.

 Cycle   1  Pass 1  IDiag  1:
 Inv3:  Mode=1 IEnd=     5427075.
 Iteration    1 A*A^-1 deviation from unit magnitude is 3.11D-15 for   1336.
 Iteration    1 A*A^-1 deviation from orthogonality  is 2.11D-15 for    367     71.
 Iteration    1 A^-1*A deviation from unit magnitude is 3.33D-15 for   1342.
 Iteration    1 A^-1*A deviation from orthogonality  is 2.47D-15 for   1096    205.
 E= -706.353237242651    
 DIIS: error= 6.15D-03 at cycle   1 NSaved=   1.
 NSaved= 1 IEnMin= 1 EnMin= -706.353237242651     IErMin= 1 ErrMin= 6.15D-03
 ErrMax= 6.15D-03  0.00D+00 EMaxC= 1.00D-01 BMatC= 1.07D-02 BMatP= 1.07D-02
 IDIUse=3 WtCom= 9.39D-01 WtEn= 6.15D-02
 Coeff-Com:  0.100D+01
 Coeff-En:   0.100D+01
 Coeff:      0.100D+01
 Gap=     0.581 Goal=   None    Shift=    0.000
 GapD=    0.581 DampG=2.000 DampE=1.000 DampFc=2.0000 IDamp=-1.
 RMSDP=1.77D-03 MaxDP=3.44D-02              OVMax= 4.25D-02

 Cycle   2  Pass 1  IDiag  1:
 E= -706.369777058908     Delta-E=       -0.016539816257 Rises=F Damp=F
 DIIS: error= 1.86D-03 at cycle   2 NSaved=   2.
 NSaved= 2 IEnMin= 2 EnMin= -706.369777058908     IErMin= 2 ErrMin= 1.86D-03
 ErrMax= 1.86D-03  0.00D+00 EMaxC= 1.00D-01 BMatC= 9.83D-04 BMatP= 1.07D-02
 IDIUse=3 WtCom= 9.81D-01 WtEn= 1.86D-02
 Coeff-Com:  0.111D+00 0.889D+00
 Coeff-En:   0.000D+00 0.100D+01
 Coeff:      0.109D+00 0.891D+00
 Gap=     0.117 Goal=   None    Shift=    0.000
 RMSDP=5.58D-04 MaxDP=1.85D-02 DE=-1.65D-02 OVMax= 2.84D-02

 Cycle   3  Pass 1  IDiag  1:
 E= -706.368411097207     Delta-E=        0.001365961701 Rises=F Damp=F
 DIIS: error= 3.20D-03 at cycle   3 NSaved=   3.
 NSaved= 3 IEnMin= 2 EnMin= -706.369777058908     IErMin= 2 ErrMin= 1.86D-03
 ErrMax= 3.20D-03  0.00D+00 EMaxC= 1.00D-01 BMatC= 2.74D-03 BMatP= 9.83D-04
 IDIUse=3 WtCom= 1.50D-01 WtEn= 8.50D-01
 Coeff-Com: -0.761D-02 0.638D+00 0.370D+00
 Coeff-En:   0.000D+00 0.698D+00 0.302D+00
 Coeff:     -0.114D-02 0.689D+00 0.312D+00
 Gap=     0.113 Goal=   None    Shift=    0.000
 RMSDP=3.29D-04 MaxDP=1.20D-02 DE= 1.37D-03 OVMax= 1.46D-02

 Cycle   4  Pass 1  IDiag  1:
 E= -706.370564049829     Delta-E=       -0.002152952622 Rises=F Damp=F
 DIIS: error= 4.99D-04 at cycle   4 NSaved=   4.
 NSaved= 4 IEnMin= 4 EnMin= -706.370564049829     IErMin= 4 ErrMin= 4.99D-04
 ErrMax= 4.99D-04  0.00D+00 EMaxC= 1.00D-01 BMatC= 5.52D-05 BMatP= 9.83D-04
 IDIUse=3 WtCom= 9.95D-01 WtEn= 4.99D-03
 Coeff-Com: -0.205D-01 0.247D+00 0.145D+00 0.628D+00
 Coeff-En:   0.000D+00 0.000D+00 0.000D+00 0.100D+01
 Coeff:     -0.204D-01 0.246D+00 0.145D+00 0.630D+00
 Gap=     0.112 Goal=   None    Shift=    0.000
 RMSDP=1.04D-04 MaxDP=2.59D-03 DE=-2.15D-03 OVMax= 2.87D-03

 Cycle   5  Pass 1  IDiag  1:
 E= -706.370613333836     Delta-E=       -0.000049284007 Rises=F Damp=F
 DIIS: error= 1.57D-04 at cycle   5 NSaved=   5.
 NSaved= 5 IEnMin= 5 EnMin= -706.370613333836     IErMin= 5 ErrMin= 1.57D-04
 ErrMax= 1.57D-04  0.00D+00 EMaxC= 1.00D-01 BMatC= 7.76D-06 BMatP= 5.52D-05
 IDIUse=3 WtCom= 9.98D-01 WtEn= 1.57D-03
 Coeff-Com: -0.536D-02 0.614D-01 0.457D-01 0.298D+00 0.600D+00
 Coeff-En:   0.000D+00 0.000D+00 0.000D+00 0.570D-01 0.943D+00
 Coeff:     -0.535D-02 0.613D-01 0.456D-01 0.298D+00 0.601D+00
 Gap=     0.112 Goal=   None    Shift=    0.000
 RMSDP=4.94D-05 MaxDP=1.25D-03 DE=-4.93D-05 OVMax= 2.69D-03

 Cycle   6  Pass 1  IDiag  1:
 E= -706.370621679914     Delta-E=       -0.000008346078 Rises=F Damp=F
 DIIS: error= 7.47D-05 at cycle   6 NSaved=   6.
 NSaved= 6 IEnMin= 6 EnMin= -706.370621679914     IErMin= 6 ErrMin= 7.47D-05
 ErrMax= 7.47D-05  0.00D+00 EMaxC= 1.00D-01 BMatC= 1.93D-06 BMatP= 7.76D-06
 IDIUse=1 WtCom= 1.00D+00 WtEn= 0.00D+00
 Coeff-Com: -0.234D-02 0.158D-01 0.152D-01 0.129D+00 0.385D+00 0.457D+00
 Coeff:     -0.234D-02 0.158D-01 0.152D-01 0.129D+00 0.385D+00 0.457D+00
 Gap=     0.112 Goal=   None    Shift=    0.000
 RMSDP=1.78D-05 MaxDP=4.68D-04 DE=-8.35D-06 OVMax= 7.34D-04

 Cycle   7  Pass 1  IDiag  1:
 E= -706.370623820268     Delta-E=       -0.000002140354 Rises=F Damp=F
 DIIS: error= 2.35D-05 at cycle   7 NSaved=   7.
 NSaved= 7 IEnMin= 7 EnMin= -706.370623820268     IErMin= 7 ErrMin= 2.35D-05
 ErrMax= 2.35D-05  0.00D+00 EMaxC= 1.00D-01 BMatC= 1.15D-07 BMatP= 1.93D-06
 IDIUse=1 WtCom= 1.00D+00 WtEn= 0.00D+00
 Coeff-Com: -0.422D-03-0.595D-03 0.163D-02 0.331D-01 0.155D+00 0.235D+00
 Coeff-Com:  0.577D+00
 Coeff:     -0.422D-03-0.595D-03 0.163D-02 0.331D-01 0.155D+00 0.235D+00
 Coeff:      0.577D+00
 Gap=     0.112 Goal=   None    Shift=    0.000
 RMSDP=5.24D-06 MaxDP=1.56D-04 DE=-2.14D-06 OVMax= 2.98D-04

 Cycle   8  Pass 1  IDiag  1:
 E= -706.370623917038     Delta-E=       -0.000000096770 Rises=F Damp=F
 DIIS: error= 1.78D-05 at cycle   8 NSaved=   8.
 NSaved= 8 IEnMin= 8 EnMin= -706.370623917038     IErMin= 8 ErrMin= 1.78D-05
 ErrMax= 1.78D-05  0.00D+00 EMaxC= 1.00D-01 BMatC= 4.19D-08 BMatP= 1.15D-07
 IDIUse=1 WtCom= 1.00D+00 WtEn= 0.00D+00
 Coeff-Com:  0.153D-03-0.310D-02-0.189D-02-0.145D-02 0.369D-01 0.537D-01
 Coeff-Com:  0.394D+00 0.522D+00
 Coeff:      0.153D-03-0.310D-02-0.189D-02-0.145D-02 0.369D-01 0.537D-01
 Coeff:      0.394D+00 0.522D+00
 Gap=     0.112 Goal=   None    Shift=    0.000
 RMSDP=2.03D-06 MaxDP=4.10D-05 DE=-9.68D-08 OVMax= 7.84D-05

 Cycle   9  Pass 1  IDiag  1:
 E= -706.370623954115     Delta-E=       -0.000000037077 Rises=F Damp=F
 DIIS: error= 4.05D-06 at cycle   9 NSaved=   9.
 NSaved= 9 IEnMin= 9 EnMin= -706.370623954115     IErMin= 9 ErrMin= 4.05D-06
 ErrMax= 4.05D-06  0.00D+00 EMaxC= 1.00D-01 BMatC= 5.08D-09 BMatP= 4.19D-08
 IDIUse=1 WtCom= 1.00D+00 WtEn= 0.00D+00
 Coeff-Com:  0.111D-03-0.195D-02-0.158D-02-0.449D-02 0.917D-02 0.633D-02
 Coeff-Com:  0.210D+00 0.341D+00 0.442D+00
 Coeff:      0.111D-03-0.195D-02-0.158D-02-0.449D-02 0.917D-02 0.633D-02
 Coeff:      0.210D+00 0.341D+00 0.442D+00
 Gap=     0.112 Goal=   None    Shift=    0.000
 RMSDP=9.88D-07 MaxDP=2.61D-05 DE=-3.71D-08 OVMax= 5.32D-05

 Cycle  10  Pass 1  IDiag  1:
 E= -706.370623960557     Delta-E=       -0.000000006441 Rises=F Damp=F
 DIIS: error= 1.04D-06 at cycle  10 NSaved=  10.
 NSaved=10 IEnMin=10 EnMin= -706.370623960557     IErMin=10 ErrMin= 1.04D-06
 ErrMax= 1.04D-06  0.00D+00 EMaxC= 1.00D-01 BMatC= 3.10D-10 BMatP= 5.08D-09
 IDIUse=1 WtCom= 1.00D+00 WtEn= 0.00D+00
 Coeff-Com:  0.374D-04-0.326D-03-0.491D-03-0.177D-02-0.154D-02-0.983D-02
 Coeff-Com:  0.231D-01 0.585D-01 0.184D+00 0.748D+00
 Coeff:      0.374D-04-0.326D-03-0.491D-03-0.177D-02-0.154D-02-0.983D-02
 Coeff:      0.231D-01 0.585D-01 0.184D+00 0.748D+00
 Gap=     0.112 Goal=   None    Shift=    0.000
 RMSDP=2.25D-07 MaxDP=6.06D-06 DE=-6.44D-09 OVMax= 7.04D-06

 Cycle  11  Pass 1  IDiag  1:
 E= -706.370623960893     Delta-E=       -0.000000000337 Rises=F Damp=F
 DIIS: error= 1.82D-07 at cycle  11 NSaved=  11.
 NSaved=11 IEnMin=11 EnMin= -706.370623960893     IErMin=11 ErrMin= 1.82D-07
 ErrMax= 1.82D-07  0.00D+00 EMaxC= 1.00D-01 BMatC= 1.14D-11 BMatP= 3.10D-10
 IDIUse=1 WtCom= 1.00D+00 WtEn= 0.00D+00
 Coeff-Com:  0.889D-05-0.367D-04-0.117D-03-0.532D-03-0.108D-02-0.435D-02
 Coeff-Com: -0.101D-02 0.820D-02 0.474D-01 0.292D+00 0.659D+00
 Coeff:      0.889D-05-0.367D-04-0.117D-03-0.532D-03-0.108D-02-0.435D-02
 Coeff:     -0.101D-02 0.820D-02 0.474D-01 0.292D+00 0.659D+00
 Gap=     0.112 Goal=   None    Shift=    0.000
 RMSDP=7.57D-08 MaxDP=2.38D-06 DE=-3.37D-10 OVMax= 1.85D-06

 Cycle  12  Pass 1  IDiag  1:
 E= -706.370623960907     Delta-E=       -0.000000000014 Rises=F Damp=F
 DIIS: error= 7.02D-08 at cycle  12 NSaved=  12.
 NSaved=12 IEnMin=12 EnMin= -706.370623960907     IErMin=12 ErrMin= 7.02D-08
 ErrMax= 7.02D-08  0.00D+00 EMaxC= 1.00D-01 BMatC= 1.59D-12 BMatP= 1.14D-11
 IDIUse=1 WtCom= 1.00D+00 WtEn= 0.00D+00
 Coeff-Com:  0.707D-06 0.122D-04 0.710D-06-0.648D-04-0.263D-03-0.779D-03
 Coeff-Com: -0.257D-02-0.128D-02 0.227D-02 0.509D-01 0.298D+00 0.654D+00
 Coeff:      0.707D-06 0.122D-04 0.710D-06-0.648D-04-0.263D-03-0.779D-03
 Coeff:     -0.257D-02-0.128D-02 0.227D-02 0.509D-01 0.298D+00 0.654D+00
 Gap=     0.112 Goal=   None    Shift=    0.000
 RMSDP=1.45D-08 MaxDP=3.55D-07 DE=-1.35D-11 OVMax= 5.00D-07

 Cycle  13  Pass 1  IDiag  1:
 E= -706.370623960908     Delta-E=       -0.000000000001 Rises=F Damp=F
 DIIS: error= 1.59D-08 at cycle  13 NSaved=  13.
 NSaved=13 IEnMin=13 EnMin= -706.370623960908     IErMin=13 ErrMin= 1.59D-08
 ErrMax= 1.59D-08  0.00D+00 EMaxC= 1.00D-01 BMatC= 4.08D-14 BMatP= 1.59D-12
 IDIUse=1 WtCom= 1.00D+00 WtEn= 0.00D+00
 Coeff-Com: -0.410D-06 0.507D-05 0.903D-05 0.147D-04 0.292D-05 0.974D-04
 Coeff-Com: -0.593D-03-0.644D-03-0.257D-02-0.722D-02 0.358D-01 0.166D+00
 Coeff-Com:  0.809D+00
 Coeff:     -0.410D-06 0.507D-05 0.903D-05 0.147D-04 0.292D-05 0.974D-04
 Coeff:     -0.593D-03-0.644D-03-0.257D-02-0.722D-02 0.358D-01 0.166D+00
 Coeff:      0.809D+00
 Gap=     0.112 Goal=   None    Shift=    0.000
 RMSDP=6.78D-09 MaxDP=2.88D-07 DE=-9.09D-13 OVMax= 2.06D-07

 Error on total polarization charges =  0.02611
 SCF Done:  E(RB3LYP) =  -706.370623961     A.U. after   13 cycles
            NFock= 13  Conv=0.68D-08     -V/T= 2.0061
 KE= 7.021017569116D+02 PE=-2.098235035698D+03 EE= 4.790243002111D+02
 SMD-CDS (non-electrostatic) energy       (kcal/mol) =       0.50
 (included in total energy above)
 Leave Link  502 at Wed Jan  8 02:21:53 2020, MaxMem=  4294967296 cpu:             428.0 elap:              30.0
 (Enter /home/cwagen/sw/g16/g16/l701.exe)
 ... and contract with generalized density number  0.
 Compute integral first derivatives.
 D1PCM: PCM CHGder 1st derivatives, ID1Alg=3 FixD1E=F DoIter=F DoCFld=F I1PDM=0.
 GePol: Maximum number of non-zero 1st derivatives   =     412
 Leave Link  701 at Wed Jan  8 02:21:59 2020, MaxMem=  4294967296 cpu:              67.0 elap:               5.4
 (Enter /home/cwagen/sw/g16/g16/l702.exe)
 L702 exits ... SP integral derivatives will be done elsewhere.
 Leave Link  702 at Wed Jan  8 02:21:59 2020, MaxMem=  4294967296 cpu:               0.9 elap:               0.1
 (Enter /home/cwagen/sw/g16/g16/l703.exe)
 Integral derivatives from FoFJK, PRISM(SPDF).
 Compute integral first derivatives, UseDBF=F ICtDFT=           0.
 Calling FoFJK, ICntrl=      2127 FMM=F ISym2X=0 I1Cent= 0 IOpClX= 0 NMat=1 NMatS=1 NMatT=0.
 FoFJK:  IHMeth= 1 ICntrl=    2127 DoSepK=F KAlg= 0 I1Cent=           0 FoldK=F
 IRaf=         0 NMat=       1 IRICut=       1 DoRegI=T DoRafI=F ISym2E= 0 IDoP0=0 IntGTp=1.
 FoFCou: FMM=F IPFlag=           0 FMFlag=      100000 FMFlg1=         800
         NFxFlg=           0 DoJE=F BraDBF=F KetDBF=F FulRan=T
         wScrn=  0.000000 ICntrl=      2127 IOpCl=  0 I1Cent=           0 NGrid=           0
         NMat0=    1 NMatS0=      1 NMatT0=    0 NMatD0=    1 NMtDS0=    0 NMtDT0=    0
 Symmetry not used in FoFCou.
 Leave Link  703 at Wed Jan  8 02:22:01 2020, MaxMem=  4294967296 cpu:              33.9 elap:               2.2
 (Enter /home/cwagen/sw/g16/g16/l716.exe)
 Dipole        = 3.48216119D-02 4.11412145D+00-8.27188079D-01
 ***** Axes restored to original set *****
 -------------------------------------------------------------------
 Center     Atomic                   Forces (Hartrees/Bohr)
 Number     Number              X              Y              Z
 -------------------------------------------------------------------
      1        6           0.012935084   -0.049770317   -0.059448178
      2        8          -0.001044193    0.038613197    0.057587584
      3        6          -0.004471542    0.023580204    0.013662673
      4        1           0.000029853    0.000101189   -0.002263089
      5        1          -0.000153326    0.001513050   -0.001174827
      6        1           0.002266344    0.002261284   -0.002560804
      7       17           0.008964109   -0.011932700   -0.003513013
      8        6          -0.021658166   -0.005252106   -0.002945666
      9        7           0.003131836    0.000886201    0.000655319
 -------------------------------------------------------------------
 Cartesian Forces:  Max     0.059448178 RMS     0.021539503
 Leave Link  716 at Wed Jan  8 02:22:02 2020, MaxMem=  4294967296 cpu:               1.3 elap:               0.8
 (Enter /home/cwagen/sw/g16/g16/l103.exe)

 GradGradGradGradGradGradGradGradGradGradGradGradGradGradGradGradGradGrad
 Berny optimization.
 Using GEDIIS/GDIIS optimizer.
 FormGI is forming the generalized inverse of G from B-inverse, IUseBI=4.
 Internal  Forces:  Max     0.063259969 RMS     0.015945877
 Search for a local minimum.
 Step number   2 out of a maximum of   41
 All quantities printed in internal units (Hartrees-Bohrs-Radians)
 RMS Force = .15855D-01 SwitMx=.10000D-02 MixMth= 1
 Mixed Optimization -- RFO/linear search
 Update second derivatives using D2CorX and points    1    2
 DE= -3.90D-02 DEPred=-3.00D-02 R= 1.30D+00
 TightC=F SS=  1.41D+00  RLast= 3.14D-01 DXNew= 5.0454D-01 9.4309D-01
 Trust test= 1.30D+00 RLast= 3.14D-01 DXMaxT set to 5.05D-01
 ITU=  1  0
 Use linear search instead of GDIIS.
     Eigenvalues ---    0.00230   0.04746   0.04748   0.05541   0.05859
     Eigenvalues ---    0.06195   0.09251   0.15668   0.16000   0.16023
     Eigenvalues ---    0.17540   0.25000   0.25132   0.26930   0.33920
     Eigenvalues ---    0.34000   0.34281   0.65371   1.220611000.00000
     Eigenvalues --- 1000.000001000.000001000.000001000.000001000.00000
     Eigenvalues --- 1000.000001000.000001000.000001000.000001000.00000
     Eigenvalues --- 1000.00000
 RFO step:  Lambda=-3.49355006D-03 EMin= 2.30001760D-03
 Quartic linear search produced a step of  0.65254.
 Iteration  1 RMS(Cart)=  0.07392513 RMS(Int)=  0.00664768
 Iteration  2 RMS(Cart)=  0.00629289 RMS(Int)=  0.00283485
 Iteration  3 RMS(Cart)=  0.00004136 RMS(Int)=  0.00283458
 Iteration  4 RMS(Cart)=  0.00000043 RMS(Int)=  0.00283458
 Iteration  1 RMS(Cart)=  0.00000000 RMS(Int)=  0.00000000
 ITry= 1 IFail=0 DXMaxC= 2.17D-01 DCOld= 1.00D+10 DXMaxT= 5.05D-01 DXLimC= 3.00D+00 Rises=F
 Variable       Old X    -DE/DX   Delta X   Delta X   Delta X     New X
                                 (Linear)    (Quad)   (Total)
    R1        2.25684  -0.06326  -0.12753   0.01114  -0.11639   2.14045
    R2        2.88111  -0.01369  -0.04171  -0.00870  -0.05041   2.83070
    R3        5.66918  -0.01532   0.00000   0.00000   0.00000   5.66918
    R4        4.72432  -0.01892   0.00000   0.00000   0.00000   4.72432
    R5        2.06324  -0.00204  -0.00657   0.00075  -0.00582   2.05742
    R6        2.07119  -0.00032  -0.00228   0.00215  -0.00013   2.07106
    R7        2.06618   0.00044  -0.00163   0.00474   0.00311   2.06928
    R8        2.21685   0.00328   0.00497  -0.00126   0.00371   2.22056
    A1        2.17508   0.04587   0.11642   0.09385   0.20791   2.38299
    A2        1.95424  -0.01705  -0.04231  -0.04196  -0.07984   1.87440
    A3        1.87022  -0.00978  -0.01447  -0.00165  -0.02565   1.84456
    A4        1.86108  -0.01746  -0.04118  -0.05217  -0.09045   1.77063
    A5        1.76664  -0.00579  -0.00346  -0.02036  -0.03248   1.73416
    A6        1.79072  -0.00216  -0.02875   0.01601  -0.01662   1.77410
    A7        1.96392  -0.00014  -0.00656   0.01494   0.00823   1.97215
    A8        1.86351  -0.00170  -0.01038   0.00793  -0.00263   1.86088
    A9        1.85459  -0.00543  -0.03054   0.01546  -0.01539   1.83921
   A10        1.92124   0.00149   0.01153  -0.00904   0.00244   1.92368
   A11        1.93221   0.00233   0.01555  -0.01281   0.00248   1.93468
   A12        1.92631   0.00320   0.02008  -0.01547   0.00423   1.93054
   A13        3.08657  -0.00008  -0.00434   0.02056   0.01622   3.10278
   A14        2.88620   0.00076   0.00665  -0.01066  -0.00401   2.88219
    D1        3.06123   0.00326   0.01052   0.00352   0.01673   3.07796
    D2       -1.11230   0.00390   0.01388   0.00654   0.02296  -1.08934
    D3        0.94392   0.00407   0.01617   0.00022   0.01905   0.96298
    D4       -0.90241   0.00272   0.01595  -0.02903  -0.01505  -0.91746
    D5        1.20725   0.00336   0.01931  -0.02601  -0.00882   1.19843
    D6       -3.01971   0.00353   0.02159  -0.03233  -0.01272  -3.03244
    D7        0.96405  -0.00699  -0.03077  -0.03481  -0.06612   0.89794
    D8        3.07372  -0.00635  -0.02741  -0.03178  -0.05989   3.01383
    D9       -1.15325  -0.00618  -0.02512  -0.03810  -0.06379  -1.21704
         Item               Value     Threshold  Converged?
 Maximum Force            0.063260     0.000450     NO 
 RMS     Force            0.015855     0.000300     NO 
 Maximum Displacement     0.217002     0.001800     NO 
 RMS     Displacement     0.075430     0.001200     NO 
 Predicted change in Energy=-1.591895D-02
 Lowest energy point so far.  Saving SCF results.
 GradGradGradGradGradGradGradGradGradGradGradGradGradGradGradGradGradGrad

 Leave Link  103 at Wed Jan  8 02:22:07 2020, MaxMem=  4294967296 cpu:              70.7 elap:               5.1
 (Enter /home/cwagen/sw/g16/g16/l202.exe)
                          Input orientation:                          
 ---------------------------------------------------------------------
 Center     Atomic      Atomic             Coordinates (Angstroms)
 Number     Number       Type             X           Y           Z
 ---------------------------------------------------------------------
      1          6           0       -0.177807   -0.449851   -0.311786
      2          8           0       -0.226003   -0.487665   -1.442805
      3          6           0       -0.332994   -1.423226    0.816172
      4          1           0       -0.143416   -0.977884    1.791410
      5          1           0       -1.360674   -1.800616    0.765421
      6          1           0        0.382904   -2.225281    0.608181
      7         17           0       -1.956989    1.792074    0.587259
      8          6           0        2.087950    0.452172    0.238397
      9          7           0        3.213684    0.777626    0.325546
 ---------------------------------------------------------------------
                    Distance matrix (angstroms):
                    1          2          3          4          5
     1  C    0.000000
     2  O    1.132677   0.000000
     3  C    1.497943   2.447386   0.000000
     4  H    2.168740   3.272198   1.088741   0.000000
     5  H    2.093829   2.808484   1.095959   1.791998   0.000000
     6  H    2.076750   2.756197   1.095017   1.798066   1.801424
     7  Cl   3.000000   3.509229   3.609421   3.523024   3.646197
     8  C    2.500000   3.010666   3.116394   3.071792   4.152809
     9  N    3.662663   4.069333   4.202783   4.062105   5.269305
                    6          7          8          9
     6  H    0.000000
     7  Cl   4.649159   0.000000
     8  C    3.195728   4.275346   0.000000
     9  N    4.136503   5.275743   1.175071   0.000000
 Stoichiometry    C3H3ClNO(1-)
 Framework group  C1[X(C3H3ClNO)]
 Deg. of freedom    21
 Full point group                 C1      NOp   1
 RotChk:  IX=0 Diff= 5.74D-02
 Largest Abelian subgroup         C1      NOp   1
 Largest concise Abelian subgroup C1      NOp   1
                         Standard orientation:                         
 ---------------------------------------------------------------------
 Center     Atomic      Atomic             Coordinates (Angstroms)
 Number     Number       Type             X           Y           Z
 ---------------------------------------------------------------------
      1          6           0        0.177541    0.873870    0.268542
      2          8           0        0.232744    1.174692    1.359145
      3          6           0        0.224321    1.572499   -1.055679
      4          1           0        0.197145    0.885760   -1.900077
      5          1           0       -0.640713    2.244742   -1.086187
      6          1           0        1.157578    2.145256   -1.049030
      7         17           0       -2.244938   -0.864860   -0.060715
      8          6           0        2.029345   -0.770438   -0.073617
      9          7           0        3.000106   -1.432323   -0.091598
 ---------------------------------------------------------------------
 Rotational constants (GHZ):           2.7624479           1.2489942           1.0338075
 Leave Link  202 at Wed Jan  8 02:22:07 2020, MaxMem=  4294967296 cpu:               1.2 elap:               0.2
 (Enter /home/cwagen/sw/g16/g16/l301.exe)
 Standard basis: 6-31+G(d) (6D, 7F)
 Ernie: Thresh=  0.10000D-02 Tol=  0.10000D-05 Strict=F.
 There are   124 symmetry adapted cartesian basis functions of A   symmetry.
 There are   124 symmetry adapted basis functions of A   symmetry.
   124 basis functions,   228 primitive gaussians,   124 cartesian basis functions
    27 alpha electrons       27 beta electrons
       nuclear repulsion energy       213.9602378828 Hartrees.
 IExCor=  402 DFT=T Ex+Corr=B3LYP ExCW=0 ScaHFX=  0.200000
 ScaDFX=  0.800000  0.720000  1.000000  0.810000 ScalE2=  1.000000  1.000000
 IRadAn=      5 IRanWt=     -1 IRanGd=            0 ICorTp=0 IEmpDi=  4
 NAtoms=    9 NActive=    9 NUniq=    9 SFac= 1.00D+00 NAtFMM=   60 NAOKFM=F Big=F
 Integral buffers will be    131072 words long.
 Raffenetti 2 integral format.
 Two-electron integral symmetry is turned on.
 ------------------------------------------------------------------------------
 Polarizable Continuum Model (PCM)
 =================================
 Model                : PCM.
 Atomic radii         : SMD-Coulomb.
 Polarization charges : Total charges.
 Charge compensation  : None.
 Solution method      : On-the-fly selection.
 Cavity type          : VdW (van der Waals Surface) (Alpha=1.000).
 Cavity algorithm     : GePol (No added spheres)
                        Default sphere list used, NSphG=    9.
                        Lebedev-Laikov grids with approx.  5.0 points / Ang**2.
                        Smoothing algorithm: York/Karplus (Gamma=1.0000).
                        Polarization charges: spherical gaussians, with
                                              point-specific exponents (IZeta= 3).
                        Self-potential: point-specific (ISelfS= 7).
                        Self-field    : sphere-specific E.n sum rule (ISelfD= 2).
 1st derivatives      : Analytical E(r).r(x)/FMM algorithm (CHGder, D1EAlg=3).
                        Cavity 1st derivative terms included.
 Solvent              : TetraHydroFuran, Eps=   7.425700 Eps(inf)=   1.974025
 ------------------------------------------------------------------------------
 Spheres list:
 ISph  on   Nord     Re0    Alpha      Xe            Ye            Ze
    1   C      1    1.8500  1.000      0.177541      0.873870      0.268542
    2   O      2    2.2940  1.000      0.232744      1.174692      1.359145
    3   C      3    1.8500  1.000      0.224321      1.572499     -1.055679
    4   H      4    1.2000  1.000      0.197145      0.885760     -1.900077
    5   H      5    1.2000  1.000     -0.640713      2.244742     -1.086187
    6   H      6    1.2000  1.000      1.157578      2.145256     -1.049030
    7  Cl      7    2.3800  1.000     -2.244938     -0.864860     -0.060715
    8   C      8    1.8500  1.000      2.029345     -0.770438     -0.073617
    9   N      9    1.8900  1.000      3.000106     -1.432323     -0.091598
 ------------------------------------------------------------------------------
 GePol: Number of generator spheres                  =       9
 GePol: Total number of spheres                      =       9
 GePol: Number of exposed spheres                    =       9 (100.00%)
 GePol: Number of points                             =    1341
 GePol: Average weight of points                     =       0.14
 GePol: Minimum weight of points                     =   0.43D-09
 GePol: Maximum weight of points                     =    0.18138
 GePol: Number of points with low weight             =      23
 GePol: Fraction of low-weight points (<1% of avg)   =       1.72%
 GePol: Cavity surface area                          =    181.696 Ang**2
 GePol: Cavity volume                                =    159.590 Ang**3
 ------------------------------------------------------------------------------
 Atomic radii for non-electrostatic terms: SMD-CDS.
 ------------------------------------------------------------------------------
[...]
 Mixed Optimization -- En-DIIS/RFO-DIIS
 Swapping is turned off.
 Update second derivatives using D2CorX and points    5    6    7    8    9
                                                     10   11   12   13   14
                                                     15   16   17   18   19
                                                     20   21   22
 DE= -4.46D-07 DEPred=-1.35D-06 R= 3.30D-01
 Trust test= 3.30D-01 RLast= 1.24D-02 DXMaxT set to 1.18D-01
 ITU=  0  0  0  0 -1  1 -1  1 -1  1  1  1  1  1  1  1  1  1  1  1
 ITU=  1  0
     Eigenvalues ---    0.00252   0.00541   0.01042   0.01797   0.04285
     Eigenvalues ---    0.05710   0.06049   0.07594   0.09216   0.15919
     Eigenvalues ---    0.16349   0.17648   0.24473   0.29214   0.34024
     Eigenvalues ---    0.34076   0.34586   1.15902   1.222051000.00000
     Eigenvalues --- 1000.000001000.000001000.000001000.000001000.00000
     Eigenvalues --- 1000.000001000.000001000.000001000.000001000.00000
     Eigenvalues --- 1000.00000
 En-DIIS/RFO-DIIS/Sim-DIIS IScMMF=       -3 using points:    22   21   20   19   18   17   16   15   14   13
 RFO step:  Lambda=-2.05400012D-07.
 NNeg= 0 NGDIIS=10 SimSw=  2.50D-01 Rises=F DC= -4.46D-07 SmlDif=  1.00D-05
 NRisDI= 0 DoIntr=F SqrtH=F CThrHd= 10.0 CDAdj=  3.0
 RMS Error=  0.3040410171D-03 NUsed=10 OKEnD=F EnDIS=F
 InvSVX:  RCond= 6.09D-10 Info=           0 Equed=N FErr=  3.13D-10 BErr=  8.52D-17
 DIIS inversion failure, remove point  10.
 InvSVX:  RCond= 6.76D-10 Info=           0 Equed=N FErr=  2.76D-10 BErr=  6.95D-17
 DIIS inversion failure, remove point   9.
 InvSVX:  RCond= 1.69D-09 Info=           0 Equed=N FErr=  5.00D-11 BErr=  1.19D-16
 DIIS inversion failure, remove point   8.
 InvSVX:  RCond= 3.05D-09 Info=           0 Equed=N FErr=  9.39D-12 BErr=  6.88D-17
 DIIS inversion failure, remove point   7.
 InvSVX:  RCond= 4.15D-09 Info=           0 Equed=N FErr=  6.85D-12 BErr=  1.41D-16
 DIIS inversion failure, remove point   6.
 InvSVX:  RCond= 1.86D-08 Info=           0 Equed=N FErr=  1.18D-12 BErr=  9.37D-17
 DIIS inversion failure, remove point   5.
 InvSVX:  RCond= 1.27D-06 Info=           0 Equed=N FErr=  1.66D-14 BErr=  8.38D-17
 RFO-DIIS uses    4 points instead of   10
 DidBck=F Rises=F RFO-DIIS coefs:    0.82159    0.36236   -0.21292    0.02897    0.00000
                  RFO-DIIS coefs:    0.00000    0.00000    0.00000    0.00000    0.00000
 Iteration  1 RMS(Cart)=  0.00048591 RMS(Int)=  0.00000018
 Iteration  2 RMS(Cart)=  0.00000020 RMS(Int)=  0.00000006
 Iteration  1 RMS(Cart)=  0.00000000 RMS(Int)=  0.00000000
 ITry= 1 IFail=0 DXMaxC= 1.40D-03 DCOld= 1.00D+10 DXMaxT= 1.18D-01 DXLimC= 3.00D+00 Rises=F
 Variable       Old X    -DE/DX   Delta X   Delta X   Delta X     New X
                                 (Linear)    (Quad)   (Total)
    R1        2.15900   0.00000   0.00002   0.00000   0.00001   2.15902
    R2        2.74609  -0.00001   0.00000  -0.00001  -0.00001   2.74608
    R3        5.66918  -0.00241   0.00000   0.00000   0.00000   5.66918
    R4        4.72432  -0.01252   0.00000   0.00000   0.00000   4.72432
    R5        2.05655   0.00000  -0.00001  -0.00001  -0.00001   2.05654
    R6        2.07212   0.00000   0.00000   0.00000   0.00001   2.07212
    R7        2.07454   0.00000   0.00000   0.00000   0.00000   2.07454
    R8        2.22124   0.00000   0.00000   0.00000   0.00000   2.22124
    A1        2.70796  -0.00001  -0.00021   0.00003  -0.00018   2.70779
    A2        1.70486   0.00001   0.00024  -0.00002   0.00022   1.70508
    A3        1.84366   0.00000   0.00022  -0.00008   0.00014   1.84380
    A4        1.54948   0.00000  -0.00002   0.00002   0.00000   1.54948
    A5        1.66632   0.00001  -0.00002   0.00005   0.00002   1.66634
    A6        1.84837  -0.00001  -0.00050   0.00001  -0.00049   1.84787
    A7        1.92551   0.00000   0.00004   0.00001   0.00005   1.92556
    A8        1.87097  -0.00001  -0.00002  -0.00001  -0.00003   1.87094
    A9        1.85900   0.00000  -0.00004  -0.00001  -0.00005   1.85895
   A10        1.93912   0.00001   0.00001   0.00004   0.00005   1.93917
   A11        1.92337   0.00000   0.00001   0.00001   0.00003   1.92340
   A12        1.94357   0.00000  -0.00001  -0.00004  -0.00005   1.94351
   A13        3.14451  -0.00002   0.00000  -0.00050  -0.00050   3.14401
   A14        3.05153   0.00001   0.00095   0.00005   0.00100   3.05253
    D1       -2.76573   0.00000  -0.00023   0.00003  -0.00020  -2.76593
    D2       -0.65210   0.00000  -0.00021   0.00008  -0.00013  -0.65223
    D3        1.43011   0.00000  -0.00024   0.00001  -0.00023   1.42988
    D4       -0.91931   0.00000   0.00021   0.00003   0.00024  -0.91907
    D5        1.19432   0.00001   0.00023   0.00008   0.00031   1.19463
    D6       -3.00666   0.00000   0.00019   0.00002   0.00021  -3.00644
    D7        0.92830  -0.00001  -0.00029   0.00004  -0.00025   0.92805
    D8        3.04194   0.00000  -0.00027   0.00009  -0.00018   3.04175
    D9       -1.15904  -0.00001  -0.00031   0.00002  -0.00028  -1.15933
         Item               Value     Threshold  Converged?
 Maximum Force            0.000023     0.000450     YES
 RMS     Force            0.000007     0.000300     YES
 Maximum Displacement     0.001403     0.001800     YES
 RMS     Displacement     0.000486     0.001200     YES
 Predicted change in Energy=-2.087086D-08
 Optimization completed.
    -- Stationary point found.
                           ----------------------------
                           !   Optimized Parameters   !
                           ! (Angstroms and Degrees)  !
 --------------------------                            --------------------------
 ! Name  Definition              Value          Derivative Info.                !
 --------------------------------------------------------------------------------
 ! R1    R(1,2)                  1.1425         -DE/DX =    0.0                 !
 ! R2    R(1,3)                  1.4532         -DE/DX =    0.0                 !
 ! R3    R(1,7)                  3.0            -DE/DX =   -0.0024              !
 ! R4    R(1,8)                  2.5            -DE/DX =   -0.0125              !
 ! R5    R(3,4)                  1.0883         -DE/DX =    0.0                 !
 ! R6    R(3,5)                  1.0965         -DE/DX =    0.0                 !
 ! R7    R(3,6)                  1.0978         -DE/DX =    0.0                 !
 ! R8    R(8,9)                  1.1754         -DE/DX =    0.0                 !
 ! A1    A(2,1,3)              155.1549         -DE/DX =    0.0                 !
 ! A2    A(2,1,7)               97.6815         -DE/DX =    0.0                 !
 ! A3    A(2,1,8)              105.6338         -DE/DX =    0.0                 !
 ! A4    A(3,1,7)               88.7785         -DE/DX =    0.0                 !
 ! A5    A(3,1,8)               95.4729         -DE/DX =    0.0                 !
 ! A6    A(7,1,8)              105.9036         -DE/DX =    0.0                 !
 ! A7    A(1,3,4)              110.3237         -DE/DX =    0.0                 !
 ! A8    A(1,3,5)              107.1988         -DE/DX =    0.0                 !
 ! A9    A(1,3,6)              106.5129         -DE/DX =    0.0                 !
 ! A10   A(4,3,5)              111.1034         -DE/DX =    0.0                 !
 ! A11   A(4,3,6)              110.2008         -DE/DX =    0.0                 !
 ! A12   A(5,3,6)              111.3582         -DE/DX =    0.0                 !
 ! A13   L(1,8,9,6,-1)         180.1673         -DE/DX =    0.0                 !
 ! A14   L(1,8,9,6,-2)         174.8398         -DE/DX =    0.0                 !
 ! D1    D(2,1,3,4)           -158.4648         -DE/DX =    0.0                 !
 ! D2    D(2,1,3,5)            -37.3623         -DE/DX =    0.0                 !
 ! D3    D(2,1,3,6)             81.9393         -DE/DX =    0.0                 !
 ! D4    D(7,1,3,4)            -52.6728         -DE/DX =    0.0                 !
 ! D5    D(7,1,3,5)             68.4297         -DE/DX =    0.0                 !
 ! D6    D(7,1,3,6)           -172.2687         -DE/DX =    0.0                 !
 ! D7    D(8,1,3,4)             53.1875         -DE/DX =    0.0                 !
 ! D8    D(8,1,3,5)            174.2901         -DE/DX =    0.0                 !
 ! D9    D(8,1,3,6)            -66.4083         -DE/DX =    0.0                 !
 --------------------------------------------------------------------------------
 Lowest energy point so far.  Saving SCF results.
 Largest change from initial coordinates is atom    4       0.395 Angstoms.
 GradGradGradGradGradGradGradGradGradGradGradGradGradGradGradGradGradGrad

 Leave Link  103 at Wed Jan  8 02:36:41 2020, MaxMem=  4294967296 cpu:              63.4 elap:               4.3
 (Enter /home/cwagen/sw/g16/g16/l202.exe)
                          Input orientation:                          
 ---------------------------------------------------------------------
 Center     Atomic      Atomic             Coordinates (Angstroms)
 Number     Number       Type             X           Y           Z
 ---------------------------------------------------------------------
      1          6           0       -0.140570   -0.545134   -0.409408
      2          8           0       -0.279106   -0.298677   -1.516369
      3          6           0       -0.319331   -1.332842    0.798590
      4          1           0       -0.148039   -0.717634    1.679801
      5          1           0       -1.343960   -1.723010    0.782576
      6          1           0        0.418350   -2.144616    0.753770
      7         17           0       -2.071842    1.467811    0.694330
      8          6           0        2.137977    0.292791    0.187338
      9          7           0        3.233172    0.658659    0.407168
 ---------------------------------------------------------------------
                    Distance matrix (angstroms):
                    1          2          3          4          5
     1  C    0.000000
     2  O    1.142495   0.000000
     3  C    1.453168   2.535774   0.000000
     4  H    2.096332   3.226175   1.088281   0.000000
     5  H    2.063096   2.906507   1.096518   1.801672   0.000000
     6  H    2.055168   3.007901   1.097797   1.792933   1.812269
     7  Cl   3.000000   3.349861   3.305423   3.073816   3.273979
     8  C    2.500000   3.015749   3.009098   2.911060   4.067142
     9  N    3.673969   4.117352   4.091402   3.866053   5.173337
                    6          7          8          9
     6  H    0.000000
     7  Cl   4.387963   0.000000
     8  C    3.036266   4.400033   0.000000
     9  N    3.987695   5.374046   1.175431   0.000000
 Stoichiometry    C3H3ClNO(1-)
 Framework group  C1[X(C3H3ClNO)]
 Deg. of freedom    21
 Full point group                 C1      NOp   1
 RotChk:  IX=2 Diff= 1.66D-15
 Largest Abelian subgroup         C1      NOp   1
 Largest concise Abelian subgroup C1      NOp   1
                         Standard orientation:                         
 ---------------------------------------------------------------------
 Center     Atomic      Atomic             Coordinates (Angstroms)
 Number     Number       Type             X           Y           Z
 ---------------------------------------------------------------------
      1          6           0        0.190056    0.937681    0.229100
      2          8           0        0.098544    1.168338    1.344321
      3          6           0        0.079791    1.226978   -1.190705
      4          1           0        0.038522    0.302130   -1.762813
      5          1           0       -0.832387    1.819078   -1.331065
      6          1           0        0.975017    1.801276   -1.462572
      7         17           0       -2.215189   -0.839076   -0.011591
      8          6           0        2.176237   -0.565067    0.012691
      9          7           0        3.144600   -1.228921   -0.043941
 ---------------------------------------------------------------------
 Rotational constants (GHZ):           3.1589133           1.1975209           1.0610154
 Leave Link  202 at Wed Jan  8 02:36:42 2020, MaxMem=  4294967296 cpu:               2.4 elap:               0.3
 (Enter /home/cwagen/sw/g16/g16/l601.exe)
 Copying SCF densities to generalized density rwf, IOpCl= 0 IROHF=0.

 **********************************************************************

            Population analysis using the SCF density.

 **********************************************************************

 Orbital symmetries:
       Occupied  (A) (A) (A) (A) (A) (A) (A) (A) (A) (A) (A) (A)
                 (A) (A) (A) (A) (A) (A) (A) (A) (A) (A) (A) (A)
                 (A) (A) (A)
       Virtual   (A) (A) (A) (A) (A) (A) (A) (A) (A) (A) (A) (A)
                 (A) (A) (A) (A) (A) (A) (A) (A) (A) (A) (A) (A)
                 (A) (A) (A) (A) (A) (A) (A) (A) (A) (A) (A) (A)
                 (A) (A) (A) (A) (A) (A) (A) (A) (A) (A) (A) (A)
                 (A) (A) (A) (A) (A) (A) (A) (A) (A) (A) (A) (A)
                 (A) (A) (A) (A) (A) (A) (A) (A) (A) (A) (A) (A)
                 (A) (A) (A) (A) (A) (A) (A) (A) (A) (A) (A) (A)
                 (A) (A) (A) (A) (A) (A) (A) (A) (A) (A) (A) (A)
                 (A)
 The electronic state is 1-A.
 Alpha  occ. eigenvalues -- -101.42256 -19.27112 -14.28462 -10.39041 -10.23370
 Alpha  occ. eigenvalues --  -10.15680  -9.33593  -7.09429  -7.09348  -7.09340
 Alpha  occ. eigenvalues --   -1.17695  -0.84146  -0.80513  -0.67506  -0.58078
 Alpha  occ. eigenvalues --   -0.51286  -0.50952  -0.50332  -0.42802  -0.42527
 Alpha  occ. eigenvalues --   -0.37203  -0.28858  -0.28835  -0.26557  -0.22314
 Alpha  occ. eigenvalues --   -0.21946  -0.21905
 Alpha virt. eigenvalues --   -0.06746  -0.04660   0.02115   0.04646   0.04739
 Alpha virt. eigenvalues --    0.05212   0.07029   0.07466   0.08568   0.09682
 Alpha virt. eigenvalues --    0.09907   0.10533   0.10903   0.12469   0.13294
 Alpha virt. eigenvalues --    0.13591   0.13727   0.16061   0.16706   0.18306
 Alpha virt. eigenvalues --    0.21182   0.22063   0.23383   0.24723   0.25142
 Alpha virt. eigenvalues --    0.25395   0.27926   0.28116   0.30948   0.32714
 Alpha virt. eigenvalues --    0.35405   0.39331   0.48725   0.55238   0.60545
 Alpha virt. eigenvalues --    0.64419   0.65396   0.68597   0.69888   0.70861
 Alpha virt. eigenvalues --    0.72781   0.74563   0.77690   0.80623   0.81255
 Alpha virt. eigenvalues --    0.84974   0.87007   0.93744   0.96421   0.97636
 Alpha virt. eigenvalues --    0.98709   0.99038   0.99723   1.00360   1.02207
 Alpha virt. eigenvalues --    1.02620   1.06226   1.13167   1.16008   1.19290
 Alpha virt. eigenvalues --    1.22755   1.24015   1.25756   1.37959   1.39332
 Alpha virt. eigenvalues --    1.41765   1.47935   1.51777   1.58811   1.59078
 Alpha virt. eigenvalues --    1.59939   1.61871   1.71999   1.81667   1.82922
 Alpha virt. eigenvalues --    1.86363   1.96516   2.01283   2.01778   2.04792
 Alpha virt. eigenvalues --    2.22506   2.23303   2.30531   2.50528   2.64674
 Alpha virt. eigenvalues --    2.65282   2.68075   2.71238   2.95240   3.08627
 Alpha virt. eigenvalues --    3.23025   4.01686   4.18768   4.27164   4.32032
 Alpha virt. eigenvalues --    4.41585   4.53342
          Condensed to atoms (all electrons):
               1          2          3          4          5          6
     1  C    5.180617   0.472443  -0.169021  -0.067110  -0.079289  -0.016597
     2  O    0.472443   7.765786   0.005737   0.005289   0.000642  -0.002726
     3  C   -0.169021   0.005737   5.881625   0.402601   0.380789   0.349546
     4  H   -0.067110   0.005289   0.402601   0.371570  -0.016557  -0.018324
     5  H   -0.079289   0.000642   0.380789  -0.016557   0.414400  -0.019871
     6  H   -0.016597  -0.002726   0.349546  -0.018324  -0.019871   0.410917
     7  Cl   0.143726  -0.041790  -0.066236  -0.007133  -0.005196   0.004237
     8  C   -0.070340  -0.049758  -0.110534  -0.006458   0.019641  -0.017227
     9  N   -0.001594   0.000435  -0.003874  -0.000235  -0.000107  -0.000186
               7          8          9
     1  C    0.143726  -0.070340  -0.001594
     2  O   -0.041790  -0.049758   0.000435
     3  C   -0.066236  -0.110534  -0.003874
     4  H   -0.007133  -0.006458  -0.000235
     5  H   -0.005196   0.019641  -0.000107
     6  H    0.004237  -0.017227  -0.000186
     7  Cl  17.909946  -0.052085  -0.000376
     8  C   -0.052085   5.838655   0.654204
     9  N   -0.000376   0.654204   6.993145
 Mulliken charges:
               1
     1  C    0.607163
     2  O   -0.156060
     3  C   -0.670634
     4  H    0.336356
     5  H    0.305548
     6  H    0.310231
     7  Cl  -0.885093
     8  C   -0.206097
     9  N   -0.641414
 Sum of Mulliken charges =  -1.00000
 Mulliken charges with hydrogens summed into heavy atoms:
               1
     1  C    0.607163
     2  O   -0.156060
     3  C    0.281501
     7  Cl  -0.885093
     8  C   -0.206097
     9  N   -0.641414
 Electronic spatial extent (au):  <R**2>=           1106.5764
 Charge=             -1.0000 electrons
 Dipole moment (field-independent basis, Debye):
    X=             -0.0947    Y=             10.7073    Z=             -2.8248  Tot=             11.0741
 Quadrupole moment (field-independent basis, Debye-Ang):
   XX=            -98.9166   YY=            -49.8728   ZZ=            -44.2782
   XY=              3.9713   XZ=              0.0714   YZ=             -3.9181
 Traceless Quadrupole moment (field-independent basis, Debye-Ang):
   XX=            -34.5607   YY=             14.4830   ZZ=             20.0777
   XY=              3.9713   XZ=              0.0714   YZ=             -3.9181
 Octapole moment (field-independent basis, Debye-Ang**2):
  XXX=            -53.0893  YYY=             38.2245  ZZZ=             -3.9710  XYY=             -8.9583
  XXY=             66.0757  XXZ=              1.7238  XZZ=             -0.5785  YZZ=              9.4858
  YYZ=             -4.5730  XYZ=             -0.9286
 Hexadecapole moment (field-independent basis, Debye-Ang**3):
 XXXX=          -1591.9390 YYYY=           -344.2414 ZZZZ=           -181.1333 XXXY=             94.6936
 XXXZ=              4.9249 YYYX=             22.0895 YYYZ=             -6.7607 ZZZX=             -0.3302
 ZZZY=             -3.3725 XXYY=           -312.0269 XXZZ=           -223.9527 YYZZ=            -84.0720
 XXYZ=             -4.5467 YYXZ=              0.3074 ZZXY=              2.5638
 N-N= 2.167168280635D+02 E-N=-2.110260129642D+03  KE= 7.023766499524D+02
 No NMR shielding tensors so no spin-rotation constants.
 Leave Link  601 at Wed Jan  8 02:36:43 2020, MaxMem=  4294967296 cpu:              13.6 elap:               1.0
 (Enter /home/cwagen/sw/g16/g16/l9999.exe)
 1\1\GINC-NODE082\FOpt\RB3LYP\6-31+G(d)\C3H3Cl1N1O1(1-)\CWAGEN\08-Jan-2
 020\0\\#p opt=modredundant b3lyp/6-31+g(d) scrf=(smd, solvent=tetrahyd
 rofuran)\\title\\-1,1\C,-0.1405695339,-0.5451341275,-0.4094081253\O,-0
 .2791060203,-0.2986766783,-1.5163689192\C,-0.3193306688,-1.3328418491,
 0.7985895628\H,-0.1480386662,-0.7176336001,1.6798010205\H,-1.343959638
 9,-1.7230096849,0.7825758424\H,0.4183504061,-2.144615851,0.7537697311\
 Cl,-2.0718420531,1.4678111847,0.6943298844\C,2.1379774292,0.2927907035
 ,0.1873378314\N,3.233172396,0.6586593927,0.407167672\\Version=AS64L-G1
 6RevA.03\State=1-A\HF=-706.3943579\RMSD=5.417e-09\RMSF=3.382e-03\Dipol
 e=-1.0117516,-4.199335,-0.5695312\Quadrupole=-25.0747914,12.8823771,12
 .1924143,5.4520077,1.3705658,-3.6644317\PG=C01 [X(C3H3Cl1N1O1)]\\@


 WORK FAITHFULLY FOR EIGHT HOURS A DAY AND DON'T WORRY.
 IN TIME YOU MAY BECOME BOSS AND WORK TWELVE HOURS A DAY
 AND HAVE ALL THE WORRY.
 Job cpu time:       0 days  3 hours 36 minutes 10.0 seconds.
 Elapsed time:       0 days  0 hours 15 minutes 56.8 seconds.
 File lengths (MBytes):  RWF=     43 Int=      0 D2E=      0 Chk=      3 Scr=      1
 Normal termination of Gaussian 16 at Wed Jan  8 02:36:43 2020.
