 Entering Gaussian System, Link 0=g16
 Input=scan_270_170.gjf
 Output=scan_270_170.out
 Initial command:
 /home/cwagen/sw/g16/g16/l1.exe "/scratch/users/cwagen/cwagen_scan_270_170/Gau-38998.inp" -scrdir="/scratch/users/cwagen/cwagen_scan_270_170/"
 Entering Link 1 = /home/cwagen/sw/g16/g16/l1.exe PID=     38999.
  
 Copyright (c) 1988,1990,1992,1993,1995,1998,2003,2009,2016,
            Gaussian, Inc.  All Rights Reserved.
  
 This is part of the Gaussian(R) 16 program.  It is based on
 the Gaussian(R) 09 system (copyright 2009, Gaussian, Inc.),
 the Gaussian(R) 03 system (copyright 2003, Gaussian, Inc.),
 the Gaussian(R) 98 system (copyright 1998, Gaussian, Inc.),
 the Gaussian(R) 94 system (copyright 1995, Gaussian, Inc.),
 the Gaussian 92(TM) system (copyright 1992, Gaussian, Inc.),
 the Gaussian 90(TM) system (copyright 1990, Gaussian, Inc.),
 the Gaussian 88(TM) system (copyright 1988, Gaussian, Inc.),
 the Gaussian 86(TM) system (copyright 1986, Carnegie Mellon
 University), and the Gaussian 82(TM) system (copyright 1983,
 Carnegie Mellon University). Gaussian is a federally registered
 trademark of Gaussian, Inc.
  
 This software contains proprietary and confidential information,
 including trade secrets, belonging to Gaussian, Inc.
  
 This software is provided under written license and may be
 used, copied, transmitted, or stored only in accord with that
 written license.
  
 The following legend is applicable only to US Government
 contracts under FAR:
  
                    RESTRICTED RIGHTS LEGEND
  
 Use, reproduction and disclosure by the US Government is
 subject to restrictions as set forth in subparagraphs (a)
 and (c) of the Commercial Computer Software - Restricted
 Rights clause in FAR 52.227-19.
  
 Gaussian, Inc.
 340 Quinnipiac St., Bldg. 40, Wallingford CT 06492
  
  
 ---------------------------------------------------------------
 Warning -- This program may not be used in any manner that
 competes with the business of Gaussian, Inc. or will provide
 assistance to any competitor of Gaussian, Inc.  The licensee
 of this program is prohibited from giving any competitor of
 Gaussian, Inc. access to this program.  By using this program,
 the user acknowledges that Gaussian, Inc. is engaged in the
 business of creating and licensing software in the field of
 computational chemistry and represents and warrants to the
 licensee that it is not a competitor of Gaussian, Inc. and that
 it will not use this program in any manner prohibited above.
 ---------------------------------------------------------------
  

 Cite this work as:
 Gaussian 16, Revision A.03,
 M. J. Frisch, G. W. Trucks, H. B. Schlegel, G. E. Scuseria, 
 M. A. Robb, J. R. Cheeseman, G. Scalmani, V. Barone, 
 G. A. Petersson, H. Nakatsuji, X. Li, M. Caricato, A. V. Marenich, 
 J. Bloino, B. G. Janesko, R. Gomperts, B. Mennucci, H. P. Hratchian, 
 J. V. Ortiz, A. F. Izmaylov, J. L. Sonnenberg, D. Williams-Young, 
 F. Ding, F. Lipparini, F. Egidi, J. Goings, B. Peng, A. Petrone, 
 T. Henderson, D. Ranasinghe, V. G. Zakrzewski, J. Gao, N. Rega, 
 G. Zheng, W. Liang, M. Hada, M. Ehara, K. Toyota, R. Fukuda, 
 J. Hasegawa, M. Ishida, T. Nakajima, Y. Honda, O. Kitao, H. Nakai, 
 T. Vreven, K. Throssell, J. A. Montgomery, Jr., J. E. Peralta, 
 F. Ogliaro, M. J. Bearpark, J. J. Heyd, E. N. Brothers, K. N. Kudin, 
 V. N. Staroverov, T. A. Keith, R. Kobayashi, J. Normand, 
 K. Raghavachari, A. P. Rendell, J. C. Burant, S. S. Iyengar, 
 J. Tomasi, M. Cossi, J. M. Millam, M. Klene, C. Adamo, R. Cammi, 
 J. W. Ochterski, R. L. Martin, K. Morokuma, O. Farkas, 
 J. B. Foresman, and D. J. Fox, Gaussian, Inc., Wallingford CT, 2016.
 
 ******************************************
 Gaussian 16:  AS64L-G16RevA.03 25-Dec-2016
                 8-Jan-2020 
 ******************************************
 %nprocshared=16
 Will use up to   16 processors via shared memory.
 %mem=32GB
 ----------------------------------------------------------------------
 #p opt=modredundant b3lyp/6-31+g(d) scrf=(smd, solvent=tetrahydrofuran
 )
 ----------------------------------------------------------------------
 1/18=120,19=15,26=3,38=1/1,3;
 2/9=110,12=2,17=6,18=5,40=1/2;
 3/5=1,6=6,7=11,11=2,25=1,30=1,70=32201,71=1,72=20,74=-5/1,2,3;
 4//1;
 5/5=2,38=5,53=20/2;
 6/7=2,8=2,9=2,10=2,28=1/1;
 7//1,2,3,16;
 1/18=20,19=15,26=3/3(2);
 2/9=110/2;
 99//99;
 2/9=110/2;
 3/5=1,6=6,7=11,11=2,25=1,30=1,70=32205,71=1,72=20,74=-5/1,2,3;
 4/5=5,16=3,69=1/1;
 5/5=2,38=5,53=20/2;
 7//1,2,3,16;
 1/18=20,19=15,26=3/3(-5);
 2/9=110/2;
 6/7=2,8=2,9=2,10=2,19=2,28=1/1;
 99/9=1/99;
 Leave Link    1 at Wed Jan  8 01:38:27 2020, MaxMem=  4294967296 cpu:              18.2 elap:               2.0
 (Enter /home/cwagen/sw/g16/g16/l101.exe)
 -----
 title
 -----
 Symbolic Z-matrix:
 Charge = -1 Multiplicity = 1
 6                    -0.19426  -0.292    -0.21291 
 8                    -0.25532  -0.66526  -1.45426 
 6                    -0.33095  -1.45422   0.81632 
 1                    -0.18039  -1.13044   1.85373 
 1                    -1.34067  -1.87301   0.71427 
 1                     0.39707  -2.23395   0.57058 
 17                   -1.81086   1.75879   0.4733 
 6                     1.38184   0.25991   0.10534 
 7                     2.51642   0.54021   0.13564 
 
 Add virtual bond connecting atoms Cl7        and C1         Dist= 5.10D+00.
 The following ModRedundant input section has been read:
 B       1       7 F                                                           
 B       1       8 F                                                           
 
 ITRead=  0  0  0  0  0  0  0  0  0
 MicOpt= -1 -1 -1 -1 -1 -1 -1 -1 -1
 NAtoms=      9 NQM=        9 NQMF=       0 NMMI=      0 NMMIF=      0
                NMic=       0 NMicF=      0.
                    Isotopes and Nuclear Properties:
 (Nuclear quadrupole moments (NQMom) in fm**2, nuclear magnetic moments (NMagM)
  in nuclear magnetons)

  Atom         1           2           3           4           5           6           7           8           9
 IAtWgt=          12          16          12           1           1           1          35          12          14
 AtmWgt=  12.0000000  15.9949146  12.0000000   1.0078250   1.0078250   1.0078250  34.9688527  12.0000000  14.0030740
 NucSpn=           0           0           0           1           1           1           3           0           2
 AtZEff=   0.0000000   0.0000000   0.0000000   0.0000000   0.0000000   0.0000000   0.0000000   0.0000000   0.0000000
 NQMom=    0.0000000   0.0000000   0.0000000   0.0000000   0.0000000   0.0000000  -8.1650000   0.0000000   2.0440000
 NMagM=    0.0000000   0.0000000   0.0000000   2.7928460   2.7928460   2.7928460   0.8218740   0.0000000   0.4037610
 AtZNuc=   6.0000000   8.0000000   6.0000000   1.0000000   1.0000000   1.0000000  17.0000000   6.0000000   7.0000000
 Leave Link  101 at Wed Jan  8 01:38:27 2020, MaxMem=  4294967296 cpu:               7.1 elap:               0.6
 (Enter /home/cwagen/sw/g16/g16/l103.exe)

 GradGradGradGradGradGradGradGradGradGradGradGradGradGradGradGradGradGrad
 Berny optimization.
 Initialization pass.
                           ----------------------------
                           !    Initial Parameters    !
                           ! (Angstroms and Degrees)  !
 --------------------------                            --------------------------
 ! Name  Definition              Value          Derivative Info.                !
 --------------------------------------------------------------------------------
 ! R1    R(1,2)                  1.2977         estimate D2E/DX2                !
 ! R2    R(1,3)                  1.5584         estimate D2E/DX2                !
 ! R3    R(1,7)                  2.7            Frozen                          !
 ! R4    R(1,8)                  1.7            Frozen                          !
 ! R5    R(3,4)                  1.0971         estimate D2E/DX2                !
 ! R6    R(3,5)                  1.0979         estimate D2E/DX2                !
 ! R7    R(3,6)                  1.0947         estimate D2E/DX2                !
 ! R8    R(8,9)                  1.1691         estimate D2E/DX2                !
 ! A1    A(2,1,3)              114.4006         estimate D2E/DX2                !
 ! A2    A(2,1,7)              115.6846         estimate D2E/DX2                !
 ! A3    A(2,1,8)              108.426          estimate D2E/DX2                !
 ! A4    A(3,1,7)              110.248          estimate D2E/DX2                !
 ! A5    A(3,1,8)              101.5248         estimate D2E/DX2                !
 ! A6    A(7,1,8)              105.1256         estimate D2E/DX2                !
 ! A7    A(1,3,4)              113.1005         estimate D2E/DX2                !
 ! A8    A(1,3,5)              107.683          estimate D2E/DX2                !
 ! A9    A(1,3,6)              108.9421         estimate D2E/DX2                !
 ! A10   A(4,3,5)              109.0662         estimate D2E/DX2                !
 ! A11   A(4,3,6)              109.3417         estimate D2E/DX2                !
 ! A12   A(5,3,6)              108.6067         estimate D2E/DX2                !
 ! A13   L(1,8,9,6,-1)         177.5628         estimate D2E/DX2                !
 ! A14   L(1,8,9,6,-2)         167.0914         estimate D2E/DX2                !
 ! D1    D(2,1,3,4)            174.4714         estimate D2E/DX2                !
 ! D2    D(2,1,3,5)            -64.9488         estimate D2E/DX2                !
 ! D3    D(2,1,3,6)             52.6633         estimate D2E/DX2                !
 ! D4    D(7,1,3,4)            -53.1046         estimate D2E/DX2                !
 ! D5    D(7,1,3,5)             67.4752         estimate D2E/DX2                !
 ! D6    D(7,1,3,6)           -174.9127         estimate D2E/DX2                !
 ! D7    D(8,1,3,4)             57.938          estimate D2E/DX2                !
 ! D8    D(8,1,3,5)            178.5177         estimate D2E/DX2                !
 ! D9    D(8,1,3,6)            -63.8702         estimate D2E/DX2                !
 --------------------------------------------------------------------------------
 Trust Radius=3.00D-01 FncErr=1.00D-07 GrdErr=1.00D-06 EigMax=2.50D+02 EigMin=1.00D-04
 Number of steps in this run=     41 maximum allowed number of steps=    100.
 GradGradGradGradGradGradGradGradGradGradGradGradGradGradGradGradGradGrad

 Leave Link  103 at Wed Jan  8 01:38:28 2020, MaxMem=  4294967296 cpu:               1.2 elap:               0.2
 (Enter /home/cwagen/sw/g16/g16/l202.exe)
                          Input orientation:                          
 ---------------------------------------------------------------------
 Center     Atomic      Atomic             Coordinates (Angstroms)
 Number     Number       Type             X           Y           Z
 ---------------------------------------------------------------------
      1          6           0       -0.194263   -0.291999   -0.212908
      2          8           0       -0.255321   -0.665256   -1.454255
      3          6           0       -0.330945   -1.454221    0.816316
      4          1           0       -0.180394   -1.130438    1.853734
      5          1           0       -1.340665   -1.873010    0.714272
      6          1           0        0.397068   -2.233949    0.570583
      7         17           0       -1.810859    1.758790    0.473300
      8          6           0        1.381844    0.259912    0.105339
      9          7           0        2.516415    0.540210    0.135642
 ---------------------------------------------------------------------
                    Distance matrix (angstroms):
                    1          2          3          4          5
     1  C    0.000000
     2  O    1.297687   0.000000
     3  C    1.558443   2.404928   0.000000
     4  H    2.230287   3.341377   1.097150   0.000000
     5  H    2.161827   2.709087   1.097876   1.787740   0.000000
     6  H    2.175937   2.643176   1.094698   1.788205   1.780629
     7  Cl   2.700000   3.465713   3.554046   3.593279   3.670030
     8  C    1.700000   2.443067   2.525349   2.725903   3.511725
     9  N    2.856892   3.415178   3.542391   3.607726   4.586448
                    6          7          8          9
     6  H    0.000000
     7  Cl   4.563592   0.000000
     8  C    2.721319   3.546179   0.000000
     9  N    3.518062   4.508242   1.169075   0.000000
 Stoichiometry    C3H3ClNO(1-)
 Framework group  C1[X(C3H3ClNO)]
 Deg. of freedom    21
 Full point group                 C1      NOp   1
 Largest Abelian subgroup         C1      NOp   1
 Largest concise Abelian subgroup C1      NOp   1
                         Standard orientation:                         
 ---------------------------------------------------------------------
 Center     Atomic      Atomic             Coordinates (Angstroms)
 Number     Number       Type             X           Y           Z
 ---------------------------------------------------------------------
      1          6           0        0.342530    0.494202    0.209456
      2          8           0        0.641611    0.972467    1.378132
      3          6           0        0.697461    1.434942   -0.981248
      4          1           0        0.525610    0.972514   -1.961230
      5          1           0        0.072582    2.333422   -0.894126
      6          1           0        1.748185    1.730954   -0.899272
      7         17           0       -2.173739   -0.446685   -0.060956
      8          6           0        1.350404   -0.839534   -0.099312
      9          7           0        2.161705   -1.680091   -0.143936
 ---------------------------------------------------------------------
 Rotational constants (GHZ):           3.2567634           1.5921780           1.3403167
 Leave Link  202 at Wed Jan  8 01:38:28 2020, MaxMem=  4294967296 cpu:               2.2 elap:               0.2
 (Enter /home/cwagen/sw/g16/g16/l301.exe)
 Standard basis: 6-31+G(d) (6D, 7F)
 Ernie: Thresh=  0.10000D-02 Tol=  0.10000D-05 Strict=F.
 There are   124 symmetry adapted cartesian basis functions of A   symmetry.
 There are   124 symmetry adapted basis functions of A   symmetry.
   124 basis functions,   228 primitive gaussians,   124 cartesian basis functions
    27 alpha electrons       27 beta electrons
       nuclear repulsion energy       229.7886678244 Hartrees.
 IExCor=  402 DFT=T Ex+Corr=B3LYP ExCW=0 ScaHFX=  0.200000
 ScaDFX=  0.800000  0.720000  1.000000  0.810000 ScalE2=  1.000000  1.000000
 IRadAn=      5 IRanWt=     -1 IRanGd=            0 ICorTp=0 IEmpDi=  4
 NAtoms=    9 NActive=    9 NUniq=    9 SFac= 1.00D+00 NAtFMM=   60 NAOKFM=F Big=F
 Integral buffers will be    131072 words long.
 Raffenetti 2 integral format.
 Two-electron integral symmetry is turned on.
 ------------------------------------------------------------------------------
 Polarizable Continuum Model (PCM)
 =================================
 Model                : PCM.
 Atomic radii         : SMD-Coulomb.
 Polarization charges : Total charges.
 Charge compensation  : None.
 Solution method      : On-the-fly selection.
 Cavity type          : VdW (van der Waals Surface) (Alpha=1.000).
 Cavity algorithm     : GePol (No added spheres)
                        Default sphere list used, NSphG=    9.
                        Lebedev-Laikov grids with approx.  5.0 points / Ang**2.
                        Smoothing algorithm: York/Karplus (Gamma=1.0000).
                        Polarization charges: spherical gaussians, with
                                              point-specific exponents (IZeta= 3).
                        Self-potential: point-specific (ISelfS= 7).
                        Self-field    : sphere-specific E.n sum rule (ISelfD= 2).
 1st derivatives      : Analytical E(r).r(x)/FMM algorithm (CHGder, D1EAlg=3).
                        Cavity 1st derivative terms included.
 Solvent              : TetraHydroFuran, Eps=   7.425700 Eps(inf)=   1.974025
 ------------------------------------------------------------------------------
 Spheres list:
 ISph  on   Nord     Re0    Alpha      Xe            Ye            Ze
    1   C      1    1.8500  1.000      0.342530      0.494202      0.209456
    2   O      2    2.2940  1.000      0.641611      0.972467      1.378132
    3   C      3    1.8500  1.000      0.697461      1.434942     -0.981248
    4   H      4    1.2000  1.000      0.525610      0.972514     -1.961230
    5   H      5    1.2000  1.000      0.072582      2.333422     -0.894126
    6   H      6    1.2000  1.000      1.748185      1.730954     -0.899272
    7  Cl      7    2.3800  1.000     -2.173739     -0.446685     -0.060956
    8   C      8    1.8500  1.000      1.350404     -0.839534     -0.099312
    9   N      9    1.8900  1.000      2.161705     -1.680091     -0.143936
 ------------------------------------------------------------------------------
 GePol: Number of generator spheres                  =       9
 GePol: Total number of spheres                      =       9
 GePol: Number of exposed spheres                    =       9 (100.00%)
 GePol: Number of points                             =    1237
 GePol: Average weight of points                     =       0.14
 GePol: Minimum weight of points                     =   0.13D-07
 GePol: Maximum weight of points                     =    0.18138
 GePol: Number of points with low weight             =      37
 GePol: Fraction of low-weight points (<1% of avg)   =       2.99%
 GePol: Cavity surface area                          =    168.992 Ang**2
 GePol: Cavity volume                                =    152.673 Ang**3
 ------------------------------------------------------------------------------
 Atomic radii for non-electrostatic terms: SMD-CDS.
 ------------------------------------------------------------------------------
 PCM non-electrostatic energy =        -0.0010432683 Hartrees.
 Nuclear repulsion after PCM non-electrostatic terms =      229.7876245560 Hartrees.
 Leave Link  301 at Wed Jan  8 01:38:28 2020, MaxMem=  4294967296 cpu:               2.3 elap:               0.3
 (Enter /home/cwagen/sw/g16/g16/l302.exe)
 NPDir=0 NMtPBC=     1 NCelOv=     1 NCel=       1 NClECP=     1 NCelD=      1
         NCelK=      1 NCelE2=     1 NClLst=     1 CellRange=     0.0.
 One-electron integrals computed using PRISM.
 One-electron integral symmetry used in STVInt
 NBasis=   124 RedAO= T EigKep=  8.29D-05  NBF=   124
 NBsUse=   124 1.00D-06 EigRej= -1.00D+00 NBFU=   124
 Precomputing XC quadrature grid using
 IXCGrd= 4 IRadAn=           5 IRanWt=          -1 IRanGd=           0 AccXCQ= 0.00D+00.
 Generated NRdTot=       0 NPtTot=           0 NUsed=           0 NTot=          32
 NSgBfM=   124   124   124   124   124 MxSgAt=     9 MxSgA2=     9.
 Leave Link  302 at Wed Jan  8 01:38:31 2020, MaxMem=  4294967296 cpu:              33.9 elap:               2.9
 (Enter /home/cwagen/sw/g16/g16/l303.exe)
 DipDrv:  MaxL=1.
 Leave Link  303 at Wed Jan  8 01:38:32 2020, MaxMem=  4294967296 cpu:               4.8 elap:               0.8
 (Enter /home/cwagen/sw/g16/g16/l401.exe)
 ExpMin= 4.38D-02 ExpMax= 2.52D+04 ExpMxC= 3.78D+03 IAcc=3 IRadAn=         5 AccDes= 0.00D+00
 Harris functional with IExCor=  402 and IRadAn=       5 diagonalized for initial guess.
 HarFok:  IExCor=  402 AccDes= 0.00D+00 IRadAn=         5 IDoV= 1 UseB2=F ITyADJ=14
 ICtDFT=  3500011 ScaDFX=  1.000000  1.000000  1.000000  1.000000
 FoFCou: FMM=F IPFlag=           0 FMFlag=      100000 FMFlg1=           0
         NFxFlg=           0 DoJE=T BraDBF=F KetDBF=T FulRan=T
         wScrn=  0.000000 ICntrl=       500 IOpCl=  0 I1Cent=   200000004 NGrid=           0
         NMat0=    1 NMatS0=      1 NMatT0=    0 NMatD0=    1 NMtDS0=    0 NMtDT0=    0
 Petite list used in FoFCou.
 Harris En= -706.377032181689    
 JPrj=0 DoOrth=F DoCkMO=F.
 Leave Link  401 at Wed Jan  8 01:38:34 2020, MaxMem=  4294967296 cpu:              27.3 elap:               2.1
 (Enter /home/cwagen/sw/g16/g16/l502.exe)
 Keep R1 ints in memory in canonical form, NReq=45236517.
 FoFCou: FMM=F IPFlag=           0 FMFlag=           0 FMFlg1=           0
         NFxFlg=           0 DoJE=F BraDBF=F KetDBF=F FulRan=T
         wScrn=  0.000000 ICntrl=       600 IOpCl=  0 I1Cent=           0 NGrid=           0
         NMat0=    1 NMatS0=   7750 NMatT0=    0 NMatD0=    1 NMtDS0=    0 NMtDT0=    0
 Symmetry not used in FoFCou.
 Two-electron integral symmetry not used.
 Closed shell SCF:
 Using DIIS extrapolation, IDIIS=  1040.
 NGot=  4294967296 LenX=  4264898079 LenY=  4264882262
 Requested convergence on RMS density matrix=1.00D-08 within 128 cycles.
 Requested convergence on MAX density matrix=1.00D-06.
 Requested convergence on             energy=1.00D-06.
 No special actions if energy rises.

 Cycle   1  Pass 1  IDiag  1:
 Inv3:  Mode=1 IEnd=     4590507.
 Iteration    1 A*A^-1 deviation from unit magnitude is 5.33D-15 for   1225.
 Iteration    1 A*A^-1 deviation from orthogonality  is 2.04D-15 for   1220   1044.
 Iteration    1 A^-1*A deviation from unit magnitude is 4.88D-15 for   1236.
 Iteration    1 A^-1*A deviation from orthogonality  is 1.75D-15 for   1220   1044.
 E= -706.216963944274    
 DIIS: error= 2.37D-02 at cycle   1 NSaved=   1.
 NSaved= 1 IEnMin= 1 EnMin= -706.216963944274     IErMin= 1 ErrMin= 2.37D-02
 ErrMax= 2.37D-02  0.00D+00 EMaxC= 1.00D-01 BMatC= 2.05D-01 BMatP= 2.05D-01
 IDIUse=3 WtCom= 7.63D-01 WtEn= 2.37D-01
 Coeff-Com:  0.100D+01
 Coeff-En:   0.100D+01
 Coeff:      0.100D+01
 Gap=     0.152 Goal=   None    Shift=    0.000
 GapD=    0.152 DampG=1.000 DampE=0.500 DampFc=0.5000 IDamp=-1.
 Damping current iteration by 5.00D-01
 RMSDP=1.35D-02 MaxDP=3.39D-01              OVMax= 4.33D-01

 Cycle   2  Pass 1  IDiag  1:
 E= -706.170808883165     Delta-E=        0.046155061109 Rises=F Damp=T
 DIIS: error= 2.47D-02 at cycle   2 NSaved=   2.
 NSaved= 2 IEnMin= 1 EnMin= -706.216963944274     IErMin= 1 ErrMin= 2.37D-02
 ErrMax= 2.47D-02  0.00D+00 EMaxC= 1.00D-01 BMatC= 1.06D-01 BMatP= 2.05D-01
 IDIUse=3 WtCom= 7.53D-01 WtEn= 2.47D-01
 Coeff-Com:  0.399D+00 0.601D+00
 Coeff-En:   0.577D+00 0.423D+00
 Coeff:      0.443D+00 0.557D+00
 Gap=     0.143 Goal=   None    Shift=    0.000
 RMSDP=5.02D-03 MaxDP=1.52D-01 DE= 4.62D-02 OVMax= 2.49D-01

 Cycle   3  Pass 1  IDiag  1:
 E= -706.359316166397     Delta-E=       -0.188507283232 Rises=F Damp=F
 DIIS: error= 1.27D-02 at cycle   3 NSaved=   3.
 NSaved= 3 IEnMin= 3 EnMin= -706.359316166397     IErMin= 3 ErrMin= 1.27D-02
 ErrMax= 1.27D-02  0.00D+00 EMaxC= 1.00D-01 BMatC= 3.69D-02 BMatP= 1.06D-01
 IDIUse=3 WtCom= 8.73D-01 WtEn= 1.27D-01
 Coeff-Com:  0.177D+00 0.355D+00 0.467D+00
 Coeff-En:   0.000D+00 0.000D+00 0.100D+01
 Coeff:      0.155D+00 0.310D+00 0.535D+00
 Gap=     0.162 Goal=   None    Shift=    0.000
 RMSDP=2.31D-03 MaxDP=4.93D-02 DE=-1.89D-01 OVMax= 7.65D-02

 Cycle   4  Pass 1  IDiag  1:
 E= -706.389941945133     Delta-E=       -0.030625778737 Rises=F Damp=F
 DIIS: error= 5.90D-03 at cycle   4 NSaved=   4.
 NSaved= 4 IEnMin= 4 EnMin= -706.389941945133     IErMin= 4 ErrMin= 5.90D-03
 ErrMax= 5.90D-03  0.00D+00 EMaxC= 1.00D-01 BMatC= 7.49D-03 BMatP= 3.69D-02
 IDIUse=3 WtCom= 9.41D-01 WtEn= 5.90D-02
 Coeff-Com:  0.534D-01 0.969D-01 0.315D+00 0.534D+00
 Coeff-En:   0.000D+00 0.000D+00 0.158D+00 0.842D+00
 Coeff:      0.502D-01 0.912D-01 0.306D+00 0.553D+00
 Gap=     0.152 Goal=   None    Shift=    0.000
 RMSDP=1.14D-03 MaxDP=3.12D-02 DE=-3.06D-02 OVMax= 4.10D-02

 Cycle   5  Pass 1  IDiag  1:
 E= -706.394526762878     Delta-E=       -0.004584817744 Rises=F Damp=F
 DIIS: error= 3.18D-03 at cycle   5 NSaved=   5.
 NSaved= 5 IEnMin= 5 EnMin= -706.394526762878     IErMin= 5 ErrMin= 3.18D-03
 ErrMax= 3.18D-03  0.00D+00 EMaxC= 1.00D-01 BMatC= 2.16D-03 BMatP= 7.49D-03
 IDIUse=3 WtCom= 9.68D-01 WtEn= 3.18D-02
 Coeff-Com:  0.906D-02 0.763D-02 0.146D+00 0.417D+00 0.420D+00
 Coeff-En:   0.000D+00 0.000D+00 0.000D+00 0.257D+00 0.743D+00
 Coeff:      0.877D-02 0.739D-02 0.141D+00 0.412D+00 0.430D+00
 Gap=     0.153 Goal=   None    Shift=    0.000
 RMSDP=5.07D-04 MaxDP=1.49D-02 DE=-4.58D-03 OVMax= 1.56D-02

 Cycle   6  Pass 1  IDiag  1:
 E= -706.396469159886     Delta-E=       -0.001942397008 Rises=F Damp=F
 DIIS: error= 5.42D-04 at cycle   6 NSaved=   6.
 NSaved= 6 IEnMin= 6 EnMin= -706.396469159886     IErMin= 6 ErrMin= 5.42D-04
 ErrMax= 5.42D-04  0.00D+00 EMaxC= 1.00D-01 BMatC= 9.12D-05 BMatP= 2.16D-03
 IDIUse=3 WtCom= 9.95D-01 WtEn= 5.42D-03
 Coeff-Com:  0.189D-02-0.320D-02 0.538D-01 0.172D+00 0.248D+00 0.527D+00
 Coeff-En:   0.000D+00 0.000D+00 0.000D+00 0.000D+00 0.000D+00 0.100D+01
 Coeff:      0.188D-02-0.318D-02 0.535D-01 0.171D+00 0.246D+00 0.530D+00
 Gap=     0.154 Goal=   None    Shift=    0.000
 RMSDP=8.36D-05 MaxDP=1.78D-03 DE=-1.94D-03 OVMax= 2.64D-03

 Cycle   7  Pass 1  IDiag  1:
 E= -706.396548601365     Delta-E=       -0.000079441479 Rises=F Damp=F
 DIIS: error= 1.48D-04 at cycle   7 NSaved=   7.
 NSaved= 7 IEnMin= 7 EnMin= -706.396548601365     IErMin= 7 ErrMin= 1.48D-04
 ErrMax= 1.48D-04  0.00D+00 EMaxC= 1.00D-01 BMatC= 4.81D-06 BMatP= 9.12D-05
 IDIUse=3 WtCom= 9.99D-01 WtEn= 1.48D-03
 Coeff-Com:  0.725D-03-0.277D-02 0.138D-01 0.404D-01 0.832D-01 0.237D+00
 Coeff-Com:  0.628D+00
 Coeff-En:   0.000D+00 0.000D+00 0.000D+00 0.000D+00 0.000D+00 0.000D+00
 Coeff-En:   0.100D+01
 Coeff:      0.724D-03-0.277D-02 0.137D-01 0.403D-01 0.831D-01 0.237D+00
 Coeff:      0.628D+00
 Gap=     0.153 Goal=   None    Shift=    0.000
 RMSDP=5.37D-05 MaxDP=1.94D-03 DE=-7.94D-05 OVMax= 1.32D-03

 Cycle   8  Pass 1  IDiag  1:
 E= -706.396553083757     Delta-E=       -0.000004482392 Rises=F Damp=F
 DIIS: error= 4.23D-05 at cycle   8 NSaved=   8.
 NSaved= 8 IEnMin= 8 EnMin= -706.396553083757     IErMin= 8 ErrMin= 4.23D-05
 ErrMax= 4.23D-05  0.00D+00 EMaxC= 1.00D-01 BMatC= 6.93D-07 BMatP= 4.81D-06
 IDIUse=1 WtCom= 1.00D+00 WtEn= 0.00D+00
 Coeff-Com:  0.304D-03-0.152D-02 0.277D-02 0.553D-02 0.246D-01 0.838D-01
 Coeff-Com:  0.348D+00 0.536D+00
 Coeff:      0.304D-03-0.152D-02 0.277D-02 0.553D-02 0.246D-01 0.838D-01
 Coeff:      0.348D+00 0.536D+00
 Gap=     0.154 Goal=   None    Shift=    0.000
 RMSDP=1.20D-05 MaxDP=3.85D-04 DE=-4.48D-06 OVMax= 5.09D-04

 Cycle   9  Pass 1  IDiag  1:
 E= -706.396553768436     Delta-E=       -0.000000684679 Rises=F Damp=F
 DIIS: error= 1.44D-05 at cycle   9 NSaved=   9.
 NSaved= 9 IEnMin= 9 EnMin= -706.396553768436     IErMin= 9 ErrMin= 1.44D-05
 ErrMax= 1.44D-05  0.00D+00 EMaxC= 1.00D-01 BMatC= 5.51D-08 BMatP= 6.93D-07
 IDIUse=1 WtCom= 1.00D+00 WtEn= 0.00D+00
 Coeff-Com:  0.101D-03-0.277D-03-0.576D-03-0.325D-02-0.121D-02-0.132D-02
 Coeff-Com:  0.218D-01 0.200D+00 0.784D+00
 Coeff:      0.101D-03-0.277D-03-0.576D-03-0.325D-02-0.121D-02-0.132D-02
 Coeff:      0.218D-01 0.200D+00 0.784D+00
 Gap=     0.153 Goal=   None    Shift=    0.000
 RMSDP=4.20D-06 MaxDP=1.06D-04 DE=-6.85D-07 OVMax= 1.18D-04

 Cycle  10  Pass 1  IDiag  1:
 E= -706.396553835135     Delta-E=       -0.000000066699 Rises=F Damp=F
 DIIS: error= 2.05D-06 at cycle  10 NSaved=  10.
 NSaved=10 IEnMin=10 EnMin= -706.396553835135     IErMin=10 ErrMin= 2.05D-06
 ErrMax= 2.05D-06  0.00D+00 EMaxC= 1.00D-01 BMatC= 7.33D-10 BMatP= 5.51D-08
 IDIUse=1 WtCom= 1.00D+00 WtEn= 0.00D+00
 Coeff-Com:  0.172D-04-0.275D-04-0.172D-03-0.724D-03-0.100D-02-0.342D-02
 Coeff-Com: -0.105D-01 0.207D-01 0.194D+00 0.801D+00
 Coeff:      0.172D-04-0.275D-04-0.172D-03-0.724D-03-0.100D-02-0.342D-02
 Coeff:     -0.105D-01 0.207D-01 0.194D+00 0.801D+00
 Gap=     0.153 Goal=   None    Shift=    0.000
 RMSDP=7.06D-07 MaxDP=1.72D-05 DE=-6.67D-08 OVMax= 2.21D-05

 Cycle  11  Pass 1  IDiag  1:
 E= -706.396553836023     Delta-E=       -0.000000000888 Rises=F Damp=F
 DIIS: error= 7.27D-07 at cycle  11 NSaved=  11.
 NSaved=11 IEnMin=11 EnMin= -706.396553836023     IErMin=11 ErrMin= 7.27D-07
 ErrMax= 7.27D-07  0.00D+00 EMaxC= 1.00D-01 BMatC= 1.69D-10 BMatP= 7.33D-10
 IDIUse=1 WtCom= 1.00D+00 WtEn= 0.00D+00
 Coeff-Com:  0.301D-05 0.912D-05-0.570D-04-0.184D-03-0.503D-03-0.182D-02
 Coeff-Com: -0.727D-02-0.473D-02 0.404D-01 0.398D+00 0.576D+00
 Coeff:      0.301D-05 0.912D-05-0.570D-04-0.184D-03-0.503D-03-0.182D-02
 Coeff:     -0.727D-02-0.473D-02 0.404D-01 0.398D+00 0.576D+00
 Gap=     0.153 Goal=   None    Shift=    0.000
 RMSDP=1.97D-07 MaxDP=5.42D-06 DE=-8.88D-10 OVMax= 4.21D-06

 Cycle  12  Pass 1  IDiag  1:
 E= -706.396553836225     Delta-E=       -0.000000000202 Rises=F Damp=F
 DIIS: error= 1.45D-07 at cycle  12 NSaved=  12.
 NSaved=12 IEnMin=12 EnMin= -706.396553836225     IErMin=12 ErrMin= 1.45D-07
 ErrMax= 1.45D-07  0.00D+00 EMaxC= 1.00D-01 BMatC= 3.86D-12 BMatP= 1.69D-10
 IDIUse=1 WtCom= 1.00D+00 WtEn= 0.00D+00
 Coeff-Com: -0.109D-05 0.444D-05 0.132D-05 0.188D-04-0.413D-04-0.188D-03
 Coeff-Com: -0.121D-02-0.344D-02-0.569D-02 0.562D-01 0.164D+00 0.791D+00
 Coeff:     -0.109D-05 0.444D-05 0.132D-05 0.188D-04-0.413D-04-0.188D-03
 Coeff:     -0.121D-02-0.344D-02-0.569D-02 0.562D-01 0.164D+00 0.791D+00
 Gap=     0.153 Goal=   None    Shift=    0.000
 RMSDP=5.75D-08 MaxDP=1.72D-06 DE=-2.02D-10 OVMax= 1.79D-06

 Cycle  13  Pass 1  IDiag  1:
 E= -706.396553836232     Delta-E=       -0.000000000007 Rises=F Damp=F
 DIIS: error= 3.31D-08 at cycle  13 NSaved=  13.
 NSaved=13 IEnMin=13 EnMin= -706.396553836232     IErMin=13 ErrMin= 3.31D-08
 ErrMax= 3.31D-08  0.00D+00 EMaxC= 1.00D-01 BMatC= 2.73D-13 BMatP= 3.86D-12
 IDIUse=1 WtCom= 1.00D+00 WtEn= 0.00D+00
 Coeff-Com: -0.313D-06 0.127D-06 0.227D-05 0.717D-05 0.178D-04 0.588D-04
 Coeff-Com:  0.161D-03-0.216D-03-0.310D-02-0.103D-01-0.151D-01 0.918D-01
 Coeff-Com:  0.937D+00
 Coeff:     -0.313D-06 0.127D-06 0.227D-05 0.717D-05 0.178D-04 0.588D-04
 Coeff:      0.161D-03-0.216D-03-0.310D-02-0.103D-01-0.151D-01 0.918D-01
 Coeff:      0.937D+00
 Gap=     0.153 Goal=   None    Shift=    0.000
 RMSDP=1.30D-08 MaxDP=2.36D-07 DE=-7.39D-12 OVMax= 5.48D-07

 Cycle  14  Pass 1  IDiag  1:
 E= -706.396553836231     Delta-E=        0.000000000001 Rises=F Damp=F
 DIIS: error= 6.23D-09 at cycle  14 NSaved=  14.
 NSaved=14 IEnMin=13 EnMin= -706.396553836232     IErMin=14 ErrMin= 6.23D-09
 ErrMax= 6.23D-09  0.00D+00 EMaxC= 1.00D-01 BMatC= 4.57D-15 BMatP= 2.73D-13
 IDIUse=1 WtCom= 1.00D+00 WtEn= 0.00D+00
 Coeff-Com:  0.188D-07-0.142D-06 0.296D-06 0.305D-06 0.362D-05 0.134D-04
 Coeff-Com:  0.590D-04 0.652D-04-0.116D-03-0.267D-02-0.747D-02-0.161D-01
 Coeff-Com:  0.974D-01 0.929D+00
 Coeff:      0.188D-07-0.142D-06 0.296D-06 0.305D-06 0.362D-05 0.134D-04
 Coeff:      0.590D-04 0.652D-04-0.116D-03-0.267D-02-0.747D-02-0.161D-01
 Coeff:      0.974D-01 0.929D+00
 Gap=     0.153 Goal=   None    Shift=    0.000
 RMSDP=3.32D-09 MaxDP=9.37D-08 DE= 1.25D-12 OVMax= 1.48D-07

 Error on total polarization charges =  0.02284
 SCF Done:  E(RB3LYP) =  -706.396553836     A.U. after   14 cycles
            NFock= 14  Conv=0.33D-08     -V/T= 2.0062
 KE= 7.020438298275D+02 PE=-2.137173436191D+03 EE= 4.989454279708D+02
 SMD-CDS (non-electrostatic) energy       (kcal/mol) =      -0.65
 (included in total energy above)
 Leave Link  502 at Wed Jan  8 01:39:13 2020, MaxMem=  4294967296 cpu:             542.3 elap:              38.7
 (Enter /home/cwagen/sw/g16/g16/l601.exe)
 Copying SCF densities to generalized density rwf, IOpCl= 0 IROHF=0.

 **********************************************************************

            Population analysis using the SCF density.

 **********************************************************************

 Orbital symmetries:
       Occupied  (A) (A) (A) (A) (A) (A) (A) (A) (A) (A) (A) (A)
                 (A) (A) (A) (A) (A) (A) (A) (A) (A) (A) (A) (A)
                 (A) (A) (A)
       Virtual   (A) (A) (A) (A) (A) (A) (A) (A) (A) (A) (A) (A)
                 (A) (A) (A) (A) (A) (A) (A) (A) (A) (A) (A) (A)
                 (A) (A) (A) (A) (A) (A) (A) (A) (A) (A) (A) (A)
                 (A) (A) (A) (A) (A) (A) (A) (A) (A) (A) (A) (A)
                 (A) (A) (A) (A) (A) (A) (A) (A) (A) (A) (A) (A)
                 (A) (A) (A) (A) (A) (A) (A) (A) (A) (A) (A) (A)
                 (A) (A) (A) (A) (A) (A) (A) (A) (A) (A) (A) (A)
                 (A) (A) (A) (A) (A) (A) (A) (A) (A) (A) (A) (A)
                 (A)
 The electronic state is 1-A.
 Alpha  occ. eigenvalues -- -101.44988 -19.15121 -14.33402 -10.32871 -10.22677
 Alpha  occ. eigenvalues --  -10.18725  -9.36261  -7.12271  -7.11928  -7.11925
 Alpha  occ. eigenvalues --   -1.00785  -0.89272  -0.73209  -0.69696  -0.58519
 Alpha  occ. eigenvalues --   -0.47053  -0.42674  -0.41829  -0.39011  -0.36591
 Alpha  occ. eigenvalues --   -0.35170  -0.32677  -0.32184  -0.25856  -0.24136
 Alpha  occ. eigenvalues --   -0.23697  -0.23608
 Alpha virt. eigenvalues --   -0.08265   0.01845   0.03326   0.03884   0.05116
 Alpha virt. eigenvalues --    0.06160   0.06962   0.08749   0.09201   0.09706
 Alpha virt. eigenvalues --    0.09923   0.10843   0.11262   0.12933   0.13434
 Alpha virt. eigenvalues --    0.14120   0.15013   0.16683   0.17020   0.20793
 Alpha virt. eigenvalues --    0.23111   0.24374   0.24390   0.25900   0.26192
 Alpha virt. eigenvalues --    0.27177   0.28712   0.29722   0.33261   0.34043
 Alpha virt. eigenvalues --    0.35854   0.37108   0.41476   0.61321   0.64140
 Alpha virt. eigenvalues --    0.65099   0.66836   0.67676   0.69029   0.72685
 Alpha virt. eigenvalues --    0.73390   0.75417   0.77473   0.79573   0.80593
 Alpha virt. eigenvalues --    0.83388   0.88742   0.94306   0.95863   0.96845
 Alpha virt. eigenvalues --    0.97504   0.98664   0.98779   0.99850   1.01356
 Alpha virt. eigenvalues --    1.05669   1.11698   1.12860   1.14928   1.23500
 Alpha virt. eigenvalues --    1.30371   1.31616   1.32541   1.36032   1.45043
 Alpha virt. eigenvalues --    1.46437   1.54202   1.55770   1.57146   1.63540
 Alpha virt. eigenvalues --    1.68346   1.69901   1.78754   1.84765   1.89988
 Alpha virt. eigenvalues --    1.93786   1.97344   2.01004   2.01877   2.12128
 Alpha virt. eigenvalues --    2.18086   2.24723   2.30508   2.42479   2.48971
 Alpha virt. eigenvalues --    2.66369   2.70861   2.73700   2.82134   2.97659
 Alpha virt. eigenvalues --    3.14305   4.07217   4.13461   4.30285   4.31223
 Alpha virt. eigenvalues --    4.38870   4.56326
          Condensed to atoms (all electrons):
               1          2          3          4          5          6
     1  C    5.520789   0.558292   0.081102  -0.083223  -0.083803   0.021839
     2  O    0.558292   8.159398  -0.148956   0.008820   0.002637  -0.013985
     3  C    0.081102  -0.148956   5.786418   0.375106   0.388618   0.366835
     4  H   -0.083223   0.008820   0.375106   0.472263  -0.020492  -0.029626
     5  H   -0.083803   0.002637   0.388618  -0.020492   0.463387  -0.023080
     6  H    0.021839  -0.013985   0.366835  -0.029626  -0.023080   0.454913
     7  Cl   0.149181  -0.032778  -0.085191   0.004202  -0.000847   0.000645
     8  C   -0.504660  -0.156610  -0.055482   0.032486   0.031408  -0.037756
     9  N   -0.068817  -0.010125   0.010090  -0.001346  -0.000015  -0.000299
               7          8          9
     1  C    0.149181  -0.504660  -0.068817
     2  O   -0.032778  -0.156610  -0.010125
     3  C   -0.085191  -0.055482   0.010090
     4  H    0.004202   0.032486  -0.001346
     5  H   -0.000847   0.031408  -0.000015
     6  H    0.000645  -0.037756  -0.000299
     7  Cl  17.707733  -0.033338  -0.010553
     8  C   -0.033338   5.930184   0.600107
     9  N   -0.010553   0.600107   7.044141
 Mulliken charges:
               1
     1  C    0.409300
     2  O   -0.366693
     3  C   -0.718540
     4  H    0.241809
     5  H    0.242187
     6  H    0.260513
     7  Cl  -0.699054
     8  C    0.193661
     9  N   -0.563184
 Sum of Mulliken charges =  -1.00000
 Mulliken charges with hydrogens summed into heavy atoms:
               1
     1  C    0.409300
     2  O   -0.366693
     3  C    0.025970
     7  Cl  -0.699054
     8  C    0.193661
     9  N   -0.563184
 Electronic spatial extent (au):  <R**2>=            912.5654
 Charge=             -1.0000 electrons
 Dipole moment (field-independent basis, Debye):
    X=              3.6464    Y=              4.4902    Z=             -2.8655  Tot=              6.4552
 Quadrupole moment (field-independent basis, Debye-Ang):
   XX=            -71.4152   YY=            -52.9284   ZZ=            -49.5456
   XY=              4.7685   XZ=             -2.2055   YZ=             -4.7553
 Traceless Quadrupole moment (field-independent basis, Debye-Ang):
   XX=            -13.4521   YY=              5.0347   ZZ=              8.4174
   XY=              4.7685   XZ=             -2.2055   YZ=             -4.7553
 Octapole moment (field-independent basis, Debye-Ang**2):
  XXX=             19.2352  YYY=             22.9922  ZZZ=             -5.3007  XYY=            -11.3646
  XXY=             30.4666  XXZ=              2.2310  XZZ=              0.3497  YZZ=             -0.5028
  YYZ=             -2.4544  XYZ=             -4.0185
 Hexadecapole moment (field-independent basis, Debye-Ang**3):
 XXXX=           -911.4117 YYYY=           -375.3326 ZZZZ=           -188.5854 XXXY=             46.0009
 XXXZ=              2.1572 YYYX=             34.4641 YYYZ=             -8.1114 ZZZX=             -3.1183
 ZZZY=             -5.3523 XXYY=           -227.9743 XXZZ=           -165.3376 YYZZ=            -94.4899
 XXYZ=             -5.9889 YYXZ=              0.4573 ZZXY=              0.4673
 N-N= 2.297876245560D+02 E-N=-2.137173436153D+03  KE= 7.020438298275D+02
 No NMR shielding tensors so no spin-rotation constants.
 Leave Link  601 at Wed Jan  8 01:39:14 2020, MaxMem=  4294967296 cpu:              17.6 elap:               1.5
 (Enter /home/cwagen/sw/g16/g16/l701.exe)
 ... and contract with generalized density number  0.
 Compute integral first derivatives.
 D1PCM: PCM CHGder 1st derivatives, ID1Alg=3 FixD1E=F DoIter=F DoCFld=F I1PDM=0.
 GePol: Maximum number of non-zero 1st derivatives   =     391
 Leave Link  701 at Wed Jan  8 01:39:19 2020, MaxMem=  4294967296 cpu:              58.0 elap:               4.5
 (Enter /home/cwagen/sw/g16/g16/l702.exe)
 L702 exits ... SP integral derivatives will be done elsewhere.
 Leave Link  702 at Wed Jan  8 01:39:19 2020, MaxMem=  4294967296 cpu:               1.4 elap:               0.1
 (Enter /home/cwagen/sw/g16/g16/l703.exe)
 Integral derivatives from FoFJK, PRISM(SPDF).
 Compute integral first derivatives, UseDBF=F ICtDFT=           0.
 Calling FoFJK, ICntrl=      2127 FMM=F ISym2X=0 I1Cent= 0 IOpClX= 0 NMat=1 NMatS=1 NMatT=0.
 FoFJK:  IHMeth= 1 ICntrl=    2127 DoSepK=F KAlg= 0 I1Cent=           0 FoldK=F
 IRaf=         0 NMat=       1 IRICut=       1 DoRegI=T DoRafI=F ISym2E= 0 IDoP0=0 IntGTp=1.
 FoFCou: FMM=F IPFlag=           0 FMFlag=      100000 FMFlg1=         800
         NFxFlg=           0 DoJE=F BraDBF=F KetDBF=F FulRan=T
         wScrn=  0.000000 ICntrl=      2127 IOpCl=  0 I1Cent=           0 NGrid=           0
         NMat0=    1 NMatS0=      1 NMatT0=    0 NMatD0=    1 NMtDS0=    0 NMtDT0=    0
 Symmetry not used in FoFCou.
 Leave Link  703 at Wed Jan  8 01:39:23 2020, MaxMem=  4294967296 cpu:              41.7 elap:               3.7
 (Enter /home/cwagen/sw/g16/g16/l716.exe)
 Dipole        = 1.43461781D+00 1.76659808D+00-1.12739240D+00
 ***** Axes restored to original set *****
 -------------------------------------------------------------------
 Center     Atomic                   Forces (Hartrees/Bohr)
 Number     Number              X              Y              Z
 -------------------------------------------------------------------
      1        6           0.082242429   -0.073751407   -0.066057533
      2        8          -0.016393581    0.049064546    0.075953348
      3        6          -0.032353238    0.021737277    0.006922742
      4        1          -0.000757097    0.001370399   -0.002758628
      5        1           0.001374859   -0.001831701    0.002323973
      6        1           0.002012532    0.004851148   -0.004355388
      7       17           0.010166547   -0.012178284   -0.002282448
      8        6          -0.037602257    0.014886237   -0.012217511
      9        7          -0.008690195   -0.004148214    0.002471446
 -------------------------------------------------------------------
 Cartesian Forces:  Max     0.082242429 RMS     0.032652272
 Leave Link  716 at Wed Jan  8 01:39:23 2020, MaxMem=  4294967296 cpu:               0.9 elap:               0.1
 (Enter /home/cwagen/sw/g16/g16/l103.exe)

 GradGradGradGradGradGradGradGradGradGradGradGradGradGradGradGradGradGrad
 Berny optimization.
 FormGI is forming the generalized inverse of G from B-inverse, IUseBI=4.
 Internal  Forces:  Max     0.085995512 RMS     0.022751725
 Search for a local minimum.
 Step number   1 out of a maximum of   41
 All quantities printed in internal units (Hartrees-Bohrs-Radians)
 RMS Force = .22048D-01 SwitMx=.10000D-02 MixMth= 1
 Mixed Optimization -- RFO/linear search
 Second derivative matrix not updated -- first step.
 ITU=  0
     Eigenvalues ---    0.00230   0.04746   0.04746   0.05330   0.05908
     Eigenvalues ---    0.07453   0.10176   0.16000   0.16000   0.16000
     Eigenvalues ---    0.25000   0.25000   0.25000   0.26946   0.33918
     Eigenvalues ---    0.33999   0.34275   0.67840   1.220341000.00000
     Eigenvalues --- 1000.000001000.000001000.000001000.000001000.00000
     Eigenvalues --- 1000.000001000.000001000.000001000.000001000.00000
     Eigenvalues --- 1000.00000
 RFO step:  Lambda=-4.25003486D-02 EMin= 2.30000000D-03
 Linear search not attempted -- first point.
 Maximum step size (   0.300) exceeded in Quadratic search.
    -- Step size scaled by   0.874
 Iteration  1 RMS(Cart)=  0.09360983 RMS(Int)=  0.00867529
 Iteration  2 RMS(Cart)=  0.00836767 RMS(Int)=  0.00595788
 Iteration  3 RMS(Cart)=  0.00002398 RMS(Int)=  0.00595783
 Iteration  4 RMS(Cart)=  0.00000063 RMS(Int)=  0.00595783
 Iteration  1 RMS(Cart)=  0.00000000 RMS(Int)=  0.00000000
 ITry= 1 IFail=0 DXMaxC= 2.10D-01 DCOld= 1.00D+10 DXMaxT= 3.00D-01 DXLimC= 3.00D+00 Rises=F
 Variable       Old X    -DE/DX   Delta X   Delta X   Delta X     New X
                                 (Linear)    (Quad)   (Total)
    R1        2.45227  -0.08600   0.00000  -0.10425  -0.10425   2.34802
    R2        2.94503  -0.01537   0.00000  -0.04307  -0.04307   2.90196
    R3        5.10226  -0.01592   0.00000   0.00000   0.00000   5.10226
    R4        3.21253  -0.04118   0.00000   0.00000   0.00000   3.21253
    R5        2.07331  -0.00231   0.00000  -0.00527  -0.00527   2.06804
    R6        2.07468  -0.00079   0.00000  -0.00180  -0.00180   2.07289
    R7        2.06868  -0.00138   0.00000  -0.00313  -0.00313   2.06555
    R8        2.20923  -0.00937   0.00000  -0.00648  -0.00648   2.20275
    A1        1.99667   0.03938   0.00000   0.12479   0.11343   2.11010
    A2        2.01908  -0.01883   0.00000  -0.09068  -0.08667   1.93241
    A3        1.89239  -0.00997   0.00000   0.04641   0.02468   1.91707
    A4        1.92419  -0.02592   0.00000  -0.11051  -0.10542   1.81877
    A5        1.77194   0.04000   0.00000   0.14523   0.13201   1.90395
    A6        1.83479  -0.02171   0.00000  -0.09652  -0.09023   1.74456
    A7        1.97398  -0.00225   0.00000  -0.01061  -0.01093   1.96305
    A8        1.87942   0.00683   0.00000   0.03339   0.03358   1.91300
    A9        1.90140  -0.00991   0.00000  -0.04590  -0.04602   1.85538
   A10        1.90356  -0.00110   0.00000   0.00092   0.00089   1.90445
   A11        1.90837   0.00479   0.00000   0.01364   0.01299   1.92136
   A12        1.89554   0.00180   0.00000   0.00957   0.01004   1.90558
   A13        3.09905  -0.00549   0.00000  -0.05333  -0.05333   3.04572
   A14        2.91629   0.00404   0.00000   0.03926   0.03926   2.95555
    D1        3.04510   0.01427   0.00000   0.10153   0.10754  -3.13054
    D2       -1.13357   0.01617   0.00000   0.11891   0.12489  -1.00868
    D3        0.91915   0.01674   0.00000   0.12402   0.12955   1.04870
    D4       -0.92685  -0.00130   0.00000  -0.01912  -0.01805  -0.94490
    D5        1.17766   0.00059   0.00000  -0.00174  -0.00070   1.17696
    D6       -3.05280   0.00117   0.00000   0.00336   0.00396  -3.04884
    D7        1.01121  -0.01613   0.00000  -0.09876  -0.10533   0.90587
    D8        3.11572  -0.01423   0.00000  -0.08138  -0.08799   3.02774
    D9       -1.11475  -0.01366   0.00000  -0.07627  -0.08332  -1.19807
         Item               Value     Threshold  Converged?
 Maximum Force            0.085996     0.000450     NO 
 RMS     Force            0.022048     0.000300     NO 
 Maximum Displacement     0.209514     0.001800     NO 
 RMS     Displacement     0.091646     0.001200     NO 
 Predicted change in Energy=-2.495878D-02
 Lowest energy point so far.  Saving SCF results.
 GradGradGradGradGradGradGradGradGradGradGradGradGradGradGradGradGradGrad

 Leave Link  103 at Wed Jan  8 01:39:31 2020, MaxMem=  4294967296 cpu:              94.0 elap:               8.1
 (Enter /home/cwagen/sw/g16/g16/l202.exe)
                          Input orientation:                          
 ---------------------------------------------------------------------
 Center     Atomic      Atomic             Coordinates (Angstroms)
 Number     Number       Type             X           Y           Z
 ---------------------------------------------------------------------
      1          6           0       -0.116156   -0.384697   -0.233856
      2          8           0       -0.250623   -0.627907   -1.444897
      3          6           0       -0.371465   -1.470486    0.821657
      4          1           0       -0.223598   -1.104642    1.842399
      5          1           0       -1.396204   -1.848517    0.720443
      6          1           0        0.332349   -2.278740    0.606930
      7         17           0       -1.717717    1.656265    0.514127
      8          6           0        1.406077    0.317684    0.048043
      9          7           0        2.520219    0.651080    0.127175
 ---------------------------------------------------------------------
                    Distance matrix (angstroms):
                    1          2          3          4          5
     1  C    0.000000
     2  O    1.242518   0.000000
     3  C    1.535652   2.421117   0.000000
     4  H    2.200159   3.321795   1.094358   0.000000
     5  H    2.166097   2.736958   1.096924   1.785256   0.000000
     6  H    2.120254   2.697239   1.093040   1.792754   1.784901
     7  Cl   2.700000   3.347772   3.418119   3.408710   3.525540
     8  C    1.700000   2.422327   2.637364   2.810439   3.605181
     9  N    2.855460   3.432897   3.653106   3.681451   4.683836
                    6          7          8          9
     6  H    0.000000
     7  Cl   4.437978   0.000000
     8  C    2.864728   3.430323   0.000000
     9  N    3.687924   4.372668   1.165645   0.000000
 Stoichiometry    C3H3ClNO(1-)
 Framework group  C1[X(C3H3ClNO)]
 Deg. of freedom    21
 Full point group                 C1      NOp   1
 RotChk:  IX=0 Diff= 9.49D-02
 Largest Abelian subgroup         C1      NOp   1
 Largest concise Abelian subgroup C1      NOp   1
                         Standard orientation:                         
 ---------------------------------------------------------------------
 Center     Atomic      Atomic             Coordinates (Angstroms)
 Number     Number       Type             X           Y           Z
 ---------------------------------------------------------------------
      1          6           0        0.398389    0.554332    0.220173
      2          8           0        0.580740    0.943273    1.386075
      3          6           0        0.519017    1.525632   -0.963150
      4          1           0        0.320525    1.041014   -1.924070
      5          1           0       -0.182502    2.358166   -0.828983
      6          1           0        1.541754    1.910676   -0.941087
      7         17           0       -2.062723   -0.521676   -0.053928
      8          6           0        1.354682   -0.817279   -0.086725
      9          7           0        2.158297   -1.651951   -0.214211
 ---------------------------------------------------------------------
 Rotational constants (GHZ):           3.1572720           1.7021087           1.3991596
 Leave Link  202 at Wed Jan  8 01:39:31 2020, MaxMem=  4294967296 cpu:               1.1 elap:               0.1
 (Enter /home/cwagen/sw/g16/g16/l301.exe)
 Standard basis: 6-31+G(d) (6D, 7F)
 Ernie: Thresh=  0.10000D-02 Tol=  0.10000D-05 Strict=F.
 There are   124 symmetry adapted cartesian basis functions of A   symmetry.
 There are   124 symmetry adapted basis functions of A   symmetry.
   124 basis functions,   228 primitive gaussians,   124 cartesian basis functions
    27 alpha electrons       27 beta electrons
       nuclear repulsion energy       232.7614408492 Hartrees.
 IExCor=  402 DFT=T Ex+Corr=B3LYP ExCW=0 ScaHFX=  0.200000
 ScaDFX=  0.800000  0.720000  1.000000  0.810000 ScalE2=  1.000000  1.000000
 IRadAn=      5 IRanWt=     -1 IRanGd=            0 ICorTp=0 IEmpDi=  4
 NAtoms=    9 NActive=    9 NUniq=    9 SFac= 1.00D+00 NAtFMM=   60 NAOKFM=F Big=F
 Integral buffers will be    131072 words long.
 Raffenetti 2 integral format.
 Two-electron integral symmetry is turned on.
 ------------------------------------------------------------------------------
 Polarizable Continuum Model (PCM)
 =================================
 Model                : PCM.
 Atomic radii         : SMD-Coulomb.
 Polarization charges : Total charges.
 Charge compensation  : None.
 Solution method      : On-the-fly selection.
 Cavity type          : VdW (van der Waals Surface) (Alpha=1.000).
 Cavity algorithm     : GePol (No added spheres)
                        Default sphere list used, NSphG=    9.
                        Lebedev-Laikov grids with approx.  5.0 points / Ang**2.
                        Smoothing algorithm: York/Karplus (Gamma=1.0000).
                        Polarization charges: spherical gaussians, with
                                              point-specific exponents (IZeta= 3).
                        Self-potential: point-specific (ISelfS= 7).
                        Self-field    : sphere-specific E.n sum rule (ISelfD= 2).
 1st derivatives      : Analytical E(r).r(x)/FMM algorithm (CHGder, D1EAlg=3).
                        Cavity 1st derivative terms included.
 Solvent              : TetraHydroFuran, Eps=   7.425700 Eps(inf)=   1.974025
 ------------------------------------------------------------------------------
 Spheres list:
 ISph  on   Nord     Re0    Alpha      Xe            Ye            Ze
    1   C      1    1.8500  1.000      0.398389      0.554332      0.220173
    2   O      2    2.2940  1.000      0.580740      0.943273      1.386075
    3   C      3    1.8500  1.000      0.519017      1.525632     -0.963150
    4   H      4    1.2000  1.000      0.320525      1.041014     -1.924070
    5   H      5    1.2000  1.000     -0.182502      2.358166     -0.828983
    6   H      6    1.2000  1.000      1.541754      1.910676     -0.941087
    7  Cl      7    2.3800  1.000     -2.062723     -0.521676     -0.053928
    8   C      8    1.8500  1.000      1.354682     -0.817279     -0.086725
    9   N      9    1.8900  1.000      2.158297     -1.651951     -0.214211
 ------------------------------------------------------------------------------
 GePol: Number of generator spheres                  =       9
 GePol: Total number of spheres                      =       9
 GePol: Number of exposed spheres                    =       9 (100.00%)
 GePol: Number of points                             =    1218
 GePol: Average weight of points                     =       0.14
 GePol: Minimum weight of points                     =   0.15D-05
 GePol: Maximum weight of points                     =    0.18138
 GePol: Number of points with low weight             =      31
 GePol: Fraction of low-weight points (<1% of avg)   =       2.55%
 GePol: Cavity surface area                          =    167.017 Ang**2
 GePol: Cavity volume                                =    151.316 Ang**3
 ------------------------------------------------------------------------------
 Atomic radii for non-electrostatic terms: SMD-CDS.
 ------------------------------------------------------------------------------
 PCM non-electrostatic energy =        -0.0011411079 Hartrees.
 Nuclear repulsion after PCM non-electrostatic terms =      232.7602997413 Hartrees.
 Leave Link  301 at Wed Jan  8 01:39:31 2020, MaxMem=  4294967296 cpu:               2.4 elap:               0.3
 (Enter /home/cwagen/sw/g16/g16/l302.exe)
 NPDir=0 NMtPBC=     1 NCelOv=     1 NCel=       1 NClECP=     1 NCelD=      1
         NCelK=      1 NCelE2=     1 NClLst=     1 CellRange=     0.0.
 One-electron integrals computed using PRISM.
 One-electron integral symmetry used in STVInt
 NBasis=   124 RedAO= T EigKep=  7.75D-05  NBF=   124
 NBsUse=   124 1.00D-06 EigRej= -1.00D+00 NBFU=   124
 Precomputing XC quadrature grid using
 IXCGrd= 4 IRadAn=           5 IRanWt=          -1 IRanGd=           0 AccXCQ= 0.00D+00.
 Generated NRdTot=       0 NPtTot=           0 NUsed=           0 NTot=          32
 NSgBfM=   124   123   124   124   124 MxSgAt=     9 MxSgA2=     9.
 Leave Link  302 at Wed Jan  8 01:39:34 2020, MaxMem=  4294967296 cpu:              34.1 elap:               3.1
 (Enter /home/cwagen/sw/g16/g16/l303.exe)
 DipDrv:  MaxL=1.
 Leave Link  303 at Wed Jan  8 01:39:35 2020, MaxMem=  4294967296 cpu:               4.7 elap:               0.5
 (Enter /home/cwagen/sw/g16/g16/l401.exe)
 Initial guess from the checkpoint file:  "/scratch/users/cwagen/cwagen_scan_270_170/Gau-38999.chk"
 B after Tr=     0.000000    0.000000    0.000000
         Rot=    0.999676   -0.012368   -0.007340   -0.020988 Ang=  -2.92 deg.
 Guess basis will be translated and rotated to current coordinates.
 JPrj=2 DoOrth=T DoCkMO=T.
 Generating alternative initial guess.
 ExpMin= 4.38D-02 ExpMax= 2.52D+04 ExpMxC= 3.78D+03 IAcc=2 IRadAn=         4 AccDes= 0.00D+00
 Harris functional with IExCor=  402 and IRadAn=       4 diagonalized for initial guess.
 HarFok:  IExCor=  402 AccDes= 0.00D+00 IRadAn=         4 IDoV= 1 UseB2=F ITyADJ=14
 ICtDFT=  3500011 ScaDFX=  1.000000  1.000000  1.000000  1.000000
 FoFCou: FMM=F IPFlag=           0 FMFlag=      100000 FMFlg1=           0
         NFxFlg=           0 DoJE=T BraDBF=F KetDBF=T FulRan=T
         wScrn=  0.000000 ICntrl=       500 IOpCl=  0 I1Cent=   200000004 NGrid=           0
         NMat0=    1 NMatS0=      1 NMatT0=    0 NMatD0=    1 NMtDS0=    0 NMtDT0=    0
 Petite list used in FoFCou.
 Harris En= -706.403248597307    
 Leave Link  401 at Wed Jan  8 01:39:38 2020, MaxMem=  4294967296 cpu:              42.4 elap:               3.6
 (Enter /home/cwagen/sw/g16/g16/l502.exe)
 Keep R1 ints in memory in canonical form, NReq=45236517.
 FoFCou: FMM=F IPFlag=           0 FMFlag=           0 FMFlg1=           0
         NFxFlg=           0 DoJE=F BraDBF=F KetDBF=F FulRan=T
         wScrn=  0.000000 ICntrl=       600 IOpCl=  0 I1Cent=           0 NGrid=           0
         NMat0=    1 NMatS0=   7750 NMatT0=    0 NMatD0=    1 NMtDS0=    0 NMtDT0=    0
 Symmetry not used in FoFCou.
 Two-electron integral symmetry not used.
 Closed shell SCF:
 Using DIIS extrapolation, IDIIS=  1040.
 NGot=  4294967296 LenX=  4264898079 LenY=  4264882262
 Requested convergence on RMS density matrix=1.00D-08 within 128 cycles.
 Requested convergence on MAX density matrix=1.00D-06.
 Requested convergence on             energy=1.00D-06.
 No special actions if energy rises.

 Cycle   1  Pass 1  IDiag  1:
 Inv3:  Mode=1 IEnd=     4450572.
 Iteration    1 A*A^-1 deviation from unit magnitude is 4.22D-15 for   1201.
 Iteration    1 A*A^-1 deviation from orthogonality  is 1.67D-15 for   1218    908.
 Iteration    1 A^-1*A deviation from unit magnitude is 4.00D-15 for   1201.
 Iteration    1 A^-1*A deviation from orthogonality  is 1.33D-15 for   1218   1217.
 E= -706.407439402913    
 DIIS: error= 4.56D-03 at cycle   1 NSaved=   1.
 NSaved= 1 IEnMin= 1 EnMin= -706.407439402913     IErMin= 1 ErrMin= 4.56D-03
 ErrMax= 4.56D-03  0.00D+00 EMaxC= 1.00D-01 BMatC= 9.79D-03 BMatP= 9.79D-03
 IDIUse=3 WtCom= 9.54D-01 WtEn= 4.56D-02
 Coeff-Com:  0.100D+01
 Coeff-En:   0.100D+01
 Coeff:      0.100D+01
 Gap=     0.554 Goal=   None    Shift=    0.000
 GapD=    0.554 DampG=2.000 DampE=1.000 DampFc=2.0000 IDamp=-1.
 RMSDP=2.30D-03 MaxDP=5.40D-02              OVMax= 4.64D-02

 Cycle   2  Pass 1  IDiag  1:
 E= -706.423818014192     Delta-E=       -0.016378611279 Rises=F Damp=F
 DIIS: error= 1.35D-03 at cycle   2 NSaved=   2.
 NSaved= 2 IEnMin= 2 EnMin= -706.423818014192     IErMin= 2 ErrMin= 1.35D-03
 ErrMax= 1.35D-03  0.00D+00 EMaxC= 1.00D-01 BMatC= 5.40D-04 BMatP= 9.79D-03
 IDIUse=3 WtCom= 9.87D-01 WtEn= 1.35D-02
 Coeff-Com:  0.346D-01 0.965D+00
 Coeff-En:   0.000D+00 0.100D+01
 Coeff:      0.341D-01 0.966D+00
 Gap=     0.177 Goal=   None    Shift=    0.000
 RMSDP=6.03D-04 MaxDP=1.11D-02 DE=-1.64D-02 OVMax= 2.05D-02

 Cycle   3  Pass 1  IDiag  1:
 E= -706.423285804281     Delta-E=        0.000532209910 Rises=F Damp=F
 DIIS: error= 2.57D-03 at cycle   3 NSaved=   3.
 NSaved= 3 IEnMin= 2 EnMin= -706.423818014192     IErMin= 2 ErrMin= 1.35D-03
 ErrMax= 2.57D-03  0.00D+00 EMaxC= 1.00D-01 BMatC= 1.25D-03 BMatP= 5.40D-04
 IDIUse=3 WtCom= 1.65D-01 WtEn= 8.35D-01
 Coeff-Com: -0.326D-01 0.628D+00 0.405D+00
 Coeff-En:   0.000D+00 0.652D+00 0.348D+00
 Coeff:     -0.537D-02 0.648D+00 0.357D+00
 Gap=     0.171 Goal=   None    Shift=    0.000
 RMSDP=4.24D-04 MaxDP=1.22D-02 DE= 5.32D-04 OVMax= 1.28D-02

 Cycle   4  Pass 1  IDiag  1:
 E= -706.424363046550     Delta-E=       -0.001077242269 Rises=F Damp=F
 DIIS: error= 5.39D-04 at cycle   4 NSaved=   4.
 NSaved= 4 IEnMin= 4 EnMin= -706.424363046550     IErMin= 4 ErrMin= 5.39D-04
 ErrMax= 5.39D-04  0.00D+00 EMaxC= 1.00D-01 BMatC= 5.35D-05 BMatP= 5.40D-04
 IDIUse=3 WtCom= 9.95D-01 WtEn= 5.39D-03
 Coeff-Com: -0.237D-01 0.275D+00 0.216D+00 0.532D+00
 Coeff-En:   0.000D+00 0.000D+00 0.000D+00 0.100D+01
 Coeff:     -0.235D-01 0.274D+00 0.215D+00 0.535D+00
 Gap=     0.170 Goal=   None    Shift=    0.000
 RMSDP=9.84D-05 MaxDP=1.92D-03 DE=-1.08D-03 OVMax= 2.33D-03

 Cycle   5  Pass 1  IDiag  1:
 E= -706.424404192559     Delta-E=       -0.000041146009 Rises=F Damp=F
 DIIS: error= 1.42D-04 at cycle   5 NSaved=   5.
 NSaved= 5 IEnMin= 5 EnMin= -706.424404192559     IErMin= 5 ErrMin= 1.42D-04
 ErrMax= 1.42D-04  0.00D+00 EMaxC= 1.00D-01 BMatC= 6.57D-06 BMatP= 5.35D-05
 IDIUse=3 WtCom= 9.99D-01 WtEn= 1.42D-03
 Coeff-Com: -0.642D-02 0.628D-01 0.677D-01 0.286D+00 0.590D+00
 Coeff-En:   0.000D+00 0.000D+00 0.000D+00 0.772D-01 0.923D+00
 Coeff:     -0.642D-02 0.627D-01 0.676D-01 0.285D+00 0.591D+00
 Gap=     0.171 Goal=   None    Shift=    0.000
 RMSDP=6.80D-05 MaxDP=3.28D-03 DE=-4.11D-05 OVMax= 1.17D-03

 Cycle   6  Pass 1  IDiag  1:
 E= -706.424410826101     Delta-E=       -0.000006633542 Rises=F Damp=F
 DIIS: error= 3.96D-05 at cycle   6 NSaved=   6.
 NSaved= 6 IEnMin= 6 EnMin= -706.424410826101     IErMin= 6 ErrMin= 3.96D-05
 ErrMax= 3.96D-05  0.00D+00 EMaxC= 1.00D-01 BMatC= 5.75D-07 BMatP= 6.57D-06
 IDIUse=1 WtCom= 1.00D+00 WtEn= 0.00D+00
 Coeff-Com: -0.140D-02 0.627D-02 0.142D-01 0.996D-01 0.304D+00 0.577D+00
 Coeff:     -0.140D-02 0.627D-02 0.142D-01 0.996D-01 0.304D+00 0.577D+00
 Gap=     0.171 Goal=   None    Shift=    0.000
 RMSDP=1.73D-05 MaxDP=8.25D-04 DE=-6.63D-06 OVMax= 2.85D-04

 Cycle   7  Pass 1  IDiag  1:
 E= -706.424411300686     Delta-E=       -0.000000474585 Rises=F Damp=F
 DIIS: error= 2.63D-05 at cycle   7 NSaved=   7.
 NSaved= 7 IEnMin= 7 EnMin= -706.424411300686     IErMin= 7 ErrMin= 2.63D-05
 ErrMax= 2.63D-05  0.00D+00 EMaxC= 1.00D-01 BMatC= 1.62D-07 BMatP= 5.75D-07
 IDIUse=1 WtCom= 1.00D+00 WtEn= 0.00D+00
 Coeff-Com:  0.786D-04-0.609D-02-0.127D-02 0.255D-01 0.128D+00 0.385D+00
 Coeff-Com:  0.469D+00
 Coeff:      0.786D-04-0.609D-02-0.127D-02 0.255D-01 0.128D+00 0.385D+00
 Coeff:      0.469D+00
 Gap=     0.171 Goal=   None    Shift=    0.000
 RMSDP=3.76D-06 MaxDP=9.08D-05 DE=-4.75D-07 OVMax= 1.62D-04

 Cycle   8  Pass 1  IDiag  1:
 E= -706.424411422569     Delta-E=       -0.000000121883 Rises=F Damp=F
 DIIS: error= 1.00D-05 at cycle   8 NSaved=   8.
 NSaved= 8 IEnMin= 8 EnMin= -706.424411422569     IErMin= 8 ErrMin= 1.00D-05
 ErrMax= 1.00D-05  0.00D+00 EMaxC= 1.00D-01 BMatC= 2.36D-08 BMatP= 1.62D-07
 IDIUse=1 WtCom= 1.00D+00 WtEn= 0.00D+00
 Coeff-Com:  0.264D-03-0.503D-02-0.322D-02 0.168D-02 0.401D-01 0.156D+00
 Coeff-Com:  0.316D+00 0.494D+00
 Coeff:      0.264D-03-0.503D-02-0.322D-02 0.168D-02 0.401D-01 0.156D+00
 Coeff:      0.316D+00 0.494D+00
 Gap=     0.171 Goal=   None    Shift=    0.000
 RMSDP=1.80D-06 MaxDP=4.50D-05 DE=-1.22D-07 OVMax= 5.23D-05

 Cycle   9  Pass 1  IDiag  1:
 E= -706.424411444793     Delta-E=       -0.000000022224 Rises=F Damp=F
 DIIS: error= 1.75D-06 at cycle   9 NSaved=   9.
 NSaved= 9 IEnMin= 9 EnMin= -706.424411444793     IErMin= 9 ErrMin= 1.75D-06
 ErrMax= 1.75D-06  0.00D+00 EMaxC= 1.00D-01 BMatC= 8.54D-10 BMatP= 2.36D-08
 IDIUse=1 WtCom= 1.00D+00 WtEn= 0.00D+00
 Coeff-Com:  0.941D-04-0.141D-02-0.140D-02-0.185D-02 0.417D-02 0.204D-01
 Coeff-Com:  0.816D-01 0.201D+00 0.697D+00
 Coeff:      0.941D-04-0.141D-02-0.140D-02-0.185D-02 0.417D-02 0.204D-01
 Coeff:      0.816D-01 0.201D+00 0.697D+00
 Gap=     0.171 Goal=   None    Shift=    0.000
 RMSDP=5.49D-07 MaxDP=1.98D-05 DE=-2.22D-08 OVMax= 1.68D-05

 Cycle  10  Pass 1  IDiag  1:
 E= -706.424411445886     Delta-E=       -0.000000001093 Rises=F Damp=F
 DIIS: error= 4.01D-07 at cycle  10 NSaved=  10.
 NSaved=10 IEnMin=10 EnMin= -706.424411445886     IErMin=10 ErrMin= 4.01D-07
 ErrMax= 4.01D-07  0.00D+00 EMaxC= 1.00D-01 BMatC= 6.22D-11 BMatP= 8.54D-10
 IDIUse=1 WtCom= 1.00D+00 WtEn= 0.00D+00
 Coeff-Com:  0.115D-04-0.216D-04-0.235D-03-0.784D-03-0.204D-02-0.793D-02
 Coeff-Com: -0.199D-02 0.309D-01 0.274D+00 0.708D+00
 Coeff:      0.115D-04-0.216D-04-0.235D-03-0.784D-03-0.204D-02-0.793D-02
 Coeff:     -0.199D-02 0.309D-01 0.274D+00 0.708D+00
 Gap=     0.171 Goal=   None    Shift=    0.000
 RMSDP=1.54D-07 MaxDP=5.74D-06 DE=-1.09D-09 OVMax= 4.09D-06

 Cycle  11  Pass 1  IDiag  1:
 E= -706.424411445963     Delta-E=       -0.000000000077 Rises=F Damp=F
 DIIS: error= 8.66D-08 at cycle  11 NSaved=  11.
 NSaved=11 IEnMin=11 EnMin= -706.424411445963     IErMin=11 ErrMin= 8.66D-08
 ErrMax= 8.66D-08  0.00D+00 EMaxC= 1.00D-01 BMatC= 1.71D-12 BMatP= 6.22D-11
 IDIUse=1 WtCom= 1.00D+00 WtEn= 0.00D+00
 Coeff-Com: -0.210D-05 0.733D-04 0.277D-04-0.113D-03-0.741D-03-0.298D-02
 Coeff-Com: -0.541D-02-0.268D-02 0.303D-01 0.164D+00 0.817D+00
 Coeff:     -0.210D-05 0.733D-04 0.277D-04-0.113D-03-0.741D-03-0.298D-02
 Coeff:     -0.541D-02-0.268D-02 0.303D-01 0.164D+00 0.817D+00
 Gap=     0.171 Goal=   None    Shift=    0.000
 RMSDP=6.19D-08 MaxDP=3.24D-06 DE=-7.69D-11 OVMax= 1.37D-06

 Cycle  12  Pass 1  IDiag  1:
 E= -706.424411445968     Delta-E=       -0.000000000005 Rises=F Damp=F
 DIIS: error= 2.05D-08 at cycle  12 NSaved=  12.
 NSaved=12 IEnMin=12 EnMin= -706.424411445968     IErMin=12 ErrMin= 2.05D-08
 ErrMax= 2.05D-08  0.00D+00 EMaxC= 1.00D-01 BMatC= 8.49D-14 BMatP= 1.71D-12
 IDIUse=1 WtCom= 1.00D+00 WtEn= 0.00D+00
 Coeff-Com: -0.775D-06 0.945D-05 0.160D-04 0.144D-04-0.104D-04 0.284D-04
 Coeff-Com: -0.723D-03-0.168D-02-0.845D-02-0.160D-01 0.124D+00 0.902D+00
 Coeff:     -0.775D-06 0.945D-05 0.160D-04 0.144D-04-0.104D-04 0.284D-04
 Coeff:     -0.723D-03-0.168D-02-0.845D-02-0.160D-01 0.124D+00 0.902D+00
 Gap=     0.171 Goal=   None    Shift=    0.000
 RMSDP=1.48D-08 MaxDP=5.99D-07 DE=-5.00D-12 OVMax= 4.64D-07

 Cycle  13  Pass 1  IDiag  1:
 E= -706.424411445971     Delta-E=       -0.000000000003 Rises=F Damp=F
 DIIS: error= 8.86D-09 at cycle  13 NSaved=  13.
 NSaved=13 IEnMin=13 EnMin= -706.424411445971     IErMin=13 ErrMin= 8.86D-09
 ErrMax= 8.86D-09  0.00D+00 EMaxC= 1.00D-01 BMatC= 1.66D-14 BMatP= 8.49D-14
 IDIUse=1 WtCom= 1.00D+00 WtEn= 0.00D+00
 Coeff-Com: -0.158D-06-0.150D-05 0.404D-05 0.166D-04 0.566D-04 0.243D-03
 Coeff-Com:  0.128D-03-0.483D-03-0.579D-02-0.197D-01-0.113D-01 0.356D+00
 Coeff-Com:  0.681D+00
 Coeff:     -0.158D-06-0.150D-05 0.404D-05 0.166D-04 0.566D-04 0.243D-03
 Coeff:      0.128D-03-0.483D-03-0.579D-02-0.197D-01-0.113D-01 0.356D+00
 Coeff:      0.681D+00
 Gap=     0.171 Goal=   None    Shift=    0.000
 RMSDP=2.02D-09 MaxDP=4.44D-08 DE=-3.18D-12 OVMax= 9.96D-08

 Error on total polarization charges =  0.02325
 SCF Done:  E(RB3LYP) =  -706.424411446     A.U. after   13 cycles
            NFock= 13  Conv=0.20D-08     -V/T= 2.0060
 KE= 7.022219513231D+02 PE=-2.143349038216D+03 EE= 5.019423757056D+02
 SMD-CDS (non-electrostatic) energy       (kcal/mol) =      -0.72
 (included in total energy above)
 Leave Link  502 at Wed Jan  8 01:40:30 2020, MaxMem=  4294967296 cpu:             636.8 elap:              51.9
 (Enter /home/cwagen/sw/g16/g16/l701.exe)
 ... and contract with generalized density number  0.
 Compute integral first derivatives.
 D1PCM: PCM CHGder 1st derivatives, ID1Alg=3 FixD1E=F DoIter=F DoCFld=F I1PDM=0.
 GePol: Maximum number of non-zero 1st derivatives   =     385
 Leave Link  701 at Wed Jan  8 01:40:35 2020, MaxMem=  4294967296 cpu:              48.2 elap:               4.5
 (Enter /home/cwagen/sw/g16/g16/l702.exe)
 L702 exits ... SP integral derivatives will be done elsewhere.
 Leave Link  702 at Wed Jan  8 01:40:35 2020, MaxMem=  4294967296 cpu:               1.7 elap:               0.2
 (Enter /home/cwagen/sw/g16/g16/l703.exe)
 Integral derivatives from FoFJK, PRISM(SPDF).
 Compute integral first derivatives, UseDBF=F ICtDFT=           0.
 Calling FoFJK, ICntrl=      2127 FMM=F ISym2X=0 I1Cent= 0 IOpClX= 0 NMat=1 NMatS=1 NMatT=0.
 FoFJK:  IHMeth= 1 ICntrl=    2127 DoSepK=F KAlg= 0 I1Cent=           0 FoldK=F
 IRaf=         0 NMat=       1 IRICut=       1 DoRegI=T DoRafI=F ISym2E= 0 IDoP0=0 IntGTp=1.
 FoFCou: FMM=F IPFlag=           0 FMFlag=      100000 FMFlg1=         800
         NFxFlg=           0 DoJE=F BraDBF=F KetDBF=F FulRan=T
         wScrn=  0.000000 ICntrl=      2127 IOpCl=  0 I1Cent=           0 NGrid=           0
         NMat0=    1 NMatS0=      1 NMatT0=    0 NMatD0=    1 NMtDS0=    0 NMtDT0=    0
 Symmetry not used in FoFCou.
 Leave Link  703 at Wed Jan  8 01:40:38 2020, MaxMem=  4294967296 cpu:              36.9 elap:               3.1
 (Enter /home/cwagen/sw/g16/g16/l716.exe)
 Dipole        = 1.60566726D+00 2.11003452D+00-1.03759603D+00
 ***** Axes restored to original set *****
 -------------------------------------------------------------------
 Center     Atomic                   Forces (Hartrees/Bohr)
 Number     Number              X              Y              Z
 -------------------------------------------------------------------
      1        6           0.062880059   -0.032271247   -0.039599268
      2        8          -0.012638291    0.022037089    0.039867736
      3        6          -0.015809332    0.021501643    0.003161270
      4        1           0.000574604   -0.000005506   -0.001436769
      5        1           0.001729640    0.000517919   -0.000693301
      6        1           0.002384174    0.000131633   -0.001090877
      7       17           0.005480103   -0.006201623   -0.000522509
      8        6          -0.042055916   -0.005345056    0.000705661
      9        7          -0.002545041   -0.000364852   -0.000391942
 -------------------------------------------------------------------
 Cartesian Forces:  Max     0.062880059 RMS     0.020554179
 Leave Link  716 at Wed Jan  8 01:40:38 2020, MaxMem=  4294967296 cpu:               1.5 elap:               0.2
 (Enter /home/cwagen/sw/g16/g16/l103.exe)

 GradGradGradGradGradGradGradGradGradGradGradGradGradGradGradGradGradGrad
 Berny optimization.
 Using GEDIIS/GDIIS optimizer.
 FormGI is forming the generalized inverse of G from B-inverse, IUseBI=4.
 Internal  Forces:  Max     0.042263147 RMS     0.013194903
 Search for a local minimum.
 Step number   2 out of a maximum of   41
 All quantities printed in internal units (Hartrees-Bohrs-Radians)
 RMS Force = .11058D-01 SwitMx=.10000D-02 MixMth= 1
 Mixed Optimization -- RFO/linear search
 Update second derivatives using D2CorX and points    1    2
 DE= -2.79D-02 DEPred=-2.50D-02 R= 1.12D+00
 TightC=F SS=  1.41D+00  RLast= 3.85D-01 DXNew= 5.0454D-01 1.1563D+00
 Trust test= 1.12D+00 RLast= 3.85D-01 DXMaxT set to 5.05D-01
 ITU=  1  0
 Use linear search instead of GDIIS.
     Eigenvalues ---    0.00230   0.04662   0.04747   0.05411   0.05762
     Eigenvalues ---    0.06004   0.09119   0.15967   0.16000   0.16240
     Eigenvalues ---    0.23918   0.25000   0.26063   0.29688   0.33930
     Eigenvalues ---    0.33992   0.34385   0.57936   1.220341000.00000
     Eigenvalues --- 1000.000001000.000001000.000001000.000001000.00000
     Eigenvalues --- 1000.000001000.000001000.000001000.000001000.00000
     Eigenvalues --- 1000.00000
 RFO step:  Lambda=-8.34774378D-03 EMin= 2.30280220D-03
 Quartic linear search produced a step of  0.87839.
 Iteration  1 RMS(Cart)=  0.12287911 RMS(Int)=  0.01696611
 Iteration  2 RMS(Cart)=  0.01524915 RMS(Int)=  0.01270163
 Iteration  3 RMS(Cart)=  0.00011908 RMS(Int)=  0.01270112
 Iteration  4 RMS(Cart)=  0.00000444 RMS(Int)=  0.01270112
 Iteration  5 RMS(Cart)=  0.00000013 RMS(Int)=  0.01270112
 Iteration  1 RMS(Cart)=  0.00000000 RMS(Int)=  0.00000000
 ITry= 1 IFail=0 DXMaxC= 2.97D-01 DCOld= 1.00D+10 DXMaxT= 5.05D-01 DXLimC= 3.00D+00 Rises=F
 Variable       Old X    -DE/DX   Delta X   Delta X   Delta X     New X
                                 (Linear)    (Quad)   (Total)
    R1        2.34802  -0.04181  -0.09158  -0.02270  -0.11428   2.23374
    R2        2.90196  -0.01387  -0.03783  -0.05146  -0.08929   2.81267
    R3        5.10226  -0.00806   0.00000   0.00000   0.00000   5.10226
    R4        3.21253  -0.04226   0.00000   0.00000   0.00000   3.21253
    R5        2.06804  -0.00127  -0.00463  -0.00183  -0.00646   2.06158
    R6        2.07289  -0.00174  -0.00158  -0.00776  -0.00934   2.06354
    R7        2.06555   0.00169  -0.00275   0.01223   0.00948   2.07503
    R8        2.20275  -0.00257  -0.00569   0.00159  -0.00411   2.19864
    A1        2.11010   0.01754   0.09963   0.03965   0.10750   2.21760
    A2        1.93241  -0.00713  -0.07613  -0.01873  -0.08199   1.85041
    A3        1.91707   0.00104   0.02168   0.11448   0.09365   2.01072
    A4        1.81877  -0.01448  -0.09260  -0.06419  -0.14549   1.67328
    A5        1.90395   0.00621   0.11595  -0.04421   0.03466   1.93861
    A6        1.74456  -0.00899  -0.07926  -0.05507  -0.12667   1.61788
    A7        1.96305  -0.00038  -0.00960   0.00861  -0.00131   1.96174
    A8        1.91300  -0.00008   0.02949  -0.03696  -0.00736   1.90564
    A9        1.85538  -0.00270  -0.04042   0.01930  -0.02135   1.83403
   A10        1.90445   0.00097   0.00078   0.01510   0.01586   1.92031
   A11        1.92136   0.00087   0.01141  -0.00859   0.00215   1.92351
   A12        1.90558   0.00130   0.00882   0.00201   0.01112   1.91670
   A13        3.04572   0.00096  -0.04685   0.12937   0.08253   3.12825
   A14        2.95555  -0.00024   0.03448  -0.07919  -0.04471   2.91084
    D1       -3.13054   0.01106   0.09446   0.06485   0.16860  -2.96194
    D2       -1.00868   0.01199   0.10970   0.06383   0.18273  -0.82596
    D3        1.04870   0.01197   0.11380   0.05778   0.18041   1.22911
    D4       -0.94490   0.00090  -0.01586   0.00960  -0.00692  -0.95182
    D5        1.17696   0.00183  -0.00062   0.00858   0.00720   1.18416
    D6       -3.04884   0.00181   0.00348   0.00253   0.00489  -3.04396
    D7        0.90587  -0.01317  -0.09252  -0.09584  -0.19644   0.70943
    D8        3.02774  -0.01225  -0.07729  -0.09686  -0.18231   2.84542
    D9       -1.19807  -0.01226  -0.07319  -0.10291  -0.18463  -1.38270
         Item               Value     Threshold  Converged?
 Maximum Force            0.041811     0.000450     NO 
 RMS     Force            0.011058     0.000300     NO 
 Maximum Displacement     0.297146     0.001800     NO 
 RMS     Displacement     0.124436     0.001200     NO 
 Predicted change in Energy=-1.628830D-02
 Lowest energy point so far.  Saving SCF results.
 GradGradGradGradGradGradGradGradGradGradGradGradGradGradGradGradGradGrad

 Leave Link  103 at Wed Jan  8 01:40:47 2020, MaxMem=  4294967296 cpu:             104.1 elap:               8.6
 (Enter /home/cwagen/sw/g16/g16/l202.exe)
                          Input orientation:                          
 ---------------------------------------------------------------------
 Center     Atomic      Atomic             Coordinates (Angstroms)
 Number     Number       Type             X           Y           Z
 ---------------------------------------------------------------------
      1          6           0       -0.034465   -0.517410   -0.291989
      2          8           0       -0.276741   -0.638525   -1.442583
      3          6           0       -0.390935   -1.459570    0.803734
      4          1           0       -0.212314   -1.034182    1.792315
      5          1           0       -1.439984   -1.745794    0.703786
      6          1           0        0.250855   -2.336570    0.646553
      7         17           0       -1.574903    1.519904    0.583456
      8          6           0        1.405804    0.313864    0.061008
      9          7           0        2.455564    0.808323    0.145743
 ---------------------------------------------------------------------
                    Distance matrix (angstroms):
                    1          2          3          4          5
     1  C    0.000000
     2  O    1.182046   0.000000
     3  C    1.488403   2.394389   0.000000
     4  H    2.154763   3.259641   1.090941   0.000000
     5  H    2.115651   2.680687   1.091979   1.788424   0.000000
     6  H    2.066787   2.743393   1.098058   1.795414   1.791990
     7  Cl   2.700000   3.232472   3.213653   3.137092   3.270698
     8  C    1.700000   2.449242   2.631536   2.726345   3.571256
     9  N    2.854719   3.475864   3.698492   3.636426   4.691505
                    6          7          8          9
     6  H    0.000000
     7  Cl   4.267290   0.000000
     8  C    2.949843   3.257622   0.000000
     9  N    3.873229   4.116139   1.163471   0.000000
 Stoichiometry    C3H3ClNO(1-)
 Framework group  C1[X(C3H3ClNO)]
 Deg. of freedom    21
 Full point group                 C1      NOp   1
 RotChk:  IX=0 Diff= 1.24D-01
 Largest Abelian subgroup         C1      NOp   1
 Largest concise Abelian subgroup C1      NOp   1
                         Standard orientation:                         
 ---------------------------------------------------------------------
 Center     Atomic      Atomic             Coordinates (Angstroms)
 Number     Number       Type             X           Y           Z
 ---------------------------------------------------------------------
      1          6           0        0.468405    0.663214    0.221202
      2          8           0        0.523084    1.050317    1.336727
      3          6           0        0.323732    1.488908   -1.008693
      4          1           0        0.119292    0.884441   -1.893552
      5          1           0       -0.476490    2.216905   -0.860090
      6          1           0        1.284568    2.009011   -1.118320
      7         17           0       -1.906098   -0.600366   -0.013528
      8          6           0        1.346693   -0.757336   -0.096049
      9          7           0        2.065521   -1.667912   -0.184375
 ---------------------------------------------------------------------
 Rotational constants (GHZ):           3.0646987           1.9028001           1.5012274
 Leave Link  202 at Wed Jan  8 01:40:48 2020, MaxMem=  4294967296 cpu:               3.4 elap:               0.5
 (Enter /home/cwagen/sw/g16/g16/l301.exe)
 Standard basis: 6-31+G(d) (6D, 7F)
 Ernie: Thresh=  0.10000D-02 Tol=  0.10000D-05 Strict=F.
 There are   124 symmetry adapted cartesian basis functions of A   symmetry.
 There are   124 symmetry adapted basis functions of A   symmetry.
   124 basis functions,   228 primitive gaussians,   124 cartesian basis functions
    27 alpha electrons       27 beta electrons
       nuclear repulsion energy       238.2024308446 Hartrees.
 IExCor=  402 DFT=T Ex+Corr=B3LYP ExCW=0 ScaHFX=  0.200000
 ScaDFX=  0.800000  0.720000  1.000000  0.810000 ScalE2=  1.000000  1.000000
 IRadAn=      5 IRanWt=     -1 IRanGd=            0 ICorTp=0 IEmpDi=  4
 NAtoms=    9 NActive=    9 NUniq=    9 SFac= 1.00D+00 NAtFMM=   60 NAOKFM=F Big=F
 Integral buffers will be    131072 words long.
 Raffenetti 2 integral format.
 Two-electron integral symmetry is turned on.
 ------------------------------------------------------------------------------
 Polarizable Continuum Model (PCM)
 =================================
 Model                : PCM.
 Atomic radii         : SMD-Coulomb.
 Polarization charges : Total charges.
 Charge compensation  : None.
 Solution method      : On-the-fly selection.
 Cavity type          : VdW (van der Waals Surface) (Alpha=1.000).
 Cavity algorithm     : GePol (No added spheres)
                        Default sphere list used, NSphG=    9.
                        Lebedev-Laikov grids with approx.  5.0 points / Ang**2.
                        Smoothing algorithm: York/Karplus (Gamma=1.0000).
                        Polarization charges: spherical gaussians, with
                                              point-specific exponents (IZeta= 3).
                        Self-potential: point-specific (ISelfS= 7).
                        Self-field    : sphere-specific E.n sum rule (ISelfD= 2).
 1st derivatives      : Analytical E(r).r(x)/FMM algorithm (CHGder, D1EAlg=3).
                        Cavity 1st derivative terms included.
 Solvent              : TetraHydroFuran, Eps=   7.425700 Eps(inf)=   1.974025
 ------------------------------------------------------------------------------
 Spheres list:
 ISph  on   Nord     Re0    Alpha      Xe            Ye            Ze
    1   C      1    1.8500  1.000      0.468405      0.663214      0.221202
    2   O      2    2.2940  1.000      0.523084      1.050317      1.336727
    3   C      3    1.8500  1.000      0.323732      1.488908     -1.008693
    4   H      4    1.2000  1.000      0.119292      0.884441     -1.893552
    5   H      5    1.2000  1.000     -0.476490      2.216905     -0.860090
    6   H      6    1.2000  1.000      1.284568      2.009011     -1.118320
    7  Cl      7    2.3800  1.000     -1.906098     -0.600366     -0.013528
    8   C      8    1.8500  1.000      1.346693     -0.757336     -0.096049
    9   N      9    1.8900  1.000      2.065521     -1.667912     -0.184375
 ------------------------------------------------------------------------------
 GePol: Number of generator spheres                  =       9
 GePol: Total number of spheres                      =       9
 GePol: Number of exposed spheres                    =       9 (100.00%)
 GePol: Number of points                             =    1200
 GePol: Average weight of points                     =       0.14
 GePol: Minimum weight of points                     =   0.15D-07
 GePol: Maximum weight of points                     =    0.18138
 GePol: Number of points with low weight             =      32
 GePol: Fraction of low-weight points (<1% of avg)   =       2.67%
 GePol: Cavity surface area                          =    163.700 Ang**2
 GePol: Cavity volume                                =    149.423 Ang**3
 ------------------------------------------------------------------------------
 Atomic radii for non-electrostatic terms: SMD-CDS.
 ------------------------------------------------------------------------------
 PCM non-electrostatic energy =        -0.0011549947 Hartrees.
[...]
      4        1          -0.000022136    0.000026568    0.000002409
      5        1           0.000004789   -0.000004851    0.000000567
      6        1          -0.000001608    0.000001422    0.000031883
      7       17          -0.002661316    0.003860740    0.001771557
      8        6          -0.035755110   -0.023303181   -0.009285121
      9        7           0.000007733    0.000011510   -0.000000422
 -------------------------------------------------------------------
 Cartesian Forces:  Max     0.038397012 RMS     0.011926518
 Leave Link  716 at Wed Jan  8 01:48:24 2020, MaxMem=  4294967296 cpu:               0.8 elap:               0.1
 (Enter /home/cwagen/sw/g16/g16/l103.exe)

 GradGradGradGradGradGradGradGradGradGradGradGradGradGradGradGradGradGrad
 Berny optimization.
 Using GEDIIS/GDIIS optimizer.
 FormGI is forming the generalized inverse of G from B-inverse, IUseBI=4.
 Internal  Forces:  Max     0.043671437 RMS     0.007895422
 Search for a local minimum.
 Step number   9 out of a maximum of   41
 All quantities printed in internal units (Hartrees-Bohrs-Radians)
 RMS Force = .87896D-05 SwitMx=.10000D-02 MixMth= 2
 Mixed Optimization -- En-DIIS/RFO-DIIS
 Swapping is turned off.
 Update second derivatives using D2CorX and points    3    4    5    6    7
                                                      8    9
 DE= -8.64D-07 DEPred=-3.84D-07 R= 2.25D+00
 Trust test= 2.25D+00 RLast= 4.01D-03 DXMaxT set to 8.49D-01
 ITU=  0  1  1  1  1  1  1  1  0
     Eigenvalues ---    0.00219   0.02894   0.03785   0.04884   0.05216
     Eigenvalues ---    0.05461   0.06005   0.16079   0.16130   0.16652
     Eigenvalues ---    0.22941   0.25659   0.26582   0.28545   0.33952
     Eigenvalues ---    0.34053   0.34424   0.90763   1.220571000.00000
     Eigenvalues --- 1000.000001000.000001000.000001000.000001000.00000
     Eigenvalues --- 1000.000001000.000001000.000001000.000001000.00000
     Eigenvalues --- 1000.00000
 En-DIIS/RFO-DIIS/Sim-DIIS IScMMF=       -3 using points:     9    8    7    6    5
 RFO step:  Lambda=-1.95604771D-06.
 NNeg= 0 NGDIIS= 5 SimSw=  2.50D-01 Rises=F DC= -8.64D-07 SmlDif=  1.00D-05
 NRisDI= 0 DoIntr=F SqrtH=F CThrHd= 10.0 CDAdj=  3.0
 RMS Error=  0.1611980137D-03 NUsed= 5 OKEnD=F EnDIS=F
 InvSVX:  RCond= 1.06D-07 Info=           0 Equed=N FErr=  3.75D-14 BErr=  6.13D-17
 DidBck=F Rises=F RFO-DIIS coefs:    1.13570   -0.12362   -0.02544    0.01358   -0.00022
 Iteration  1 RMS(Cart)=  0.00015061 RMS(Int)=  0.00000004
 Iteration  2 RMS(Cart)=  0.00000004 RMS(Int)=  0.00000003
 Iteration  1 RMS(Cart)=  0.00000000 RMS(Int)=  0.00000000
 ITry= 1 IFail=0 DXMaxC= 3.76D-04 DCOld= 1.00D+10 DXMaxT= 8.49D-01 DXLimC= 3.00D+00 Rises=F
 Variable       Old X    -DE/DX   Delta X   Delta X   Delta X     New X
                                 (Linear)    (Quad)   (Total)
    R1        2.26886  -0.00001   0.00003  -0.00004  -0.00001   2.26885
    R2        2.82729  -0.00001   0.00004  -0.00005  -0.00001   2.82728
    R3        5.10226   0.00503   0.00000   0.00000   0.00000   5.10226
    R4        3.21253  -0.04367   0.00000   0.00000   0.00000   3.21253
    R5        2.05902   0.00000   0.00000   0.00001   0.00000   2.05903
    R6        2.06518   0.00000   0.00001  -0.00002  -0.00001   2.06518
    R7        2.07972   0.00000   0.00000   0.00001   0.00001   2.07973
    R8        2.20096   0.00001   0.00001   0.00000   0.00001   2.20097
    A1        2.24327   0.00000  -0.00001   0.00000  -0.00001   2.24326
    A2        1.83870   0.00002   0.00006   0.00006   0.00013   1.83883
    A3        2.03597   0.00001   0.00008  -0.00003   0.00005   2.03602
    A4        1.62200  -0.00002   0.00005  -0.00013  -0.00009   1.62192
    A5        1.95452  -0.00001  -0.00013   0.00008  -0.00006   1.95447
    A6        1.51372   0.00001   0.00007  -0.00007   0.00000   1.51371
    A7        1.95272   0.00000   0.00002  -0.00003  -0.00001   1.95271
    A8        1.91152   0.00001   0.00005   0.00001   0.00006   1.91157
    A9        1.86566   0.00000  -0.00008   0.00006  -0.00001   1.86565
   A10        1.92707   0.00000  -0.00004   0.00002  -0.00002   1.92705
   A11        1.90407   0.00000   0.00002   0.00002   0.00004   1.90411
   A12        1.90118  -0.00001   0.00003  -0.00008  -0.00005   1.90113
   A13        3.10868   0.00001  -0.00001   0.00016   0.00015   3.10883
   A14        2.97313  -0.00002  -0.00046  -0.00016  -0.00063   2.97250
    D1       -2.81909   0.00000  -0.00031   0.00007  -0.00024  -2.81933
    D2       -0.67644   0.00000  -0.00032   0.00008  -0.00024  -0.67667
    D3        1.38071   0.00000  -0.00029   0.00002  -0.00027   1.38044
    D4       -0.85888   0.00000  -0.00019   0.00004  -0.00015  -0.85903
    D5        1.28377   0.00000  -0.00020   0.00005  -0.00015   1.28362
    D6       -2.94227   0.00000  -0.00017  -0.00001  -0.00018  -2.94245
    D7        0.67099   0.00000  -0.00010  -0.00008  -0.00019   0.67080
    D8        2.81364   0.00000  -0.00011  -0.00008  -0.00018   2.81346
    D9       -1.41240   0.00000  -0.00009  -0.00013  -0.00022  -1.41262
         Item               Value     Threshold  Converged?
 Maximum Force            0.000024     0.000450     YES
 RMS     Force            0.000009     0.000300     YES
 Maximum Displacement     0.000376     0.001800     YES
 RMS     Displacement     0.000151     0.001200     YES
 Predicted change in Energy=-1.176829D-08
 Optimization completed.
    -- Stationary point found.
                           ----------------------------
                           !   Optimized Parameters   !
                           ! (Angstroms and Degrees)  !
 --------------------------                            --------------------------
 ! Name  Definition              Value          Derivative Info.                !
 --------------------------------------------------------------------------------
 ! R1    R(1,2)                  1.2006         -DE/DX =    0.0                 !
 ! R2    R(1,3)                  1.4961         -DE/DX =    0.0                 !
 ! R3    R(1,7)                  2.7            -DE/DX =    0.005               !
 ! R4    R(1,8)                  1.7            -DE/DX =   -0.0437              !
 ! R5    R(3,4)                  1.0896         -DE/DX =    0.0                 !
 ! R6    R(3,5)                  1.0928         -DE/DX =    0.0                 !
 ! R7    R(3,6)                  1.1005         -DE/DX =    0.0                 !
 ! R8    R(8,9)                  1.1647         -DE/DX =    0.0                 !
 ! A1    A(2,1,3)              128.53           -DE/DX =    0.0                 !
 ! A2    A(2,1,7)              105.35           -DE/DX =    0.0                 !
 ! A3    A(2,1,8)              116.6526         -DE/DX =    0.0                 !
 ! A4    A(3,1,7)               92.934          -DE/DX =    0.0                 !
 ! A5    A(3,1,8)              111.9859         -DE/DX =    0.0                 !
 ! A6    A(7,1,8)               86.7295         -DE/DX =    0.0                 !
 ! A7    A(1,3,4)              111.8828         -DE/DX =    0.0                 !
 ! A8    A(1,3,5)              109.5218         -DE/DX =    0.0                 !
 ! A9    A(1,3,6)              106.8946         -DE/DX =    0.0                 !
 ! A10   A(4,3,5)              110.4131         -DE/DX =    0.0                 !
 ! A11   A(4,3,6)              109.0954         -DE/DX =    0.0                 !
 ! A12   A(5,3,6)              108.9296         -DE/DX =    0.0                 !
 ! A13   L(1,8,9,6,-1)         178.1141         -DE/DX =    0.0                 !
 ! A14   L(1,8,9,6,-2)         170.3477         -DE/DX =    0.0                 !
 ! D1    D(2,1,3,4)           -161.5221         -DE/DX =    0.0                 !
 ! D2    D(2,1,3,5)            -38.7569         -DE/DX =    0.0                 !
 ! D3    D(2,1,3,6)             79.1088         -DE/DX =    0.0                 !
 ! D4    D(7,1,3,4)            -49.2105         -DE/DX =    0.0                 !
 ! D5    D(7,1,3,5)             73.5547         -DE/DX =    0.0                 !
 ! D6    D(7,1,3,6)           -168.5796         -DE/DX =    0.0                 !
 ! D7    D(8,1,3,4)             38.4448         -DE/DX =    0.0                 !
 ! D8    D(8,1,3,5)            161.2099         -DE/DX =    0.0                 !
 ! D9    D(8,1,3,6)            -80.9243         -DE/DX =    0.0                 !
 --------------------------------------------------------------------------------
 Lowest energy point so far.  Saving SCF results.
 Largest change from initial coordinates is atom    6       0.316 Angstoms.
 GradGradGradGradGradGradGradGradGradGradGradGradGradGradGradGradGradGrad

 Leave Link  103 at Wed Jan  8 01:48:30 2020, MaxMem=  4294967296 cpu:              68.2 elap:               5.9
 (Enter /home/cwagen/sw/g16/g16/l202.exe)
                          Input orientation:                          
 ---------------------------------------------------------------------
 Center     Atomic      Atomic             Coordinates (Angstroms)
 Number     Number       Type             X           Y           Z
 ---------------------------------------------------------------------
      1          6           0       -0.007911   -0.569282   -0.333428
      2          8           0       -0.314077   -0.645754   -1.491842
      3          6           0       -0.399836   -1.469446    0.795524
      4          1           0       -0.251071   -0.993914    1.764515
      5          1           0       -1.442989   -1.772444    0.675761
      6          1           0        0.240899   -2.361851    0.730260
      7         17           0       -1.428871    1.507238    0.645825
      8          6           0        1.383356    0.337779    0.029360
      9          7           0        2.403380    0.877712    0.186048
 ---------------------------------------------------------------------
                    Distance matrix (angstroms):
                    1          2          3          4          5
     1  C    0.000000
     2  O    1.200628   0.000000
     3  C    1.496139   2.432667   0.000000
     4  H    2.154252   3.275522   1.089589   0.000000
     5  H    2.127325   2.691167   1.092848   1.792250   0.000000
     6  H    2.099200   2.861944   1.100540   1.784087   1.784894
     7  Cl   2.700000   3.232299   3.153089   2.982355   3.279849
     8  C    1.700000   2.482473   2.651951   2.730480   3.585959
     9  N    2.859715   3.538479   3.706566   3.611184   4.696562
                    6          7          8          9
     6  H    0.000000
     7  Cl   4.214867   0.000000
     8  C    3.014046   3.107456   0.000000
     9  N    3.932843   3.910734   1.164700   0.000000
 Stoichiometry    C3H3ClNO(1-)
 Framework group  C1[X(C3H3ClNO)]
 Deg. of freedom    21
 Full point group                 C1      NOp   1
 RotChk:  IX=0 Diff= 2.08D-15
 Largest Abelian subgroup         C1      NOp   1
 Largest concise Abelian subgroup C1      NOp   1
                         Standard orientation:                         
 ---------------------------------------------------------------------
 Center     Atomic      Atomic             Coordinates (Angstroms)
 Number     Number       Type             X           Y           Z
 ---------------------------------------------------------------------
      1          6           0        0.534519    0.706201    0.209241
      2          8           0        0.576849    1.131210    1.331330
      3          6           0        0.321079    1.459946   -1.065414
      4          1           0        0.012449    0.803589   -1.878524
      5          1           0       -0.422751    2.244478   -0.905590
      6          1           0        1.282858    1.927462   -1.325408
      7         17           0       -1.838756   -0.566702    0.016148
      8          6           0        1.258356   -0.808175   -0.060434
      9          7           0        1.869684   -1.791300   -0.187997
 ---------------------------------------------------------------------
 Rotational constants (GHZ):           2.9006297           2.0504286           1.5613658
 Leave Link  202 at Wed Jan  8 01:48:30 2020, MaxMem=  4294967296 cpu:               2.2 elap:               0.2
 (Enter /home/cwagen/sw/g16/g16/l601.exe)
 Copying SCF densities to generalized density rwf, IOpCl= 0 IROHF=0.

 **********************************************************************

            Population analysis using the SCF density.

 **********************************************************************

 Orbital symmetries:
       Occupied  (A) (A) (A) (A) (A) (A) (A) (A) (A) (A) (A) (A)
                 (A) (A) (A) (A) (A) (A) (A) (A) (A) (A) (A) (A)
                 (A) (A) (A)
       Virtual   (A) (A) (A) (A) (A) (A) (A) (A) (A) (A) (A) (A)
                 (A) (A) (A) (A) (A) (A) (A) (A) (A) (A) (A) (A)
                 (A) (A) (A) (A) (A) (A) (A) (A) (A) (A) (A) (A)
                 (A) (A) (A) (A) (A) (A) (A) (A) (A) (A) (A) (A)
                 (A) (A) (A) (A) (A) (A) (A) (A) (A) (A) (A) (A)
                 (A) (A) (A) (A) (A) (A) (A) (A) (A) (A) (A) (A)
                 (A) (A) (A) (A) (A) (A) (A) (A) (A) (A) (A) (A)
                 (A) (A) (A) (A) (A) (A) (A) (A) (A) (A) (A) (A)
                 (A)
 The electronic state is 1-A.
 Alpha  occ. eigenvalues -- -101.42247 -19.15901 -14.33131 -10.32353 -10.22342
 Alpha  occ. eigenvalues --  -10.18389  -9.33639  -7.09500  -7.09373  -7.09364
 Alpha  occ. eigenvalues --   -1.06293  -0.89271  -0.74856  -0.67730  -0.58658
 Alpha  occ. eigenvalues --   -0.48544  -0.44350  -0.44026  -0.39609  -0.36899
 Alpha  occ. eigenvalues --   -0.36674  -0.33062  -0.32953  -0.27553  -0.22148
 Alpha  occ. eigenvalues --   -0.21890  -0.21865
 Alpha virt. eigenvalues --   -0.03355   0.02308   0.03509   0.03710   0.05480
 Alpha virt. eigenvalues --    0.06758   0.06904   0.08586   0.09641   0.10026
 Alpha virt. eigenvalues --    0.10574   0.10719   0.11490   0.13361   0.13689
 Alpha virt. eigenvalues --    0.14183   0.14632   0.17128   0.17640   0.20965
 Alpha virt. eigenvalues --    0.23406   0.24381   0.24951   0.25416   0.26662
 Alpha virt. eigenvalues --    0.28458   0.28953   0.31543   0.32516   0.35376
 Alpha virt. eigenvalues --    0.37755   0.41123   0.47535   0.62733   0.62888
 Alpha virt. eigenvalues --    0.65284   0.66563   0.69700   0.70027   0.72340
 Alpha virt. eigenvalues --    0.75284   0.78568   0.79897   0.80724   0.81824
 Alpha virt. eigenvalues --    0.83596   0.89334   0.94423   0.97415   0.98459
 Alpha virt. eigenvalues --    0.98880   0.99783   1.01608   1.02142   1.03577
 Alpha virt. eigenvalues --    1.04591   1.09102   1.14375   1.16647   1.26663
 Alpha virt. eigenvalues --    1.30095   1.32314   1.34251   1.37130   1.43843
 Alpha virt. eigenvalues --    1.47163   1.54614   1.55859   1.59823   1.65474
 Alpha virt. eigenvalues --    1.69868   1.70277   1.81062   1.85074   1.90442
 Alpha virt. eigenvalues --    1.94220   1.97272   1.98631   2.06476   2.15941
 Alpha virt. eigenvalues --    2.24289   2.28032   2.38241   2.48202   2.58590
 Alpha virt. eigenvalues --    2.66392   2.75431   2.81000   2.91942   3.13283
 Alpha virt. eigenvalues --    3.19502   4.11832   4.16536   4.30956   4.36184
 Alpha virt. eigenvalues --    4.42728   4.59931
          Condensed to atoms (all electrons):
               1          2          3          4          5          6
     1  C    5.835678   0.608944  -0.001118  -0.102470  -0.089042   0.029251
     2  O    0.608944   8.049040  -0.115576   0.008089   0.001895  -0.007003
     3  C   -0.001118  -0.115576   5.913971   0.400266   0.397844   0.331579
     4  H   -0.102470   0.008089   0.400266   0.446560  -0.019130  -0.024977
     5  H   -0.089042   0.001895   0.397844  -0.019130   0.448488  -0.023131
     6  H    0.029251  -0.007003   0.331579  -0.024977  -0.023131   0.465887
     7  Cl   0.234631  -0.060945  -0.121647  -0.001210  -0.005750   0.004462
     8  C   -0.842676  -0.142668  -0.121406   0.033494   0.030717  -0.031593
     9  N   -0.036230  -0.003788  -0.017681   0.000619  -0.000013  -0.000826
               7          8          9
     1  C    0.234631  -0.842676  -0.036230
     2  O   -0.060945  -0.142668  -0.003788
     3  C   -0.121647  -0.121406  -0.017681
     4  H   -0.001210   0.033494   0.000619
     5  H   -0.005750   0.030717  -0.000013
     6  H    0.004462  -0.031593  -0.000826
     7  Cl  17.873553  -0.086522  -0.019245
     8  C   -0.086522   6.301760   0.590570
     9  N   -0.019245   0.590570   7.069634
 Mulliken charges:
               1
     1  C    0.363032
     2  O   -0.337987
     3  C   -0.666233
     4  H    0.258758
     5  H    0.258121
     6  H    0.256353
     7  Cl  -0.817328
     8  C    0.268324
     9  N   -0.583040
 Sum of Mulliken charges =  -1.00000
 Mulliken charges with hydrogens summed into heavy atoms:
               1
     1  C    0.363032
     2  O   -0.337987
     3  C    0.106999
     7  Cl  -0.817328
     8  C    0.268324
     9  N   -0.583040
 Electronic spatial extent (au):  <R**2>=            816.1331
 Charge=             -1.0000 electrons
 Dipole moment (field-independent basis, Debye):
    X=              4.4823    Y=              6.0754    Z=             -2.8884  Tot=              8.0835
 Quadrupole moment (field-independent basis, Debye-Ang):
   XX=            -67.2046   YY=            -54.4428   ZZ=            -48.3106
   XY=              2.6577   XZ=             -0.7243   YZ=             -5.1645
 Traceless Quadrupole moment (field-independent basis, Debye-Ang):
   XX=            -10.5520   YY=              2.2099   ZZ=              8.3421
   XY=              2.6577   XZ=             -0.7243   YZ=             -5.1645
 Octapole moment (field-independent basis, Debye-Ang**2):
  XXX=             23.1118  YYY=             30.5956  ZZZ=             -4.2557  XYY=            -10.2798
  XXY=             29.1404  XXZ=              1.2784  XZZ=              1.3336  YZZ=              1.2668
  YYZ=             -3.2229  XYZ=             -4.2526
 Hexadecapole moment (field-independent basis, Debye-Ang**3):
 XXXX=           -690.3578 YYYY=           -430.7598 ZZZZ=           -187.8704 XXXY=             23.1834
 XXXZ=              5.3298 YYYX=             30.9977 YYYZ=            -11.0488 ZZZX=             -0.3114
 ZZZY=             -4.5693 XXYY=           -202.2919 XXZZ=           -134.4552 YYZZ=           -102.0900
 XXYZ=             -5.5713 YYXZ=              1.3611 ZZXY=             -0.4716
 N-N= 2.391914085685D+02 E-N=-2.156572309621D+03  KE= 7.024349102258D+02
 No NMR shielding tensors so no spin-rotation constants.
 Leave Link  601 at Wed Jan  8 01:48:33 2020, MaxMem=  4294967296 cpu:              23.6 elap:               2.3
 (Enter /home/cwagen/sw/g16/g16/l9999.exe)
 1\1\GINC-NODE088\FOpt\RB3LYP\6-31+G(d)\C3H3Cl1N1O1(1-)\CWAGEN\08-Jan-2
 020\0\\#p opt=modredundant b3lyp/6-31+g(d) scrf=(smd, solvent=tetrahyd
 rofuran)\\title\\-1,1\C,-0.0079106666,-0.5692823955,-0.3334281842\O,-0
 .3140767803,-0.6457539935,-1.4918421418\C,-0.3998364727,-1.469445843,0
 .7955241036\H,-0.2510709742,-0.9939141147,1.7645146215\H,-1.4429887168
 ,-1.7724438461,0.6757614249\H,0.2408988491,-2.3618505797,0.7302599407\
 Cl,-1.4288708055,1.5072378068,0.6458246736\C,1.3833561782,0.3377794461
 ,0.0293601544\N,2.4033798589,0.8777121795,0.1860481674\\Version=AS64L-
 G16RevA.03\State=1-A\HF=-706.441085\RMSD=5.446e-09\RMSF=1.193e-02\Dipo
 le=0.5166242,-3.1296746,0.2294021\Quadrupole=-7.4198202,3.5707509,3.84
 90693,2.3419033,0.9735802,-4.7488092\PG=C01 [X(C3H3Cl1N1O1)]\\@


 IF YOU DON'T HAVE THE LAW - ARGUE THE FACTS.
 IF YOU DON'T HAVE THE FACTS - ARGUE THE LAW.
 IF YOU DON'T HAVE EITHER - POUND THE TABLE.
 Job cpu time:       0 days  2 hours  0 minutes 10.4 seconds.
 Elapsed time:       0 days  0 hours 10 minutes  6.0 seconds.
 File lengths (MBytes):  RWF=     37 Int=      0 D2E=      0 Chk=      3 Scr=      1
 Normal termination of Gaussian 16 at Wed Jan  8 01:48:33 2020.
