 Entering Gaussian System, Link 0=g16
 Input=scan_190_260.gjf
 Output=scan_190_260.out
 Initial command:
 /home/cwagen/sw/g16/g16/l1.exe "/scratch/users/cwagen/cwagen_scan_190_260/Gau-59309.inp" -scrdir="/scratch/users/cwagen/cwagen_scan_190_260/"
 Entering Link 1 = /home/cwagen/sw/g16/g16/l1.exe PID=     59310.
  
 Copyright (c) 1988,1990,1992,1993,1995,1998,2003,2009,2016,
            Gaussian, Inc.  All Rights Reserved.
  
 This is part of the Gaussian(R) 16 program.  It is based on
 the Gaussian(R) 09 system (copyright 2009, Gaussian, Inc.),
 the Gaussian(R) 03 system (copyright 2003, Gaussian, Inc.),
 the Gaussian(R) 98 system (copyright 1998, Gaussian, Inc.),
 the Gaussian(R) 94 system (copyright 1995, Gaussian, Inc.),
 the Gaussian 92(TM) system (copyright 1992, Gaussian, Inc.),
 the Gaussian 90(TM) system (copyright 1990, Gaussian, Inc.),
 the Gaussian 88(TM) system (copyright 1988, Gaussian, Inc.),
 the Gaussian 86(TM) system (copyright 1986, Carnegie Mellon
 University), and the Gaussian 82(TM) system (copyright 1983,
 Carnegie Mellon University). Gaussian is a federally registered
 trademark of Gaussian, Inc.
  
 This software contains proprietary and confidential information,
 including trade secrets, belonging to Gaussian, Inc.
  
 This software is provided under written license and may be
 used, copied, transmitted, or stored only in accord with that
 written license.
  
 The following legend is applicable only to US Government
 contracts under FAR:
  
                    RESTRICTED RIGHTS LEGEND
  
 Use, reproduction and disclosure by the US Government is
 subject to restrictions as set forth in subparagraphs (a)
 and (c) of the Commercial Computer Software - Restricted
 Rights clause in FAR 52.227-19.
  
 Gaussian, Inc.
 340 Quinnipiac St., Bldg. 40, Wallingford CT 06492
  
  
 ---------------------------------------------------------------
 Warning -- This program may not be used in any manner that
 competes with the business of Gaussian, Inc. or will provide
 assistance to any competitor of Gaussian, Inc.  The licensee
 of this program is prohibited from giving any competitor of
 Gaussian, Inc. access to this program.  By using this program,
 the user acknowledges that Gaussian, Inc. is engaged in the
 business of creating and licensing software in the field of
 computational chemistry and represents and warrants to the
 licensee that it is not a competitor of Gaussian, Inc. and that
 it will not use this program in any manner prohibited above.
 ---------------------------------------------------------------
  

 Cite this work as:
 Gaussian 16, Revision A.03,
 M. J. Frisch, G. W. Trucks, H. B. Schlegel, G. E. Scuseria, 
 M. A. Robb, J. R. Cheeseman, G. Scalmani, V. Barone, 
 G. A. Petersson, H. Nakatsuji, X. Li, M. Caricato, A. V. Marenich, 
 J. Bloino, B. G. Janesko, R. Gomperts, B. Mennucci, H. P. Hratchian, 
 J. V. Ortiz, A. F. Izmaylov, J. L. Sonnenberg, D. Williams-Young, 
 F. Ding, F. Lipparini, F. Egidi, J. Goings, B. Peng, A. Petrone, 
 T. Henderson, D. Ranasinghe, V. G. Zakrzewski, J. Gao, N. Rega, 
 G. Zheng, W. Liang, M. Hada, M. Ehara, K. Toyota, R. Fukuda, 
 J. Hasegawa, M. Ishida, T. Nakajima, Y. Honda, O. Kitao, H. Nakai, 
 T. Vreven, K. Throssell, J. A. Montgomery, Jr., J. E. Peralta, 
 F. Ogliaro, M. J. Bearpark, J. J. Heyd, E. N. Brothers, K. N. Kudin, 
 V. N. Staroverov, T. A. Keith, R. Kobayashi, J. Normand, 
 K. Raghavachari, A. P. Rendell, J. C. Burant, S. S. Iyengar, 
 J. Tomasi, M. Cossi, J. M. Millam, M. Klene, C. Adamo, R. Cammi, 
 J. W. Ochterski, R. L. Martin, K. Morokuma, O. Farkas, 
 J. B. Foresman, and D. J. Fox, Gaussian, Inc., Wallingford CT, 2016.
 
 ******************************************
 Gaussian 16:  AS64L-G16RevA.03 25-Dec-2016
                 8-Jan-2020 
 ******************************************
 %nprocshared=16
 Will use up to   16 processors via shared memory.
 %mem=32GB
 ----------------------------------------------------------------------
 #p opt=modredundant b3lyp/6-31+g(d) scrf=(smd, solvent=tetrahydrofuran
 )
 ----------------------------------------------------------------------
 1/18=120,19=15,26=3,38=1/1,3;
 2/9=110,12=2,17=6,18=5,40=1/2;
 3/5=1,6=6,7=11,11=2,25=1,30=1,70=32201,71=1,72=20,74=-5/1,2,3;
 4//1;
 5/5=2,38=5,53=20/2;
 6/7=2,8=2,9=2,10=2,28=1/1;
 7//1,2,3,16;
 1/18=20,19=15,26=3/3(2);
 2/9=110/2;
 99//99;
 2/9=110/2;
 3/5=1,6=6,7=11,11=2,25=1,30=1,70=32205,71=1,72=20,74=-5/1,2,3;
 4/5=5,16=3,69=1/1;
 5/5=2,38=5,53=20/2;
 7//1,2,3,16;
 1/18=20,19=15,26=3/3(-5);
 2/9=110/2;
 6/7=2,8=2,9=2,10=2,19=2,28=1/1;
 99/9=1/99;
 Leave Link    1 at Wed Jan  8 00:01:30 2020, MaxMem=  4294967296 cpu:               1.7 elap:               0.1
 (Enter /home/cwagen/sw/g16/g16/l101.exe)
 -----
 title
 -----
 Symbolic Z-matrix:
 Charge = -1 Multiplicity = 1
 6                    -0.19426  -0.292    -0.21291 
 8                    -0.25532  -0.66526  -1.45426 
 6                    -0.33095  -1.45422   0.81632 
 1                    -0.18039  -1.13044   1.85373 
 1                    -1.34067  -1.87301   0.71427 
 1                     0.39707  -2.23395   0.57058 
 17                   -1.33187   1.15115   0.26998 
 6                     2.21625   0.5521    0.27382 
 7                     3.35082   0.8324    0.30413 
 
 Add virtual bond connecting atoms C8         and C1         Dist= 4.91D+00.
 The following ModRedundant input section has been read:
 B       1       7 F                                                           
 B       1       8 F                                                           
 
 ITRead=  0  0  0  0  0  0  0  0  0
 MicOpt= -1 -1 -1 -1 -1 -1 -1 -1 -1
 NAtoms=      9 NQM=        9 NQMF=       0 NMMI=      0 NMMIF=      0
                NMic=       0 NMicF=      0.
                    Isotopes and Nuclear Properties:
 (Nuclear quadrupole moments (NQMom) in fm**2, nuclear magnetic moments (NMagM)
  in nuclear magnetons)

  Atom         1           2           3           4           5           6           7           8           9
 IAtWgt=          12          16          12           1           1           1          35          12          14
 AtmWgt=  12.0000000  15.9949146  12.0000000   1.0078250   1.0078250   1.0078250  34.9688527  12.0000000  14.0030740
 NucSpn=           0           0           0           1           1           1           3           0           2
 AtZEff=   0.0000000   0.0000000   0.0000000   0.0000000   0.0000000   0.0000000   0.0000000   0.0000000   0.0000000
 NQMom=    0.0000000   0.0000000   0.0000000   0.0000000   0.0000000   0.0000000  -8.1650000   0.0000000   2.0440000
 NMagM=    0.0000000   0.0000000   0.0000000   2.7928460   2.7928460   2.7928460   0.8218740   0.0000000   0.4037610
 AtZNuc=   6.0000000   8.0000000   6.0000000   1.0000000   1.0000000   1.0000000  17.0000000   6.0000000   7.0000000
 Leave Link  101 at Wed Jan  8 00:01:31 2020, MaxMem=  4294967296 cpu:               7.9 elap:               0.6
 (Enter /home/cwagen/sw/g16/g16/l103.exe)

 GradGradGradGradGradGradGradGradGradGradGradGradGradGradGradGradGradGrad
 Berny optimization.
 Initialization pass.
                           ----------------------------
                           !    Initial Parameters    !
                           ! (Angstroms and Degrees)  !
 --------------------------                            --------------------------
 ! Name  Definition              Value          Derivative Info.                !
 --------------------------------------------------------------------------------
 ! R1    R(1,2)                  1.2977         estimate D2E/DX2                !
 ! R2    R(1,3)                  1.5584         estimate D2E/DX2                !
 ! R3    R(1,7)                  1.9            Frozen                          !
 ! R4    R(1,8)                  2.6            Frozen                          !
 ! R5    R(3,4)                  1.0971         estimate D2E/DX2                !
 ! R6    R(3,5)                  1.0979         estimate D2E/DX2                !
 ! R7    R(3,6)                  1.0947         estimate D2E/DX2                !
 ! R8    R(8,9)                  1.1691         estimate D2E/DX2                !
 ! A1    A(2,1,3)              114.4006         estimate D2E/DX2                !
 ! A2    A(2,1,7)              115.6846         estimate D2E/DX2                !
 ! A3    A(2,1,8)              108.426          estimate D2E/DX2                !
 ! A4    A(3,1,7)              110.248          estimate D2E/DX2                !
 ! A5    A(3,1,8)              101.5248         estimate D2E/DX2                !
 ! A6    A(7,1,8)              105.1256         estimate D2E/DX2                !
 ! A7    A(1,3,4)              113.1005         estimate D2E/DX2                !
 ! A8    A(1,3,5)              107.683          estimate D2E/DX2                !
 ! A9    A(1,3,6)              108.9421         estimate D2E/DX2                !
 ! A10   A(4,3,5)              109.0662         estimate D2E/DX2                !
 ! A11   A(4,3,6)              109.3417         estimate D2E/DX2                !
 ! A12   A(5,3,6)              108.6067         estimate D2E/DX2                !
 ! A13   L(1,8,9,6,-1)         177.1877         estimate D2E/DX2                !
 ! A14   L(1,8,9,6,-2)         164.4688         estimate D2E/DX2                !
 ! D1    D(2,1,3,4)            174.4714         estimate D2E/DX2                !
 ! D2    D(2,1,3,5)            -64.9488         estimate D2E/DX2                !
 ! D3    D(2,1,3,6)             52.6633         estimate D2E/DX2                !
 ! D4    D(7,1,3,4)            -53.1046         estimate D2E/DX2                !
 ! D5    D(7,1,3,5)             67.4752         estimate D2E/DX2                !
 ! D6    D(7,1,3,6)           -174.9127         estimate D2E/DX2                !
 ! D7    D(8,1,3,4)             57.938          estimate D2E/DX2                !
 ! D8    D(8,1,3,5)            178.5177         estimate D2E/DX2                !
 ! D9    D(8,1,3,6)            -63.8702         estimate D2E/DX2                !
 --------------------------------------------------------------------------------
 Trust Radius=3.00D-01 FncErr=1.00D-07 GrdErr=1.00D-06 EigMax=2.50D+02 EigMin=1.00D-04
 Number of steps in this run=     41 maximum allowed number of steps=    100.
 GradGradGradGradGradGradGradGradGradGradGradGradGradGradGradGradGradGrad

 Leave Link  103 at Wed Jan  8 00:01:31 2020, MaxMem=  4294967296 cpu:               1.0 elap:               0.1
 (Enter /home/cwagen/sw/g16/g16/l202.exe)
                          Input orientation:                          
 ---------------------------------------------------------------------
 Center     Atomic      Atomic             Coordinates (Angstroms)
 Number     Number       Type             X           Y           Z
 ---------------------------------------------------------------------
      1          6           0       -0.194263   -0.291999   -0.212908
      2          8           0       -0.255321   -0.665256   -1.454255
      3          6           0       -0.330945   -1.454221    0.816316
      4          1           0       -0.180394   -1.130438    1.853734
      5          1           0       -1.340665   -1.873010    0.714272
      6          1           0        0.397068   -2.233949    0.570583
      7         17           0       -1.331867    1.151149    0.269979
      8          6           0        2.216254    0.552100    0.273822
      9          7           0        3.350825    0.832398    0.304125
 ---------------------------------------------------------------------
                    Distance matrix (angstroms):
                    1          2          3          4          5
     1  C    0.000000
     2  O    1.297687   0.000000
     3  C    1.558443   2.404928   0.000000
     4  H    2.230287   3.341377   1.097150   0.000000
     5  H    2.161827   2.709087   1.097876   1.787740   0.000000
     6  H    2.175937   2.643176   1.094698   1.788205   1.780629
     7  Cl   1.900000   2.726034   2.843991   3.006628   3.056634
     8  C    2.600000   3.252213   3.287528   3.327307   4.327450
     9  N    3.754895   4.282424   4.364217   4.327068   5.431163
                    6          7          8          9
     6  H    0.000000
     7  Cl   3.812934   0.000000
     8  C    3.340594   3.598338   0.000000
     9  N    4.265930   4.693653   1.169075   0.000000
 Stoichiometry    C3H3ClNO(1-)
 Framework group  C1[X(C3H3ClNO)]
 Deg. of freedom    21
 Full point group                 C1      NOp   1
 Largest Abelian subgroup         C1      NOp   1
 Largest concise Abelian subgroup C1      NOp   1
                         Standard orientation:                         
 ---------------------------------------------------------------------
 Center     Atomic      Atomic             Coordinates (Angstroms)
 Number     Number       Type             X           Y           Z
 ---------------------------------------------------------------------
      1          6           0       -0.383670    0.440290    0.209433
      2          8           0       -0.525335    0.958221    1.390818
      3          6           0       -0.558843    1.452496   -0.962531
      4          1           0       -0.340427    1.015584   -1.944946
      5          1           0       -1.599580    1.801794   -0.948741
      6          1           0        0.099757    2.310259   -0.792673
      7         17           0       -1.392327   -1.134622   -0.125625
      8          6           0        2.100246   -0.269601   -0.084196
      9          7           0        3.252299   -0.463421   -0.040115
 ---------------------------------------------------------------------
 Rotational constants (GHZ):           3.3941316           1.5342047           1.3206134
 Leave Link  202 at Wed Jan  8 00:01:31 2020, MaxMem=  4294967296 cpu:               2.1 elap:               0.2
 (Enter /home/cwagen/sw/g16/g16/l301.exe)
 Standard basis: 6-31+G(d) (6D, 7F)
 Ernie: Thresh=  0.10000D-02 Tol=  0.10000D-05 Strict=F.
 There are   124 symmetry adapted cartesian basis functions of A   symmetry.
 There are   124 symmetry adapted basis functions of A   symmetry.
   124 basis functions,   228 primitive gaussians,   124 cartesian basis functions
    27 alpha electrons       27 beta electrons
       nuclear repulsion energy       234.1362912553 Hartrees.
 IExCor=  402 DFT=T Ex+Corr=B3LYP ExCW=0 ScaHFX=  0.200000
 ScaDFX=  0.800000  0.720000  1.000000  0.810000 ScalE2=  1.000000  1.000000
 IRadAn=      5 IRanWt=     -1 IRanGd=            0 ICorTp=0 IEmpDi=  4
 NAtoms=    9 NActive=    9 NUniq=    9 SFac= 1.00D+00 NAtFMM=   60 NAOKFM=F Big=F
 Integral buffers will be    131072 words long.
 Raffenetti 2 integral format.
 Two-electron integral symmetry is turned on.
 ------------------------------------------------------------------------------
 Polarizable Continuum Model (PCM)
 =================================
 Model                : PCM.
 Atomic radii         : SMD-Coulomb.
 Polarization charges : Total charges.
 Charge compensation  : None.
 Solution method      : On-the-fly selection.
 Cavity type          : VdW (van der Waals Surface) (Alpha=1.000).
 Cavity algorithm     : GePol (No added spheres)
                        Default sphere list used, NSphG=    9.
                        Lebedev-Laikov grids with approx.  5.0 points / Ang**2.
                        Smoothing algorithm: York/Karplus (Gamma=1.0000).
                        Polarization charges: spherical gaussians, with
                                              point-specific exponents (IZeta= 3).
                        Self-potential: point-specific (ISelfS= 7).
                        Self-field    : sphere-specific E.n sum rule (ISelfD= 2).
 1st derivatives      : Analytical E(r).r(x)/FMM algorithm (CHGder, D1EAlg=3).
                        Cavity 1st derivative terms included.
 Solvent              : TetraHydroFuran, Eps=   7.425700 Eps(inf)=   1.974025
 ------------------------------------------------------------------------------
 Spheres list:
 ISph  on   Nord     Re0    Alpha      Xe            Ye            Ze
    1   C      1    1.8500  1.000     -0.383670      0.440290      0.209433
    2   O      2    2.2940  1.000     -0.525335      0.958221      1.390818
    3   C      3    1.8500  1.000     -0.558843      1.452496     -0.962531
    4   H      4    1.2000  1.000     -0.340427      1.015584     -1.944946
    5   H      5    1.2000  1.000     -1.599580      1.801794     -0.948741
    6   H      6    1.2000  1.000      0.099757      2.310259     -0.792673
    7  Cl      7    2.3800  1.000     -1.392327     -1.134622     -0.125625
    8   C      8    1.8500  1.000      2.100246     -0.269601     -0.084196
    9   N      9    1.8900  1.000      3.252299     -0.463421     -0.040115
 ------------------------------------------------------------------------------
 GePol: Number of generator spheres                  =       9
 GePol: Total number of spheres                      =       9
 GePol: Number of exposed spheres                    =       9 (100.00%)
 GePol: Number of points                             =    1240
 GePol: Average weight of points                     =       0.13
 GePol: Minimum weight of points                     =   0.12D-08
 GePol: Maximum weight of points                     =    0.18138
 GePol: Number of points with low weight             =      38
 GePol: Fraction of low-weight points (<1% of avg)   =       3.06%
 GePol: Cavity surface area                          =    167.254 Ang**2
 GePol: Cavity volume                                =    150.529 Ang**3
 ------------------------------------------------------------------------------
 Atomic radii for non-electrostatic terms: SMD-CDS.
 ------------------------------------------------------------------------------
 PCM non-electrostatic energy =         0.0009809604 Hartrees.
 Nuclear repulsion after PCM non-electrostatic terms =      234.1372722158 Hartrees.
 Leave Link  301 at Wed Jan  8 00:01:31 2020, MaxMem=  4294967296 cpu:               2.7 elap:               0.2
 (Enter /home/cwagen/sw/g16/g16/l302.exe)
 NPDir=0 NMtPBC=     1 NCelOv=     1 NCel=       1 NClECP=     1 NCelD=      1
         NCelK=      1 NCelE2=     1 NClLst=     1 CellRange=     0.0.
 One-electron integrals computed using PRISM.
 One-electron integral symmetry used in STVInt
 NBasis=   124 RedAO= T EigKep=  1.10D-04  NBF=   124
 NBsUse=   124 1.00D-06 EigRej= -1.00D+00 NBFU=   124
 Precomputing XC quadrature grid using
 IXCGrd= 4 IRadAn=           5 IRanWt=          -1 IRanGd=           0 AccXCQ= 0.00D+00.
 Generated NRdTot=       0 NPtTot=           0 NUsed=           0 NTot=          32
 NSgBfM=   124   124   124   124   124 MxSgAt=     9 MxSgA2=     9.
 Leave Link  302 at Wed Jan  8 00:01:33 2020, MaxMem=  4294967296 cpu:              22.8 elap:               1.7
 (Enter /home/cwagen/sw/g16/g16/l303.exe)
 DipDrv:  MaxL=1.
 Leave Link  303 at Wed Jan  8 00:01:33 2020, MaxMem=  4294967296 cpu:               2.9 elap:               0.3
 (Enter /home/cwagen/sw/g16/g16/l401.exe)
 ExpMin= 4.38D-02 ExpMax= 2.52D+04 ExpMxC= 3.78D+03 IAcc=3 IRadAn=         5 AccDes= 0.00D+00
 Harris functional with IExCor=  402 and IRadAn=       5 diagonalized for initial guess.
 HarFok:  IExCor=  402 AccDes= 0.00D+00 IRadAn=         5 IDoV= 1 UseB2=F ITyADJ=14
 ICtDFT=  3500011 ScaDFX=  1.000000  1.000000  1.000000  1.000000
 FoFCou: FMM=F IPFlag=           0 FMFlag=      100000 FMFlg1=           0
         NFxFlg=           0 DoJE=T BraDBF=F KetDBF=T FulRan=T
         wScrn=  0.000000 ICntrl=       500 IOpCl=  0 I1Cent=   200000004 NGrid=           0
         NMat0=    1 NMatS0=      1 NMatT0=    0 NMatD0=    1 NMtDS0=    0 NMtDT0=    0
 Petite list used in FoFCou.
 Harris En= -706.398681670909    
 JPrj=0 DoOrth=F DoCkMO=F.
 Leave Link  401 at Wed Jan  8 00:01:35 2020, MaxMem=  4294967296 cpu:              22.9 elap:               1.6
 (Enter /home/cwagen/sw/g16/g16/l502.exe)
 Keep R1 ints in memory in canonical form, NReq=45236517.
 FoFCou: FMM=F IPFlag=           0 FMFlag=           0 FMFlg1=           0
         NFxFlg=           0 DoJE=F BraDBF=F KetDBF=F FulRan=T
         wScrn=  0.000000 ICntrl=       600 IOpCl=  0 I1Cent=           0 NGrid=           0
         NMat0=    1 NMatS0=   7750 NMatT0=    0 NMatD0=    1 NMtDS0=    0 NMtDT0=    0
 Symmetry not used in FoFCou.
 Two-electron integral symmetry not used.
 Closed shell SCF:
 Using DIIS extrapolation, IDIIS=  1040.
 NGot=  4294967296 LenX=  4264898079 LenY=  4264882262
 Requested convergence on RMS density matrix=1.00D-08 within 128 cycles.
 Requested convergence on MAX density matrix=1.00D-06.
 Requested convergence on             energy=1.00D-06.
 No special actions if energy rises.

 Cycle   1  Pass 1  IDiag  1:
 Inv3:  Mode=1 IEnd=     4612800.
 Iteration    1 A*A^-1 deviation from unit magnitude is 3.33D-15 for   1234.
 Iteration    1 A*A^-1 deviation from orthogonality  is 1.78D-15 for   1238   1237.
 Iteration    1 A^-1*A deviation from unit magnitude is 3.22D-15 for   1223.
 Iteration    1 A^-1*A deviation from orthogonality  is 1.19D-14 for    357    349.
 E= -706.150045265816    
 DIIS: error= 2.69D-02 at cycle   1 NSaved=   1.
 NSaved= 1 IEnMin= 1 EnMin= -706.150045265816     IErMin= 1 ErrMin= 2.69D-02
 ErrMax= 2.69D-02  0.00D+00 EMaxC= 1.00D-01 BMatC= 2.44D-01 BMatP= 2.44D-01
 IDIUse=3 WtCom= 7.31D-01 WtEn= 2.69D-01
 Coeff-Com:  0.100D+01
 Coeff-En:   0.100D+01
 Coeff:      0.100D+01
 Gap=     0.281 Goal=   None    Shift=    0.000
 GapD=    0.281 DampG=1.000 DampE=0.500 DampFc=0.5000 IDamp=-1.
 Damping current iteration by 5.00D-01
 RMSDP=1.69D-02 MaxDP=7.12D-01              OVMax= 4.22D-01

 Cycle   2  Pass 1  IDiag  1:
 E= -706.057233027939     Delta-E=        0.092812237877 Rises=F Damp=T
 DIIS: error= 2.67D-02 at cycle   2 NSaved=   2.
 NSaved= 2 IEnMin= 1 EnMin= -706.150045265816     IErMin= 2 ErrMin= 2.67D-02
 ErrMax= 2.67D-02  0.00D+00 EMaxC= 1.00D-01 BMatC= 1.47D-01 BMatP= 2.44D-01
 IDIUse=3 WtCom= 7.33D-01 WtEn= 2.67D-01
 Coeff-Com:  0.423D+00 0.577D+00
 Coeff-En:   0.610D+00 0.390D+00
 Coeff:      0.473D+00 0.527D+00
 Gap=     0.107 Goal=   None    Shift=    0.000
 RMSDP=5.66D-03 MaxDP=1.12D-01 DE= 9.28D-02 OVMax= 4.12D-01

 Cycle   3  Pass 1  IDiag  1:
 E= -706.318189985948     Delta-E=       -0.260956958009 Rises=F Damp=F
 DIIS: error= 1.59D-02 at cycle   3 NSaved=   3.
 NSaved= 3 IEnMin= 3 EnMin= -706.318189985948     IErMin= 3 ErrMin= 1.59D-02
 ErrMax= 1.59D-02  0.00D+00 EMaxC= 1.00D-01 BMatC= 6.33D-02 BMatP= 1.47D-01
 IDIUse=3 WtCom= 8.41D-01 WtEn= 1.59D-01
 Coeff-Com:  0.205D+00 0.369D+00 0.425D+00
 Coeff-En:   0.290D-01 0.000D+00 0.971D+00
 Coeff:      0.177D+00 0.310D+00 0.512D+00
 Gap=     0.191 Goal=   None    Shift=    0.000
 RMSDP=4.59D-03 MaxDP=2.29D-01 DE=-2.61D-01 OVMax= 1.39D-01

 Cycle   4  Pass 1  IDiag  1:
 E= -706.375008479742     Delta-E=       -0.056818493793 Rises=F Damp=F
 DIIS: error= 5.32D-03 at cycle   4 NSaved=   4.
 NSaved= 4 IEnMin= 4 EnMin= -706.375008479742     IErMin= 4 ErrMin= 5.32D-03
 ErrMax= 5.32D-03  0.00D+00 EMaxC= 1.00D-01 BMatC= 8.37D-03 BMatP= 6.33D-02
 IDIUse=3 WtCom= 9.47D-01 WtEn= 5.32D-02
 Coeff-Com:  0.350D-01 0.536D-01 0.272D+00 0.639D+00
 Coeff-En:   0.000D+00 0.000D+00 0.101D+00 0.899D+00
 Coeff:      0.331D-01 0.507D-01 0.263D+00 0.653D+00
 Gap=     0.194 Goal=   None    Shift=    0.000
 RMSDP=9.21D-04 MaxDP=2.00D-02 DE=-5.68D-02 OVMax= 3.54D-02

 Cycle   5  Pass 1  IDiag  1:
 E= -706.381413742953     Delta-E=       -0.006405263212 Rises=F Damp=F
 DIIS: error= 2.72D-03 at cycle   5 NSaved=   5.
 NSaved= 5 IEnMin= 5 EnMin= -706.381413742953     IErMin= 5 ErrMin= 2.72D-03
 ErrMax= 2.72D-03  0.00D+00 EMaxC= 1.00D-01 BMatC= 1.14D-03 BMatP= 8.37D-03
 IDIUse=3 WtCom= 9.73D-01 WtEn= 2.72D-02
 Coeff-Com:  0.467D-02 0.225D-02 0.134D+00 0.423D+00 0.436D+00
 Coeff-En:   0.000D+00 0.000D+00 0.000D+00 0.456D-01 0.954D+00
 Coeff:      0.454D-02 0.219D-02 0.130D+00 0.413D+00 0.450D+00
 Gap=     0.179 Goal=   None    Shift=    0.000
 RMSDP=4.62D-04 MaxDP=2.14D-02 DE=-6.41D-03 OVMax= 1.37D-02

 Cycle   6  Pass 1  IDiag  1:
 E= -706.382285213726     Delta-E=       -0.000871470773 Rises=F Damp=F
 DIIS: error= 9.43D-04 at cycle   6 NSaved=   6.
 NSaved= 6 IEnMin= 6 EnMin= -706.382285213726     IErMin= 6 ErrMin= 9.43D-04
 ErrMax= 9.43D-04  0.00D+00 EMaxC= 1.00D-01 BMatC= 1.53D-04 BMatP= 1.14D-03
 IDIUse=3 WtCom= 9.91D-01 WtEn= 9.43D-03
 Coeff-Com:  0.324D-03-0.435D-02 0.495D-01 0.162D+00 0.293D+00 0.500D+00
 Coeff-En:   0.000D+00 0.000D+00 0.000D+00 0.000D+00 0.134D+00 0.866D+00
 Coeff:      0.321D-03-0.431D-02 0.491D-01 0.160D+00 0.291D+00 0.503D+00
 Gap=     0.180 Goal=   None    Shift=    0.000
 RMSDP=1.18D-04 MaxDP=2.87D-03 DE=-8.71D-04 OVMax= 3.75D-03

 Cycle   7  Pass 1  IDiag  1:
 E= -706.382422883634     Delta-E=       -0.000137669908 Rises=F Damp=F
 DIIS: error= 1.52D-04 at cycle   7 NSaved=   7.
 NSaved= 7 IEnMin= 7 EnMin= -706.382422883634     IErMin= 7 ErrMin= 1.52D-04
 ErrMax= 1.52D-04  0.00D+00 EMaxC= 1.00D-01 BMatC= 6.16D-06 BMatP= 1.53D-04
 IDIUse=3 WtCom= 9.98D-01 WtEn= 1.52D-03
 Coeff-Com:  0.560D-03-0.302D-02 0.837D-02 0.203D-01 0.762D-01 0.206D+00
 Coeff-Com:  0.692D+00
 Coeff-En:   0.000D+00 0.000D+00 0.000D+00 0.000D+00 0.000D+00 0.000D+00
 Coeff-En:   0.100D+01
 Coeff:      0.559D-03-0.302D-02 0.835D-02 0.202D-01 0.761D-01 0.206D+00
 Coeff:      0.692D+00
 Gap=     0.180 Goal=   None    Shift=    0.000
 RMSDP=3.77D-05 MaxDP=5.90D-04 DE=-1.38D-04 OVMax= 9.48D-04

 Cycle   8  Pass 1  IDiag  1:
 E= -706.382428424589     Delta-E=       -0.000005540955 Rises=F Damp=F
 DIIS: error= 5.17D-05 at cycle   8 NSaved=   8.
 NSaved= 8 IEnMin= 8 EnMin= -706.382428424589     IErMin= 8 ErrMin= 5.17D-05
 ErrMax= 5.17D-05  0.00D+00 EMaxC= 1.00D-01 BMatC= 4.91D-07 BMatP= 6.16D-06
 IDIUse=1 WtCom= 1.00D+00 WtEn= 0.00D+00
 Coeff-Com:  0.413D-03-0.150D-02 0.258D-02 0.365D-02 0.244D-01 0.744D-01
 Coeff-Com:  0.312D+00 0.585D+00
 Coeff:      0.413D-03-0.150D-02 0.258D-02 0.365D-02 0.244D-01 0.744D-01
 Coeff:      0.312D+00 0.585D+00
 Gap=     0.180 Goal=   None    Shift=    0.000
 RMSDP=8.71D-06 MaxDP=2.06D-04 DE=-5.54D-06 OVMax= 2.31D-04

 Cycle   9  Pass 1  IDiag  1:
 E= -706.382428803267     Delta-E=       -0.000000378677 Rises=F Damp=F
 DIIS: error= 1.99D-05 at cycle   9 NSaved=   9.
 NSaved= 9 IEnMin= 9 EnMin= -706.382428803267     IErMin= 9 ErrMin= 1.99D-05
 ErrMax= 1.99D-05  0.00D+00 EMaxC= 1.00D-01 BMatC= 9.92D-08 BMatP= 4.91D-07
 IDIUse=1 WtCom= 1.00D+00 WtEn= 0.00D+00
 Coeff-Com:  0.218D-03-0.368D-03-0.163D-03-0.253D-02-0.156D-02 0.121D-02
 Coeff-Com:  0.335D-01 0.313D+00 0.657D+00
 Coeff:      0.218D-03-0.368D-03-0.163D-03-0.253D-02-0.156D-02 0.121D-02
 Coeff:      0.335D-01 0.313D+00 0.657D+00
 Gap=     0.180 Goal=   None    Shift=    0.000
 RMSDP=3.91D-06 MaxDP=1.07D-04 DE=-3.79D-07 OVMax= 1.66D-04

 Cycle  10  Pass 1  IDiag  1:
 E= -706.382428912422     Delta-E=       -0.000000109155 Rises=F Damp=F
 DIIS: error= 2.50D-06 at cycle  10 NSaved=  10.
 NSaved=10 IEnMin=10 EnMin= -706.382428912422     IErMin=10 ErrMin= 2.50D-06
 ErrMax= 2.50D-06  0.00D+00 EMaxC= 1.00D-01 BMatC= 2.57D-09 BMatP= 9.92D-08
 IDIUse=1 WtCom= 1.00D+00 WtEn= 0.00D+00
 Coeff-Com:  0.546D-04-0.640D-04-0.725D-04-0.673D-03-0.144D-02-0.329D-02
 Coeff-Com: -0.946D-02 0.537D-01 0.211D+00 0.750D+00
 Coeff:      0.546D-04-0.640D-04-0.725D-04-0.673D-03-0.144D-02-0.329D-02
 Coeff:     -0.946D-02 0.537D-01 0.211D+00 0.750D+00
 Gap=     0.180 Goal=   None    Shift=    0.000
 RMSDP=1.09D-06 MaxDP=4.55D-05 DE=-1.09D-07 OVMax= 1.20D-05

 Cycle  11  Pass 1  IDiag  1:
 E= -706.382428914862     Delta-E=       -0.000000002440 Rises=F Damp=F
 DIIS: error= 1.01D-06 at cycle  11 NSaved=  11.
 NSaved=11 IEnMin=11 EnMin= -706.382428914862     IErMin=11 ErrMin= 1.01D-06
 ErrMax= 1.01D-06  0.00D+00 EMaxC= 1.00D-01 BMatC= 2.32D-10 BMatP= 2.57D-09
 IDIUse=1 WtCom= 1.00D+00 WtEn= 0.00D+00
 Coeff-Com:  0.947D-05 0.362D-06-0.203D-04-0.141D-03-0.607D-03-0.178D-02
 Coeff-Com: -0.752D-02-0.174D-02 0.481D-01 0.330D+00 0.633D+00
 Coeff:      0.947D-05 0.362D-06-0.203D-04-0.141D-03-0.607D-03-0.178D-02
 Coeff:     -0.752D-02-0.174D-02 0.481D-01 0.330D+00 0.633D+00
 Gap=     0.180 Goal=   None    Shift=    0.000
 RMSDP=2.75D-07 MaxDP=1.34D-05 DE=-2.44D-09 OVMax= 8.05D-06

 Cycle  12  Pass 1  IDiag  1:
 E= -706.382428915105     Delta-E=       -0.000000000244 Rises=F Damp=F
 DIIS: error= 2.03D-07 at cycle  12 NSaved=  12.
 NSaved=12 IEnMin=12 EnMin= -706.382428915105     IErMin=12 ErrMin= 2.03D-07
 ErrMax= 2.03D-07  0.00D+00 EMaxC= 1.00D-01 BMatC= 1.29D-11 BMatP= 2.32D-10
 IDIUse=1 WtCom= 1.00D+00 WtEn= 0.00D+00
 Coeff-Com: -0.798D-06 0.424D-05 0.379D-05 0.844D-05-0.810D-04-0.320D-03
 Coeff-Com: -0.188D-02-0.505D-02 0.849D-03 0.566D-01 0.243D+00 0.707D+00
 Coeff:     -0.798D-06 0.424D-05 0.379D-05 0.844D-05-0.810D-04-0.320D-03
 Coeff:     -0.188D-02-0.505D-02 0.849D-03 0.566D-01 0.243D+00 0.707D+00
 Gap=     0.180 Goal=   None    Shift=    0.000
 RMSDP=6.40D-08 MaxDP=2.32D-06 DE=-2.44D-10 OVMax= 1.05D-06

 Cycle  13  Pass 1  IDiag  1:
 E= -706.382428915122     Delta-E=       -0.000000000017 Rises=F Damp=F
 DIIS: error= 3.52D-08 at cycle  13 NSaved=  13.
 NSaved=13 IEnMin=13 EnMin= -706.382428915122     IErMin=13 ErrMin= 3.52D-08
 ErrMax= 3.52D-08  0.00D+00 EMaxC= 1.00D-01 BMatC= 3.44D-13 BMatP= 1.29D-11
 IDIUse=1 WtCom= 1.00D+00 WtEn= 0.00D+00
 Coeff-Com: -0.740D-06 0.881D-06 0.127D-05 0.441D-05 0.152D-04 0.435D-04
 Coeff-Com:  0.915D-04-0.788D-03-0.312D-02-0.102D-01 0.113D-01 0.122D+00
 Coeff-Com:  0.880D+00
 Coeff:     -0.740D-06 0.881D-06 0.127D-05 0.441D-05 0.152D-04 0.435D-04
 Coeff:      0.915D-04-0.788D-03-0.312D-02-0.102D-01 0.113D-01 0.122D+00
 Coeff:      0.880D+00
 Gap=     0.180 Goal=   None    Shift=    0.000
 RMSDP=1.59D-08 MaxDP=3.84D-07 DE=-1.67D-11 OVMax= 3.39D-07

 Cycle  14  Pass 1  IDiag  1:
 E= -706.382428915122     Delta-E=        0.000000000000 Rises=F Damp=F
 DIIS: error= 4.60D-09 at cycle  14 NSaved=  14.
 NSaved=14 IEnMin=13 EnMin= -706.382428915122     IErMin=14 ErrMin= 4.60D-09
 ErrMax= 4.60D-09  0.00D+00 EMaxC= 1.00D-01 BMatC= 7.07D-15 BMatP= 3.44D-13
 IDIUse=1 WtCom= 1.00D+00 WtEn= 0.00D+00
 Coeff-Com: -0.112D-06 0.796D-07 0.105D-06 0.478D-06 0.461D-05 0.176D-04
 Coeff-Com:  0.638D-04 0.122D-04-0.628D-03-0.344D-02-0.450D-02-0.194D-02
 Coeff-Com:  0.153D+00 0.858D+00
 Coeff:     -0.112D-06 0.796D-07 0.105D-06 0.478D-06 0.461D-05 0.176D-04
 Coeff:      0.638D-04 0.122D-04-0.628D-03-0.344D-02-0.450D-02-0.194D-02
 Coeff:      0.153D+00 0.858D+00
 Gap=     0.180 Goal=   None    Shift=    0.000
 RMSDP=2.12D-09 MaxDP=4.24D-08 DE= 2.27D-13 OVMax= 4.74D-08

 Error on total polarization charges =  0.02465
 SCF Done:  E(RB3LYP) =  -706.382428915     A.U. after   14 cycles
            NFock= 14  Conv=0.21D-08     -V/T= 2.0060
 KE= 7.022037443445D+02 PE=-2.145576521846D+03 EE= 5.028530763710D+02
 SMD-CDS (non-electrostatic) energy       (kcal/mol) =       0.62
 (included in total energy above)
 Leave Link  502 at Wed Jan  8 00:02:06 2020, MaxMem=  4294967296 cpu:             444.1 elap:              31.0
 (Enter /home/cwagen/sw/g16/g16/l601.exe)
 Copying SCF densities to generalized density rwf, IOpCl= 0 IROHF=0.

 **********************************************************************

            Population analysis using the SCF density.

 **********************************************************************

 Orbital symmetries:
       Occupied  (A) (A) (A) (A) (A) (A) (A) (A) (A) (A) (A) (A)
                 (A) (A) (A) (A) (A) (A) (A) (A) (A) (A) (A) (A)
                 (A) (A) (A)
       Virtual   (A) (A) (A) (A) (A) (A) (A) (A) (A) (A) (A) (A)
                 (A) (A) (A) (A) (A) (A) (A) (A) (A) (A) (A) (A)
                 (A) (A) (A) (A) (A) (A) (A) (A) (A) (A) (A) (A)
                 (A) (A) (A) (A) (A) (A) (A) (A) (A) (A) (A) (A)
                 (A) (A) (A) (A) (A) (A) (A) (A) (A) (A) (A) (A)
                 (A) (A) (A) (A) (A) (A) (A) (A) (A) (A) (A) (A)
                 (A) (A) (A) (A) (A) (A) (A) (A) (A) (A) (A) (A)
                 (A) (A) (A) (A) (A) (A) (A) (A) (A) (A) (A) (A)
                 (A)
 The electronic state is 1-A.
 Alpha  occ. eigenvalues -- -101.52609 -19.15153 -14.27216 -10.33534 -10.19020
 Alpha  occ. eigenvalues --  -10.14303  -9.44166  -7.20484  -7.19658  -7.19595
 Alpha  occ. eigenvalues --   -1.00722  -0.83347  -0.80857  -0.71840  -0.53747
 Alpha  occ. eigenvalues --   -0.44258  -0.43034  -0.42079  -0.37791  -0.36637
 Alpha  occ. eigenvalues --   -0.34355  -0.29756  -0.29581  -0.28000  -0.27895
 Alpha  occ. eigenvalues --   -0.26225  -0.24472
 Alpha virt. eigenvalues --   -0.06478   0.01886   0.03435   0.04958   0.05427
 Alpha virt. eigenvalues --    0.05961   0.07748   0.08500   0.08876   0.09678
 Alpha virt. eigenvalues --    0.10683   0.11083   0.11265   0.12908   0.13423
 Alpha virt. eigenvalues --    0.14143   0.15376   0.16242   0.18177   0.21469
 Alpha virt. eigenvalues --    0.22682   0.23919   0.24535   0.25518   0.26361
 Alpha virt. eigenvalues --    0.26537   0.28477   0.28503   0.31304   0.33742
 Alpha virt. eigenvalues --    0.34696   0.38646   0.41601   0.56326   0.57801
 Alpha virt. eigenvalues --    0.63120   0.64316   0.65375   0.67165   0.68706
 Alpha virt. eigenvalues --    0.71413   0.72634   0.74532   0.78597   0.79919
 Alpha virt. eigenvalues --    0.82048   0.85670   0.90173   0.91074   0.94713
 Alpha virt. eigenvalues --    0.98205   1.00441   1.01635   1.02189   1.03587
 Alpha virt. eigenvalues --    1.06162   1.09186   1.15613   1.20596   1.21767
 Alpha virt. eigenvalues --    1.29968   1.31294   1.34432   1.35290   1.49104
 Alpha virt. eigenvalues --    1.52379   1.59806   1.60007   1.60284   1.61515
 Alpha virt. eigenvalues --    1.63782   1.73263   1.77951   1.81043   1.87110
 Alpha virt. eigenvalues --    1.90941   1.97897   2.02811   2.02956   2.14971
 Alpha virt. eigenvalues --    2.20204   2.25349   2.29447   2.49018   2.50322
 Alpha virt. eigenvalues --    2.55348   2.66560   2.66761   2.72578   2.97177
 Alpha virt. eigenvalues --    3.10463   4.01316   4.15930   4.25368   4.30710
 Alpha virt. eigenvalues --    4.35561   4.45497
          Condensed to atoms (all electrons):
               1          2          3          4          5          6
     1  C    5.883632   0.442516  -0.261495  -0.067505   0.005755  -0.072579
     2  O    0.442516   8.164530  -0.105798   0.008651  -0.011742  -0.001366
     3  C   -0.261495  -0.105798   5.975862   0.379094   0.350044   0.401639
     4  H   -0.067505   0.008651   0.379094   0.473578  -0.027910  -0.023022
     5  H    0.005755  -0.011742   0.350044  -0.027910   0.459755  -0.023363
     6  H   -0.072579  -0.001366   0.401639  -0.023022  -0.023363   0.455911
     7  Cl  -0.249720  -0.094185   0.071215   0.011815  -0.012988   0.010125
     8  C    0.335380  -0.068686  -0.254397   0.002290   0.003467  -0.001083
     9  N   -0.017543   0.000040   0.004802  -0.000210  -0.000016  -0.000063
               7          8          9
     1  C   -0.249720   0.335380  -0.017543
     2  O   -0.094185  -0.068686   0.000040
     3  C    0.071215  -0.254397   0.004802
     4  H    0.011815   0.002290  -0.000210
     5  H   -0.012988   0.003467  -0.000016
     6  H    0.010125  -0.001083  -0.000063
     7  Cl  17.395371  -0.067477  -0.002183
     8  C   -0.067477   5.564179   0.640565
     9  N   -0.002183   0.640565   7.019047
 Mulliken charges:
               1
     1  C    0.001558
     2  O   -0.333961
     3  C   -0.560966
     4  H    0.243218
     5  H    0.256998
     6  H    0.253801
     7  Cl  -0.061972
     8  C   -0.154239
     9  N   -0.644438
 Sum of Mulliken charges =  -1.00000
 Mulliken charges with hydrogens summed into heavy atoms:
               1
     1  C    0.001558
     2  O   -0.333961
     3  C    0.193050
     7  Cl  -0.061972
     8  C   -0.154239
     9  N   -0.644438
 Electronic spatial extent (au):  <R**2>=            927.4617
 Charge=             -1.0000 electrons
 Dipole moment (field-independent basis, Debye):
    X=             -9.3248    Y=              2.9334    Z=             -3.0019  Tot=             10.2258
 Quadrupole moment (field-independent basis, Debye-Ang):
   XX=            -81.8310   YY=            -46.8373   ZZ=            -49.3628
   XY=              3.2134   XZ=              2.5050   YZ=             -4.2470
 Traceless Quadrupole moment (field-independent basis, Debye-Ang):
   XX=            -22.4873   YY=             12.5064   ZZ=              9.9809
   XY=              3.2134   XZ=              2.5050   YZ=             -4.2470
 Octapole moment (field-independent basis, Debye-Ang**2):
  XXX=           -141.2353  YYY=              7.1477  ZZZ=             -5.6654  XYY=            -11.3219
  XXY=             20.5259  XXZ=              1.2477  XZZ=             -6.6735  YZZ=             -1.6460
  YYZ=             -4.1174  XYZ=              1.8050
 Hexadecapole moment (field-independent basis, Debye-Ang**3):
 XXXX=          -1266.5151 YYYY=           -307.1587 ZZZZ=           -186.7417 XXXY=             63.4119
 XXXZ=              7.5930 YYYX=             14.2683 YYYZ=             -4.0819 ZZZX=              4.5536
 ZZZY=             -4.5911 XXYY=           -201.6990 XXZZ=           -178.1527 YYZZ=            -86.8604
 XXYZ=             -1.3579 YYXZ=              3.6308 ZZXY=              4.3992
 N-N= 2.341372722158D+02 E-N=-2.145576521931D+03  KE= 7.022037443445D+02
 No NMR shielding tensors so no spin-rotation constants.
 Leave Link  601 at Wed Jan  8 00:02:07 2020, MaxMem=  4294967296 cpu:              11.8 elap:               0.9
 (Enter /home/cwagen/sw/g16/g16/l701.exe)
 ... and contract with generalized density number  0.
 Compute integral first derivatives.
 D1PCM: PCM CHGder 1st derivatives, ID1Alg=3 FixD1E=F DoIter=F DoCFld=F I1PDM=0.
 GePol: Maximum number of non-zero 1st derivatives   =     356
 Leave Link  701 at Wed Jan  8 00:02:10 2020, MaxMem=  4294967296 cpu:              53.6 elap:               3.6
 (Enter /home/cwagen/sw/g16/g16/l702.exe)
 L702 exits ... SP integral derivatives will be done elsewhere.
 Leave Link  702 at Wed Jan  8 00:02:10 2020, MaxMem=  4294967296 cpu:               1.1 elap:               0.1
 (Enter /home/cwagen/sw/g16/g16/l703.exe)
 Integral derivatives from FoFJK, PRISM(SPDF).
 Compute integral first derivatives, UseDBF=F ICtDFT=           0.
 Calling FoFJK, ICntrl=      2127 FMM=F ISym2X=0 I1Cent= 0 IOpClX= 0 NMat=1 NMatS=1 NMatT=0.
 FoFJK:  IHMeth= 1 ICntrl=    2127 DoSepK=F KAlg= 0 I1Cent=           0 FoldK=F
 IRaf=         0 NMat=       1 IRICut=       1 DoRegI=T DoRafI=F ISym2E= 0 IDoP0=0 IntGTp=1.
 FoFCou: FMM=F IPFlag=           0 FMFlag=      100000 FMFlg1=         800
         NFxFlg=           0 DoJE=F BraDBF=F KetDBF=F FulRan=T
         wScrn=  0.000000 ICntrl=      2127 IOpCl=  0 I1Cent=           0 NGrid=           0
         NMat0=    1 NMatS0=      1 NMatT0=    0 NMatD0=    1 NMtDS0=    0 NMtDT0=    0
 Symmetry not used in FoFCou.
 Leave Link  703 at Wed Jan  8 00:02:13 2020, MaxMem=  4294967296 cpu:              31.5 elap:               2.3
 (Enter /home/cwagen/sw/g16/g16/l716.exe)
 Dipole        =-3.66865550D+00 1.15408622D+00-1.18101972D+00
 ***** Axes restored to original set *****
 -------------------------------------------------------------------
 Center     Atomic                   Forces (Hartrees/Bohr)
 Number     Number              X              Y              Z
 -------------------------------------------------------------------
      1        6          -0.048178198   -0.073523299   -0.096884499
      2        8           0.021151500    0.050386675    0.099627934
      3        6           0.017951592    0.019695716    0.005772616
      4        1           0.000045013    0.000367758   -0.003050128
      5        1           0.000751712    0.004526362   -0.002545456
      6        1           0.000325392    0.002303609   -0.001027264
      7       17           0.016722242   -0.001371073   -0.001670206
      8        6          -0.026798920   -0.006973418   -0.000701523
      9        7           0.018029666    0.004587670    0.000478526
 -------------------------------------------------------------------
 Cartesian Forces:  Max     0.099627934 RMS     0.034539427
 Leave Link  716 at Wed Jan  8 00:02:13 2020, MaxMem=  4294967296 cpu:               1.0 elap:               0.1
 (Enter /home/cwagen/sw/g16/g16/l103.exe)

 GradGradGradGradGradGradGradGradGradGradGradGradGradGradGradGradGradGrad
 Berny optimization.
 FormGI is forming the generalized inverse of G from B-inverse, IUseBI=4.
 Internal  Forces:  Max     0.110803514 RMS     0.023019595
 Search for a local minimum.
 Step number   1 out of a maximum of   41
 All quantities printed in internal units (Hartrees-Bohrs-Radians)
 RMS Force = .23647D-01 SwitMx=.10000D-02 MixMth= 1
 Mixed Optimization -- RFO/linear search
 Second derivative matrix not updated -- first step.
 ITU=  0
     Eigenvalues ---    0.00230   0.04746   0.04746   0.05330   0.05908
     Eigenvalues ---    0.07453   0.10176   0.16000   0.16000   0.16000
     Eigenvalues ---    0.25000   0.25000   0.25000   0.26946   0.33918
     Eigenvalues ---    0.33999   0.34275   0.67840   1.220341000.00000
     Eigenvalues --- 1000.000001000.000001000.000001000.000001000.00000
     Eigenvalues --- 1000.000001000.000001000.000001000.000001000.00000
     Eigenvalues --- 1000.00000
 RFO step:  Lambda=-3.60284016D-02 EMin= 2.30000000D-03
 Linear search not attempted -- first point.
 Iteration  1 RMS(Cart)=  0.07918499 RMS(Int)=  0.00834045
 Iteration  2 RMS(Cart)=  0.00814351 RMS(Int)=  0.00465738
 Iteration  3 RMS(Cart)=  0.00006496 RMS(Int)=  0.00465703
 Iteration  4 RMS(Cart)=  0.00000109 RMS(Int)=  0.00465703
 Iteration  5 RMS(Cart)=  0.00000001 RMS(Int)=  0.00465703
 Iteration  1 RMS(Cart)=  0.00000000 RMS(Int)=  0.00000000
 ITry= 1 IFail=0 DXMaxC= 1.58D-01 DCOld= 1.00D+10 DXMaxT= 3.00D-01 DXLimC= 3.00D+00 Rises=F
 Variable       Old X    -DE/DX   Delta X   Delta X   Delta X     New X
                                 (Linear)    (Quad)   (Total)
    R1        2.45227  -0.11080   0.00000  -0.15509  -0.15509   2.29718
    R2        2.94503  -0.02235   0.00000  -0.07315  -0.07315   2.87188
    R3        3.59048  -0.01146   0.00000   0.00000   0.00000   3.59048
    R4        4.91329  -0.00892   0.00000   0.00000   0.00000   4.91329
    R5        2.07331  -0.00280   0.00000  -0.00745  -0.00745   2.06586
    R6        2.07468  -0.00217   0.00000  -0.00577  -0.00577   2.06891
    R7        2.06868  -0.00119   0.00000  -0.00313  -0.00313   2.06555
    R8        2.20923   0.01862   0.00000   0.01482   0.01482   2.22405
    A1        1.99667   0.03830   0.00000   0.15837   0.14804   2.14470
    A2        2.01908  -0.01433   0.00000   0.00634  -0.00918   2.00989
    A3        1.89239  -0.01291   0.00000  -0.07553  -0.06867   1.82372
    A4        1.92419   0.00817   0.00000   0.04846   0.03562   1.95981
    A5        1.77194  -0.01445   0.00000  -0.08935  -0.08483   1.68711
    A6        1.83479  -0.01038   0.00000  -0.09147  -0.09041   1.74438
    A7        1.97398  -0.00026   0.00000  -0.00140  -0.00147   1.97251
    A8        1.87942  -0.00630   0.00000  -0.03327  -0.03344   1.84599
    A9        1.90140  -0.00188   0.00000  -0.00841  -0.00849   1.89291
   A10        1.90356   0.00310   0.00000   0.01358   0.01345   1.91701
   A11        1.90837   0.00161   0.00000   0.01018   0.01019   1.91856
   A12        1.89554   0.00385   0.00000   0.01983   0.01962   1.91517
   A13        3.09251   0.00021   0.00000   0.00248   0.00248   3.09499
   A14        2.87052   0.00010   0.00000   0.00122   0.00122   2.87174
    D1        3.04510  -0.00942   0.00000  -0.08961  -0.09407   2.95103
    D2       -1.13357  -0.01002   0.00000  -0.09622  -0.10066  -1.23423
    D3        0.91915  -0.00996   0.00000  -0.09566  -0.10001   0.81913
    D4       -0.92685   0.01289   0.00000   0.11036   0.11324  -0.81361
    D5        1.17766   0.01229   0.00000   0.10375   0.10665   1.28431
    D6       -3.05280   0.01235   0.00000   0.10432   0.10729  -2.94551
    D7        1.01121  -0.00269   0.00000  -0.01742  -0.01596   0.99525
    D8        3.11572  -0.00329   0.00000  -0.02403  -0.02255   3.09317
    D9       -1.11475  -0.00323   0.00000  -0.02346  -0.02190  -1.13665
         Item               Value     Threshold  Converged?
 Maximum Force            0.110804     0.000450     NO 
 RMS     Force            0.023647     0.000300     NO 
 Maximum Displacement     0.157506     0.001800     NO 
 RMS     Displacement     0.078867     0.001200     NO 
 Predicted change in Energy=-2.113588D-02
 Lowest energy point so far.  Saving SCF results.
 GradGradGradGradGradGradGradGradGradGradGradGradGradGradGradGradGradGrad

 Leave Link  103 at Wed Jan  8 00:02:17 2020, MaxMem=  4294967296 cpu:              64.2 elap:               4.3
 (Enter /home/cwagen/sw/g16/g16/l202.exe)
                          Input orientation:                          
 ---------------------------------------------------------------------
 Center     Atomic      Atomic             Coordinates (Angstroms)
 Number     Number       Type             X           Y           Z
 ---------------------------------------------------------------------
      1          6           0       -0.263995   -0.358407   -0.247462
      2          8           0       -0.242493   -0.597035   -1.439231
      3          6           0       -0.304558   -1.447682    0.811513
      4          1           0       -0.129218   -1.068450    1.821731
      5          1           0       -1.305323   -1.887094    0.748131
      6          1           0        0.446083   -2.201749    0.561200
      7         17           0       -1.275668    1.170309    0.252085
      8          6           0        2.132905    0.494502    0.288649
      9          7           0        3.272958    0.782378    0.339053
 ---------------------------------------------------------------------
                    Distance matrix (angstroms):
                    1          2          3          4          5
     1  C    0.000000
     2  O    1.215614   0.000000
     3  C    1.519735   2.406928   0.000000
     4  H    2.191777   3.296806   1.093207   0.000000
     5  H    2.100585   2.752892   1.094821   1.790535   0.000000
     6  H    2.134492   2.655366   1.093040   1.790049   1.789239
     7  Cl   1.900000   2.655466   2.847787   2.964823   3.097524
     8  C    2.600000   3.133614   3.160173   3.148073   4.207676
     9  N    3.762369   4.174142   4.242052   4.147131   5.315457
                    6          7          8          9
     6  H    0.000000
     7  Cl   3.798783   0.000000
     8  C    3.192087   3.475114   0.000000
     9  N    4.116501   4.565966   1.176916   0.000000
 Stoichiometry    C3H3ClNO(1-)
 Framework group  C1[X(C3H3ClNO)]
 Deg. of freedom    21
 Full point group                 C1      NOp   1
 RotChk:  IX=0 Diff= 5.33D-02
 Largest Abelian subgroup         C1      NOp   1
 Largest concise Abelian subgroup C1      NOp   1
                         Standard orientation:                         
 ---------------------------------------------------------------------
 Center     Atomic      Atomic             Coordinates (Angstroms)
 Number     Number       Type             X           Y           Z
 ---------------------------------------------------------------------
      1          6           0       -0.451458    0.506177    0.235435
      2          8           0       -0.513893    0.863019    1.395815
      3          6           0       -0.482171    1.480732   -0.930281
      4          1           0       -0.227463    1.013220   -1.885088
      5          1           0       -1.505575    1.867890   -0.967491
      6          1           0        0.213496    2.296563   -0.717671
      7         17           0       -1.353725   -1.118577   -0.159646
      8          6           0        2.012943   -0.261117   -0.077601
      9          7           0        3.166876   -0.488683   -0.035372
 ---------------------------------------------------------------------
 Rotational constants (GHZ):           3.4442655           1.6168532           1.3870916
 Leave Link  202 at Wed Jan  8 00:02:17 2020, MaxMem=  4294967296 cpu:               1.2 elap:               0.1
 (Enter /home/cwagen/sw/g16/g16/l301.exe)
 Standard basis: 6-31+G(d) (6D, 7F)
 Ernie: Thresh=  0.10000D-02 Tol=  0.10000D-05 Strict=F.
 There are   124 symmetry adapted cartesian basis functions of A   symmetry.
 There are   124 symmetry adapted basis functions of A   symmetry.
   124 basis functions,   228 primitive gaussians,   124 cartesian basis functions
    27 alpha electrons       27 beta electrons
       nuclear repulsion energy       238.3774700145 Hartrees.
 IExCor=  402 DFT=T Ex+Corr=B3LYP ExCW=0 ScaHFX=  0.200000
 ScaDFX=  0.800000  0.720000  1.000000  0.810000 ScalE2=  1.000000  1.000000
 IRadAn=      5 IRanWt=     -1 IRanGd=            0 ICorTp=0 IEmpDi=  4
 NAtoms=    9 NActive=    9 NUniq=    9 SFac= 1.00D+00 NAtFMM=   60 NAOKFM=F Big=F
 Integral buffers will be    131072 words long.
 Raffenetti 2 integral format.
 Two-electron integral symmetry is turned on.
 ------------------------------------------------------------------------------
 Polarizable Continuum Model (PCM)
 =================================
 Model                : PCM.
 Atomic radii         : SMD-Coulomb.
 Polarization charges : Total charges.
 Charge compensation  : None.
 Solution method      : On-the-fly selection.
 Cavity type          : VdW (van der Waals Surface) (Alpha=1.000).
 Cavity algorithm     : GePol (No added spheres)
                        Default sphere list used, NSphG=    9.
                        Lebedev-Laikov grids with approx.  5.0 points / Ang**2.
                        Smoothing algorithm: York/Karplus (Gamma=1.0000).
                        Polarization charges: spherical gaussians, with
                                              point-specific exponents (IZeta= 3).
                        Self-potential: point-specific (ISelfS= 7).
                        Self-field    : sphere-specific E.n sum rule (ISelfD= 2).
 1st derivatives      : Analytical E(r).r(x)/FMM algorithm (CHGder, D1EAlg=3).
                        Cavity 1st derivative terms included.
 Solvent              : TetraHydroFuran, Eps=   7.425700 Eps(inf)=   1.974025
 ------------------------------------------------------------------------------
 Spheres list:
 ISph  on   Nord     Re0    Alpha      Xe            Ye            Ze
    1   C      1    1.8500  1.000     -0.451458      0.506177      0.235435
    2   O      2    2.2940  1.000     -0.513893      0.863019      1.395815
    3   C      3    1.8500  1.000     -0.482171      1.480732     -0.930281
    4   H      4    1.2000  1.000     -0.227463      1.013220     -1.885088
    5   H      5    1.2000  1.000     -1.505575      1.867890     -0.967491
    6   H      6    1.2000  1.000      0.213496      2.296563     -0.717671
    7  Cl      7    2.3800  1.000     -1.353725     -1.118577     -0.159646
    8   C      8    1.8500  1.000      2.012943     -0.261117     -0.077601
    9   N      9    1.8900  1.000      3.166876     -0.488683     -0.035372
 ------------------------------------------------------------------------------
 GePol: Number of generator spheres                  =       9
 GePol: Total number of spheres                      =       9
 GePol: Number of exposed spheres                    =       9 (100.00%)
 GePol: Number of points                             =    1214
 GePol: Average weight of points                     =       0.14
 GePol: Minimum weight of points                     =   0.41D-07
 GePol: Maximum weight of points                     =    0.18138
 GePol: Number of points with low weight             =      40
 GePol: Fraction of low-weight points (<1% of avg)   =       3.29%
 GePol: Cavity surface area                          =    164.724 Ang**2
 GePol: Cavity volume                                =    148.898 Ang**3
 ------------------------------------------------------------------------------
 Atomic radii for non-electrostatic terms: SMD-CDS.
 ------------------------------------------------------------------------------
 PCM non-electrostatic energy =         0.0008407373 Hartrees.
 Nuclear repulsion after PCM non-electrostatic terms =      238.3783107518 Hartrees.
 Leave Link  301 at Wed Jan  8 00:02:18 2020, MaxMem=  4294967296 cpu:               3.6 elap:               0.3
 (Enter /home/cwagen/sw/g16/g16/l302.exe)
 NPDir=0 NMtPBC=     1 NCelOv=     1 NCel=       1 NClECP=     1 NCelD=      1
         NCelK=      1 NCelE2=     1 NClLst=     1 CellRange=     0.0.
 One-electron integrals computed using PRISM.
 One-electron integral symmetry used in STVInt
 NBasis=   124 RedAO= T EigKep=  8.56D-05  NBF=   124
 NBsUse=   124 1.00D-06 EigRej= -1.00D+00 NBFU=   124
 Precomputing XC quadrature grid using
 IXCGrd= 4 IRadAn=           5 IRanWt=          -1 IRanGd=           0 AccXCQ= 0.00D+00.
 Generated NRdTot=       0 NPtTot=           0 NUsed=           0 NTot=          32
 NSgBfM=   124   124   124   124   124 MxSgAt=     9 MxSgA2=     9.
 Leave Link  302 at Wed Jan  8 00:02:19 2020, MaxMem=  4294967296 cpu:              22.4 elap:               1.6
 (Enter /home/cwagen/sw/g16/g16/l303.exe)
 DipDrv:  MaxL=1.
 Leave Link  303 at Wed Jan  8 00:02:20 2020, MaxMem=  4294967296 cpu:               2.6 elap:               0.3
 (Enter /home/cwagen/sw/g16/g16/l401.exe)
 Initial guess from the checkpoint file:  "/scratch/users/cwagen/cwagen_scan_190_260/Gau-59310.chk"
 B after Tr=     0.000000    0.000000    0.000000
         Rot=    0.999865   -0.015056    0.005007    0.004182 Ang=  -1.88 deg.
 Guess basis will be translated and rotated to current coordinates.
 JPrj=2 DoOrth=T DoCkMO=T.
 Generating alternative initial guess.
 ExpMin= 4.38D-02 ExpMax= 2.52D+04 ExpMxC= 3.78D+03 IAcc=2 IRadAn=         4 AccDes= 0.00D+00
 Harris functional with IExCor=  402 and IRadAn=       4 diagonalized for initial guess.
 HarFok:  IExCor=  402 AccDes= 0.00D+00 IRadAn=         4 IDoV= 1 UseB2=F ITyADJ=14
 ICtDFT=  3500011 ScaDFX=  1.000000  1.000000  1.000000  1.000000
 FoFCou: FMM=F IPFlag=           0 FMFlag=      100000 FMFlg1=           0
         NFxFlg=           0 DoJE=T BraDBF=F KetDBF=T FulRan=T
         wScrn=  0.000000 ICntrl=       500 IOpCl=  0 I1Cent=   200000004 NGrid=           0
         NMat0=    1 NMatS0=      1 NMatT0=    0 NMatD0=    1 NMtDS0=    0 NMtDT0=    0
 Petite list used in FoFCou.
 Harris En= -706.418143987934    
 Leave Link  401 at Wed Jan  8 00:02:21 2020, MaxMem=  4294967296 cpu:              20.4 elap:               1.5
 (Enter /home/cwagen/sw/g16/g16/l502.exe)
 Keep R1 ints in memory in canonical form, NReq=45236517.
 FoFCou: FMM=F IPFlag=           0 FMFlag=           0 FMFlg1=           0
         NFxFlg=           0 DoJE=F BraDBF=F KetDBF=F FulRan=T
         wScrn=  0.000000 ICntrl=       600 IOpCl=  0 I1Cent=           0 NGrid=           0
         NMat0=    1 NMatS0=   7750 NMatT0=    0 NMatD0=    1 NMtDS0=    0 NMtDT0=    0
 Symmetry not used in FoFCou.
 Two-electron integral symmetry not used.
 Closed shell SCF:
 Using DIIS extrapolation, IDIIS=  1040.
 NGot=  4294967296 LenX=  4264898079 LenY=  4264882262
 Requested convergence on RMS density matrix=1.00D-08 within 128 cycles.
 Requested convergence on MAX density matrix=1.00D-06.
 Requested convergence on             energy=1.00D-06.
 No special actions if energy rises.

 Cycle   1  Pass 1  IDiag  1:
 Inv3:  Mode=1 IEnd=     4421388.
 Iteration    1 A*A^-1 deviation from unit magnitude is 3.11D-15 for   1205.
 Iteration    1 A*A^-1 deviation from orthogonality  is 1.92D-15 for   1210   1080.
 Iteration    1 A^-1*A deviation from unit magnitude is 3.33D-15 for   1205.
 Iteration    1 A^-1*A deviation from orthogonality  is 1.52D-15 for   1210   1080.
 E= -706.390435027178    
 DIIS: error= 5.72D-03 at cycle   1 NSaved=   1.
 NSaved= 1 IEnMin= 1 EnMin= -706.390435027178     IErMin= 1 ErrMin= 5.72D-03
 ErrMax= 5.72D-03  0.00D+00 EMaxC= 1.00D-01 BMatC= 1.03D-02 BMatP= 1.03D-02
 IDIUse=3 WtCom= 9.43D-01 WtEn= 5.72D-02
 Coeff-Com:  0.100D+01
 Coeff-En:   0.100D+01
 Coeff:      0.100D+01
 Gap=     0.603 Goal=   None    Shift=    0.000
 GapD=    0.603 DampG=2.000 DampE=1.000 DampFc=2.0000 IDamp=-1.
 RMSDP=4.63D-03 MaxDP=2.89D-01              OVMax= 4.34D-02

 Cycle   2  Pass 1  IDiag  1:
 E= -706.406912096046     Delta-E=       -0.016477068869 Rises=F Damp=F
 DIIS: error= 1.47D-03 at cycle   2 NSaved=   2.
 NSaved= 2 IEnMin= 2 EnMin= -706.406912096046     IErMin= 2 ErrMin= 1.47D-03
 ErrMax= 1.47D-03  0.00D+00 EMaxC= 1.00D-01 BMatC= 8.76D-04 BMatP= 1.03D-02
 IDIUse=3 WtCom= 9.85D-01 WtEn= 1.47D-02
 Coeff-Com:  0.100D+00 0.900D+00
 Coeff-En:   0.000D+00 0.100D+01
 Coeff:      0.987D-01 0.901D+00
 Gap=     0.212 Goal=   None    Shift=    0.000
 RMSDP=6.67D-04 MaxDP=1.46D-02 DE=-1.65D-02 OVMax= 2.40D-02

 Cycle   3  Pass 1  IDiag  1:
 E= -706.406433498302     Delta-E=        0.000478597744 Rises=F Damp=F
 DIIS: error= 2.36D-03 at cycle   3 NSaved=   3.
 NSaved= 3 IEnMin= 2 EnMin= -706.406912096046     IErMin= 2 ErrMin= 1.47D-03
 ErrMax= 2.36D-03  0.00D+00 EMaxC= 1.00D-01 BMatC= 1.46D-03 BMatP= 8.76D-04
 IDIUse=3 WtCom= 1.71D-01 WtEn= 8.29D-01
 Coeff-Com: -0.224D-01 0.574D+00 0.448D+00
 Coeff-En:   0.000D+00 0.596D+00 0.404D+00
 Coeff:     -0.382D-02 0.593D+00 0.411D+00
 Gap=     0.205 Goal=   None    Shift=    0.000
 RMSDP=4.75D-04 MaxDP=1.53D-02 DE= 4.79D-04 OVMax= 1.19D-02

 Cycle   4  Pass 1  IDiag  1:
 E= -706.407747999774     Delta-E=       -0.001314501472 Rises=F Damp=F
 DIIS: error= 6.81D-04 at cycle   4 NSaved=   4.
 NSaved= 4 IEnMin= 4 EnMin= -706.407747999774     IErMin= 4 ErrMin= 6.81D-04
 ErrMax= 6.81D-04  0.00D+00 EMaxC= 1.00D-01 BMatC= 9.65D-05 BMatP= 8.76D-04
 IDIUse=3 WtCom= 9.93D-01 WtEn= 6.81D-03
 Coeff-Com: -0.227D-01 0.277D+00 0.263D+00 0.483D+00
 Coeff-En:   0.000D+00 0.000D+00 0.000D+00 0.100D+01
 Coeff:     -0.226D-01 0.275D+00 0.261D+00 0.487D+00
 Gap=     0.202 Goal=   None    Shift=    0.000
 RMSDP=1.18D-04 MaxDP=3.00D-03 DE=-1.31D-03 OVMax= 2.81D-03

 Cycle   5  Pass 1  IDiag  1:
 E= -706.407818709293     Delta-E=       -0.000070709518 Rises=F Damp=F
 DIIS: error= 1.84D-04 at cycle   5 NSaved=   5.
 NSaved= 5 IEnMin= 5 EnMin= -706.407818709293     IErMin= 5 ErrMin= 1.84D-04
 ErrMax= 1.84D-04  0.00D+00 EMaxC= 1.00D-01 BMatC= 1.30D-05 BMatP= 9.65D-05
 IDIUse=3 WtCom= 9.98D-01 WtEn= 1.84D-03
 Coeff-Com: -0.774D-02 0.732D-01 0.912D-01 0.294D+00 0.549D+00
 Coeff-En:   0.000D+00 0.000D+00 0.000D+00 0.122D+00 0.878D+00
 Coeff:     -0.773D-02 0.731D-01 0.911D-01 0.294D+00 0.550D+00
 Gap=     0.203 Goal=   None    Shift=    0.000
 RMSDP=4.88D-05 MaxDP=1.09D-03 DE=-7.07D-05 OVMax= 9.30D-04

 Cycle   6  Pass 1  IDiag  1:
 E= -706.407831634324     Delta-E=       -0.000012925032 Rises=F Damp=F
 DIIS: error= 4.55D-05 at cycle   6 NSaved=   6.
 NSaved= 6 IEnMin= 6 EnMin= -706.407831634324     IErMin= 6 ErrMin= 4.55D-05
 ErrMax= 4.55D-05  0.00D+00 EMaxC= 1.00D-01 BMatC= 3.29D-07 BMatP= 1.30D-05
 IDIUse=1 WtCom= 1.00D+00 WtEn= 0.00D+00
 Coeff-Com: -0.126D-02 0.592D-02 0.141D-01 0.784D-01 0.207D+00 0.696D+00
 Coeff:     -0.126D-02 0.592D-02 0.141D-01 0.784D-01 0.207D+00 0.696D+00
 Gap=     0.203 Goal=   None    Shift=    0.000
 RMSDP=1.28D-05 MaxDP=4.80D-04 DE=-1.29D-05 OVMax= 3.18D-04

 Cycle   7  Pass 1  IDiag  1:
 E= -706.407831980959     Delta-E=       -0.000000346634 Rises=F Damp=F
 DIIS: error= 1.68D-05 at cycle   7 NSaved=   7.
 NSaved= 7 IEnMin= 7 EnMin= -706.407831980959     IErMin= 7 ErrMin= 1.68D-05
 ErrMax= 1.68D-05  0.00D+00 EMaxC= 1.00D-01 BMatC= 5.87D-08 BMatP= 3.29D-07
 IDIUse=1 WtCom= 1.00D+00 WtEn= 0.00D+00
 Coeff-Com:  0.892D-04-0.461D-02-0.225D-02 0.139D-01 0.595D-01 0.350D+00
 Coeff-Com:  0.583D+00
 Coeff:      0.892D-04-0.461D-02-0.225D-02 0.139D-01 0.595D-01 0.350D+00
 Coeff:      0.583D+00
 Gap=     0.203 Goal=   None    Shift=    0.000
 RMSDP=6.89D-06 MaxDP=3.69D-04 DE=-3.47D-07 OVMax= 9.39D-05

 Cycle   8  Pass 1  IDiag  1:
 E= -706.407832031939     Delta-E=       -0.000000050981 Rises=F Damp=F
 DIIS: error= 1.08D-05 at cycle   8 NSaved=   8.
 NSaved= 8 IEnMin= 8 EnMin= -706.407832031939     IErMin= 8 ErrMin= 1.08D-05
 ErrMax= 1.08D-05  0.00D+00 EMaxC= 1.00D-01 BMatC= 1.67D-08 BMatP= 5.87D-08
 IDIUse=1 WtCom= 1.00D+00 WtEn= 0.00D+00
 Coeff-Com:  0.143D-03-0.326D-02-0.277D-02 0.230D-02 0.210D-01 0.169D+00
 Coeff-Com:  0.396D+00 0.418D+00
 Coeff:      0.143D-03-0.326D-02-0.277D-02 0.230D-02 0.210D-01 0.169D+00
 Coeff:      0.396D+00 0.418D+00
 Gap=     0.203 Goal=   None    Shift=    0.000
 RMSDP=1.43D-06 MaxDP=6.31D-05 DE=-5.10D-08 OVMax= 4.05D-05

 Cycle   9  Pass 1  IDiag  1:
 E= -706.407832045489     Delta-E=       -0.000000013550 Rises=F Damp=F
 DIIS: error= 2.30D-06 at cycle   9 NSaved=   9.
 NSaved= 9 IEnMin= 9 EnMin= -706.407832045489     IErMin= 9 ErrMin= 2.30D-06
 ErrMax= 2.30D-06  0.00D+00 EMaxC= 1.00D-01 BMatC= 1.03D-09 BMatP= 1.67D-08
 IDIUse=1 WtCom= 1.00D+00 WtEn= 0.00D+00
 Coeff-Com:  0.738D-04-0.991D-03-0.137D-02-0.163D-02 0.674D-04 0.224D-01
 Coeff-Com:  0.102D+00 0.213D+00 0.667D+00
 Coeff:      0.738D-04-0.991D-03-0.137D-02-0.163D-02 0.674D-04 0.224D-01
 Coeff:      0.102D+00 0.213D+00 0.667D+00
 Gap=     0.203 Goal=   None    Shift=    0.000
 RMSDP=6.66D-07 MaxDP=3.77D-05 DE=-1.35D-08 OVMax= 1.41D-05

 Cycle  10  Pass 1  IDiag  1:
 E= -706.407832046518     Delta-E=       -0.000000001029 Rises=F Damp=F
 DIIS: error= 4.36D-07 at cycle  10 NSaved=  10.
 NSaved=10 IEnMin=10 EnMin= -706.407832046518     IErMin=10 ErrMin= 4.36D-07
 ErrMax= 4.36D-07  0.00D+00 EMaxC= 1.00D-01 BMatC= 4.19D-11 BMatP= 1.03D-09
 IDIUse=1 WtCom= 1.00D+00 WtEn= 0.00D+00
 Coeff-Com:  0.152D-04-0.781D-04-0.293D-03-0.712D-03-0.167D-02-0.556D-02
 Coeff-Com:  0.998D-03 0.332D-01 0.218D+00 0.756D+00
 Coeff:      0.152D-04-0.781D-04-0.293D-03-0.712D-03-0.167D-02-0.556D-02
 Coeff:      0.998D-03 0.332D-01 0.218D+00 0.756D+00
 Gap=     0.203 Goal=   None    Shift=    0.000
 RMSDP=1.95D-07 MaxDP=1.08D-05 DE=-1.03D-09 OVMax= 2.65D-06

 Cycle  11  Pass 1  IDiag  1:
 E= -706.407832046569     Delta-E=       -0.000000000051 Rises=F Damp=F
 DIIS: error= 8.05D-08 at cycle  11 NSaved=  11.
 NSaved=11 IEnMin=11 EnMin= -706.407832046569     IErMin=11 ErrMin= 8.05D-08
 ErrMax= 8.05D-08  0.00D+00 EMaxC= 1.00D-01 BMatC= 2.47D-12 BMatP= 4.19D-11
 IDIUse=1 WtCom= 1.00D+00 WtEn= 0.00D+00
 Coeff-Com:  0.172D-05 0.259D-04-0.304D-04-0.176D-03-0.610D-03-0.302D-02
 Coeff-Com: -0.529D-02 0.312D-02 0.451D-01 0.280D+00 0.681D+00
 Coeff:      0.172D-05 0.259D-04-0.304D-04-0.176D-03-0.610D-03-0.302D-02
 Coeff:     -0.529D-02 0.312D-02 0.451D-01 0.280D+00 0.681D+00
 Gap=     0.203 Goal=   None    Shift=    0.000
 RMSDP=3.46D-08 MaxDP=1.62D-06 DE=-5.14D-11 OVMax= 6.85D-07

 Cycle  12  Pass 1  IDiag  1:
 E= -706.407832046570     Delta-E=       -0.000000000001 Rises=F Damp=F
 DIIS: error= 2.39D-08 at cycle  12 NSaved=  12.
 NSaved=12 IEnMin=12 EnMin= -706.407832046570     IErMin=12 ErrMin= 2.39D-08
 ErrMax= 2.39D-08  0.00D+00 EMaxC= 1.00D-01 BMatC= 1.27D-13 BMatP= 2.47D-12
 IDIUse=1 WtCom= 1.00D+00 WtEn= 0.00D+00
 Coeff-Com: -0.469D-06 0.102D-04 0.117D-04-0.372D-05-0.664D-04-0.342D-03
 Coeff-Com: -0.154D-02-0.614D-03-0.330D-02 0.216D-01 0.183D+00 0.801D+00
 Coeff:     -0.469D-06 0.102D-04 0.117D-04-0.372D-05-0.664D-04-0.342D-03
 Coeff:     -0.154D-02-0.614D-03-0.330D-02 0.216D-01 0.183D+00 0.801D+00
 Gap=     0.203 Goal=   None    Shift=    0.000
 RMSDP=7.55D-09 MaxDP=2.24D-07 DE=-1.14D-12 OVMax= 1.53D-07

 Error on total polarization charges =  0.02507
 SCF Done:  E(RB3LYP) =  -706.407832047     A.U. after   12 cycles
            NFock= 12  Conv=0.75D-08     -V/T= 2.0056
 KE= 7.024953702861D+02 PE=-2.154347469333D+03 EE= 5.070659562487D+02
 SMD-CDS (non-electrostatic) energy       (kcal/mol) =       0.53
 (included in total energy above)
 Leave Link  502 at Wed Jan  8 00:02:52 2020, MaxMem=  4294967296 cpu:             444.5 elap:              31.4
 (Enter /home/cwagen/sw/g16/g16/l701.exe)
 ... and contract with generalized density number  0.
 Compute integral first derivatives.
 D1PCM: PCM CHGder 1st derivatives, ID1Alg=3 FixD1E=F DoIter=F DoCFld=F I1PDM=0.
 GePol: Maximum number of non-zero 1st derivatives   =     347
 Leave Link  701 at Wed Jan  8 00:02:56 2020, MaxMem=  4294967296 cpu:              54.8 elap:               3.7
 (Enter /home/cwagen/sw/g16/g16/l702.exe)
 L702 exits ... SP integral derivatives will be done elsewhere.
 Leave Link  702 at Wed Jan  8 00:02:56 2020, MaxMem=  4294967296 cpu:               1.1 elap:               0.1
 (Enter /home/cwagen/sw/g16/g16/l703.exe)
 Integral derivatives from FoFJK, PRISM(SPDF).
 Compute integral first derivatives, UseDBF=F ICtDFT=           0.
 Calling FoFJK, ICntrl=      2127 FMM=F ISym2X=0 I1Cent= 0 IOpClX= 0 NMat=1 NMatS=1 NMatT=0.
 FoFJK:  IHMeth= 1 ICntrl=    2127 DoSepK=F KAlg= 0 I1Cent=           0 FoldK=F
 IRaf=         0 NMat=       1 IRICut=       1 DoRegI=T DoRafI=F ISym2E= 0 IDoP0=0 IntGTp=1.
 FoFCou: FMM=F IPFlag=           0 FMFlag=      100000 FMFlg1=         800
         NFxFlg=           0 DoJE=F BraDBF=F KetDBF=F FulRan=T
         wScrn=  0.000000 ICntrl=      2127 IOpCl=  0 I1Cent=           0 NGrid=           0
         NMat0=    1 NMatS0=      1 NMatT0=    0 NMatD0=    1 NMtDS0=    0 NMtDT0=    0
 Symmetry not used in FoFCou.
 Leave Link  703 at Wed Jan  8 00:02:59 2020, MaxMem=  4294967296 cpu:              31.6 elap:               2.3
 (Enter /home/cwagen/sw/g16/g16/l716.exe)
 Dipole        =-3.75155259D+00 1.50720351D+00-1.02888183D+00
 ***** Axes restored to original set *****
 -------------------------------------------------------------------
 Center     Atomic                   Forces (Hartrees/Bohr)
 Number     Number              X              Y              Z
 -------------------------------------------------------------------
      1        6          -0.025960781   -0.025297445   -0.036563754
      2        8           0.010899647    0.013307347    0.030253160
      3        6           0.010918162    0.013093922    0.003168370
      4        1          -0.000569315   -0.000044496   -0.001710274
      5        1          -0.001321633   -0.000366564    0.000363363
      6        1          -0.000394866   -0.000040579   -0.000345906
      7       17           0.007367238    0.000148588    0.003631104
      8        6          -0.004818740   -0.002030389    0.001184061
      9        7           0.003880288    0.001229617    0.000019875
 -------------------------------------------------------------------
 Cartesian Forces:  Max     0.036563754 RMS     0.012591894
 Leave Link  716 at Wed Jan  8 00:02:59 2020, MaxMem=  4294967296 cpu:               1.1 elap:               0.1
 (Enter /home/cwagen/sw/g16/g16/l103.exe)

 GradGradGradGradGradGradGradGradGradGradGradGradGradGradGradGradGradGrad
 Berny optimization.
 Using GEDIIS/GDIIS optimizer.
 FormGI is forming the generalized inverse of G from B-inverse, IUseBI=4.
 Internal  Forces:  Max     0.032068494 RMS     0.007610829
 Search for a local minimum.
 Step number   2 out of a maximum of   41
 All quantities printed in internal units (Hartrees-Bohrs-Radians)
 RMS Force = .78492D-02 SwitMx=.10000D-02 MixMth= 1
 Mixed Optimization -- RFO/linear search
 Update second derivatives using D2CorX and points    1    2
 DE= -2.54D-02 DEPred=-2.11D-02 R= 1.20D+00
 TightC=F SS=  1.41D+00  RLast= 3.75D-01 DXNew= 5.0454D-01 1.1260D+00
 Trust test= 1.20D+00 RLast= 3.75D-01 DXMaxT set to 5.05D-01
 ITU=  1  0
 Use linear search instead of GDIIS.
     Eigenvalues ---    0.00230   0.04739   0.04746   0.05128   0.05410
     Eigenvalues ---    0.06116   0.10159   0.15993   0.16000   0.16145
     Eigenvalues ---    0.22580   0.25000   0.26269   0.26995   0.33958
     Eigenvalues ---    0.33981   0.34277   0.58706   1.219041000.00000
     Eigenvalues --- 1000.000001000.000001000.000001000.000001000.00000
     Eigenvalues --- 1000.000001000.000001000.000001000.000001000.00000
     Eigenvalues --- 1000.00000
 RFO step:  Lambda=-1.75871958D-03 EMin= 2.30001773D-03
 Quartic linear search produced a step of  0.45325.
 Iteration  1 RMS(Cart)=  0.06262779 RMS(Int)=  0.00523517
 Iteration  2 RMS(Cart)=  0.00394148 RMS(Int)=  0.00395837
 Iteration  3 RMS(Cart)=  0.00001357 RMS(Int)=  0.00395836
 Iteration  4 RMS(Cart)=  0.00000017 RMS(Int)=  0.00395836
 Iteration  1 RMS(Cart)=  0.00000000 RMS(Int)=  0.00000000
 ITry= 1 IFail=0 DXMaxC= 1.36D-01 DCOld= 1.00D+10 DXMaxT= 5.05D-01 DXLimC= 3.00D+00 Rises=F
 Variable       Old X    -DE/DX   Delta X   Delta X   Delta X     New X
                                 (Linear)    (Quad)   (Total)
    R1        2.29718  -0.03207  -0.07030   0.00514  -0.06516   2.23202
    R2        2.87188  -0.00825  -0.03315  -0.00318  -0.03634   2.83554
    R3        3.59048  -0.00286   0.00000   0.00000   0.00000   3.59048
    R4        4.91329  -0.00088   0.00000   0.00000   0.00000   4.91329
    R5        2.06586  -0.00169  -0.00338  -0.00326  -0.00664   2.05922
    R6        2.06891   0.00132  -0.00262   0.00877   0.00615   2.07507
    R7        2.06555  -0.00012  -0.00142   0.00117  -0.00025   2.06530
    R8        2.22405   0.00405   0.00672  -0.00186   0.00486   2.22891
    A1        2.14470   0.01528   0.06710   0.02422   0.08201   2.22671
    A2        2.00989  -0.00057  -0.00416   0.04812   0.03179   2.04168
    A3        1.82372  -0.00347  -0.03112  -0.01400  -0.03807   1.78566
    A4        1.95981  -0.00560   0.01614  -0.03243  -0.02771   1.93210
    A5        1.68711  -0.00901  -0.03845  -0.04173  -0.07648   1.61063
    A6        1.74438  -0.00320  -0.04098  -0.01390  -0.05700   1.68738
    A7        1.97251  -0.00080  -0.00066  -0.00670  -0.00738   1.96513
    A8        1.84599   0.00039  -0.01515   0.02560   0.01036   1.85635
    A9        1.89291  -0.00007  -0.00385   0.00566   0.00176   1.89467
   A10        1.91701  -0.00008   0.00609  -0.01081  -0.00476   1.91225
   A11        1.91856   0.00060   0.00462  -0.00096   0.00366   1.92221
   A12        1.91517  -0.00004   0.00889  -0.01225  -0.00348   1.91169
   A13        3.09499   0.00077   0.00112   0.02001   0.02113   3.11612
   A14        2.87174  -0.00010   0.00055  -0.00439  -0.00384   2.86790
    D1        2.95103  -0.00631  -0.04264  -0.04841  -0.09433   2.85670
    D2       -1.23423  -0.00661  -0.04562  -0.04875  -0.09766  -1.33189
    D3        0.81913  -0.00649  -0.04533  -0.04679  -0.09535   0.72378
    D4       -0.81361   0.00764   0.05133   0.03204   0.08415  -0.72946
    D5        1.28431   0.00734   0.04834   0.03170   0.08081   1.36512
    D6       -2.94551   0.00746   0.04863   0.03367   0.08312  -2.86239
    D7        0.99525  -0.00118  -0.00723  -0.00919  -0.01396   0.98129
    D8        3.09317  -0.00148  -0.01022  -0.00953  -0.01729   3.07588
    D9       -1.13665  -0.00136  -0.00993  -0.00757  -0.01498  -1.15163
         Item               Value     Threshold  Converged?
 Maximum Force            0.032068     0.000450     NO 
 RMS     Force            0.007849     0.000300     NO 
 Maximum Displacement     0.136473     0.001800     NO 
 RMS     Displacement     0.063805     0.001200     NO 
 Predicted change in Energy=-5.566056D-03
 Lowest energy point so far.  Saving SCF results.
 GradGradGradGradGradGradGradGradGradGradGradGradGradGradGradGradGradGrad

 Leave Link  103 at Wed Jan  8 00:03:03 2020, MaxMem=  4294967296 cpu:              57.9 elap:               3.9
 (Enter /home/cwagen/sw/g16/g16/l202.exe)
                          Input orientation:                          
 ---------------------------------------------------------------------
 Center     Atomic      Atomic             Coordinates (Angstroms)
 Number     Number       Type             X           Y           Z
 ---------------------------------------------------------------------
      1          6           0       -0.311072   -0.393601   -0.291514
      2          8           0       -0.230968   -0.572050   -1.456340
      3          6           0       -0.287244   -1.426793    0.796357
      4          1           0       -0.093659   -0.996231    1.778485
      5          1           0       -1.276598   -1.903170    0.792235
      6          1           0        0.476951   -2.169547    0.553933
      7         17           0       -1.239289    1.162493    0.280313
      8          6           0        2.077219    0.441876    0.306851
      9          7           0        3.215350    0.743797    0.375348
 ---------------------------------------------------------------------
                    Distance matrix (angstroms):
                    1          2          3          4          5
     1  C    0.000000
     2  O    1.181134   0.000000
     3  C    1.500506   2.410061   0.000000
     4  H    2.166871   3.265406   1.089694   0.000000
     5  H    2.094171   2.814482   1.098077   1.787336   0.000000
     6  H    2.118902   2.663520   1.092908   1.789355   1.789603
     7  Cl   1.900000   2.653547   2.806615   2.866544   3.108334
     8  C    2.600000   3.076461   3.053232   2.991082   4.121034
     9  N    3.764842   4.118694   4.142085   3.993248   5.230471
                    6          7          8          9
     6  H    0.000000
     7  Cl   3.758036   0.000000
     8  C    3.072691   3.393998   0.000000
     9  N    4.002285   4.475282   1.179487   0.000000
 Stoichiometry    C3H3ClNO(1-)
 Framework group  C1[X(C3H3ClNO)]
 Deg. of freedom    21
 Full point group                 C1      NOp   1
 RotChk:  IX=0 Diff= 6.45D-02
 Largest Abelian subgroup         C1      NOp   1
 Largest concise Abelian subgroup C1      NOp   1
                         Standard orientation:                         
 ---------------------------------------------------------------------
 Center     Atomic      Atomic             Coordinates (Angstroms)
 Number     Number       Type             X           Y           Z
 ---------------------------------------------------------------------
      1          6           0       -0.497011    0.551322    0.252035
      2          8           0       -0.504727    0.897530    1.381264
      3          6           0       -0.435418    1.418848   -0.970718
      4          1           0       -0.158335    0.862089   -1.865523
      5          1           0       -1.439446    1.844646   -1.098773
      6          1           0        0.282339    2.223138   -0.790747
      7         17           0       -1.325573   -1.111671   -0.145378
      8          6           0        1.956119   -0.249499   -0.065517
      9          7           0        3.106551   -0.505105   -0.016922
 ---------------------------------------------------------------------
 Rotational constants (GHZ):           3.4718946           1.6732700           1.4368397
 Leave Link  202 at Wed Jan  8 00:03:03 2020, MaxMem=  4294967296 cpu:               1.5 elap:               0.1
 (Enter /home/cwagen/sw/g16/g16/l301.exe)
 Standard basis: 6-31+G(d) (6D, 7F)
 Ernie: Thresh=  0.10000D-02 Tol=  0.10000D-05 Strict=F.
 There are   124 symmetry adapted cartesian basis functions of A   symmetry.
 There are   124 symmetry adapted basis functions of A   symmetry.
   124 basis functions,   228 primitive gaussians,   124 cartesian basis functions
    27 alpha electrons       27 beta electrons
       nuclear repulsion energy       240.9276223759 Hartrees.
 IExCor=  402 DFT=T Ex+Corr=B3LYP ExCW=0 ScaHFX=  0.200000
 ScaDFX=  0.800000  0.720000  1.000000  0.810000 ScalE2=  1.000000  1.000000
 IRadAn=      5 IRanWt=     -1 IRanGd=            0 ICorTp=0 IEmpDi=  4
 NAtoms=    9 NActive=    9 NUniq=    9 SFac= 1.00D+00 NAtFMM=   60 NAOKFM=F Big=F
 Integral buffers will be    131072 words long.
 Raffenetti 2 integral format.
 Two-electron integral symmetry is turned on.
 ------------------------------------------------------------------------------
 Polarizable Continuum Model (PCM)
 =================================
 Model                : PCM.
 Atomic radii         : SMD-Coulomb.
 Polarization charges : Total charges.
 Charge compensation  : None.
 Solution method      : On-the-fly selection.
 Cavity type          : VdW (van der Waals Surface) (Alpha=1.000).
 Cavity algorithm     : GePol (No added spheres)
                        Default sphere list used, NSphG=    9.
                        Lebedev-Laikov grids with approx.  5.0 points / Ang**2.
                        Smoothing algorithm: York/Karplus (Gamma=1.0000).
                        Polarization charges: spherical gaussians, with
                                              point-specific exponents (IZeta= 3).
                        Self-potential: point-specific (ISelfS= 7).
                        Self-field    : sphere-specific E.n sum rule (ISelfD= 2).
 1st derivatives      : Analytical E(r).r(x)/FMM algorithm (CHGder, D1EAlg=3).
                        Cavity 1st derivative terms included.
 Solvent              : TetraHydroFuran, Eps=   7.425700 Eps(inf)=   1.974025
 ------------------------------------------------------------------------------
 Spheres list:
 ISph  on   Nord     Re0    Alpha      Xe            Ye            Ze
    1   C      1    1.8500  1.000     -0.497011      0.551322      0.252035
    2   O      2    2.2940  1.000     -0.504727      0.897530      1.381264
    3   C      3    1.8500  1.000     -0.435418      1.418848     -0.970718
    4   H      4    1.2000  1.000     -0.158335      0.862089     -1.865523
    5   H      5    1.2000  1.000     -1.439446      1.844646     -1.098773
    6   H      6    1.2000  1.000      0.282339      2.223138     -0.790747
    7  Cl      7    2.3800  1.000     -1.325573     -1.111671     -0.145378
    8   C      8    1.8500  1.000      1.956119     -0.249499     -0.065517
    9   N      9    1.8900  1.000      3.106551     -0.505105     -0.016922
 ------------------------------------------------------------------------------
 GePol: Number of generator spheres                  =       9
 GePol: Total number of spheres                      =       9
 GePol: Number of exposed spheres                    =       9 (100.00%)
 GePol: Number of points                             =    1208
 GePol: Average weight of points                     =       0.13
 GePol: Minimum weight of points                     =   0.64D-08
 GePol: Maximum weight of points                     =    0.18138
 GePol: Number of points with low weight             =      32
 GePol: Fraction of low-weight points (<1% of avg)   =       2.65%
 GePol: Cavity surface area                          =    162.496 Ang**2
 GePol: Cavity volume                                =    147.686 Ang**3
 ------------------------------------------------------------------------------
 Atomic radii for non-electrostatic terms: SMD-CDS.
 ------------------------------------------------------------------------------
 PCM non-electrostatic energy =         0.0008192649 Hartrees.
 Nuclear repulsion after PCM non-electrostatic terms =      240.9284416408 Hartrees.
 Leave Link  301 at Wed Jan  8 00:03:03 2020, MaxMem=  4294967296 cpu:               2.3 elap:               0.2
 (Enter /home/cwagen/sw/g16/g16/l302.exe)
 NPDir=0 NMtPBC=     1 NCelOv=     1 NCel=       1 NClECP=     1 NCelD=      1
         NCelK=      1 NCelE2=     1 NClLst=     1 CellRange=     0.0.
 One-electron integrals computed using PRISM.
 One-electron integral symmetry used in STVInt
 NBasis=   124 RedAO= T EigKep=  7.21D-05  NBF=   124
 NBsUse=   124 1.00D-06 EigRej= -1.00D+00 NBFU=   124
 Precomputing XC quadrature grid using
 IXCGrd= 4 IRadAn=           5 IRanWt=          -1 IRanGd=           0 AccXCQ= 0.00D+00.
 Generated NRdTot=       0 NPtTot=           0 NUsed=           0 NTot=          32
 NSgBfM=   124   124   124   124   124 MxSgAt=     9 MxSgA2=     9.
[...]
 Mixed Optimization -- En-DIIS/RFO-DIIS
 Swapping is turned off.
 Update second derivatives using D2CorX and points    2    3    4    5    6
                                                      7    8    9   10   11
                                                     12   13   14   15   16
                                                     17   18   19   20   21
                                                     22   23   24   25
 DE=  4.99D-07 DEPred=-6.47D-08 R=-7.72D+00
 Trust test=-7.72D+00 RLast= 7.43D-03 DXMaxT set to 8.49D-02
 ITU= -1 -1  1  1  1  1  1 -1  0  1  1 -1  1  1  1  1  1  1  1  1
 ITU=  1  1  1  1  0
     Eigenvalues ---    0.00218   0.00275   0.00866   0.04430   0.04580
     Eigenvalues ---    0.05659   0.05854   0.15514   0.15988   0.16193
     Eigenvalues ---    0.17053   0.25072   0.28228   0.30581   0.34111
     Eigenvalues ---    0.34188   0.34501   0.91405   1.216011000.00000
     Eigenvalues --- 1000.000001000.000001000.000001000.000001000.00000
     Eigenvalues --- 1000.000001000.000001000.000001000.000001000.00000
     Eigenvalues --- 1000.00000
 En-DIIS/RFO-DIIS/Sim-DIIS IScMMF=       -3 using points:    25   24   23   22   21   20   19   18   17   16
 RFO step:  Lambda=-7.06979861D-08.
 NNeg= 0 NGDIIS=10 SimSw=  2.50D-03 Rises=T DC=  4.99D-07 SmlDif=  1.00D-05
 NRisDI= 2 DoIntr=T SqrtH=F CThrHd= 10.0 CDAdj=  3.0
 RMS Error=  0.2997058621D-03 NUsed=10 OKEnD=T EnDIS=T
 InvSVX:  RCond= 3.44D-11 Info=           0 Equed=N FErr=  1.55D-08 BErr=  1.18D-16
 DIIS inversion failure, remove point  10.
 InvSVX:  RCond= 1.07D-10 Info=           0 Equed=N FErr=  9.34D-10 BErr=  9.79D-17
 DIIS inversion failure, remove point   9.
 InvSVX:  RCond= 2.40D-09 Info=           0 Equed=N FErr=  1.02D-10 BErr=  8.93D-17
 DIIS inversion failure, remove point   8.
 InvSVX:  RCond= 2.74D-09 Info=           0 Equed=N FErr=  9.60D-12 BErr=  1.06D-16
 DIIS inversion failure, remove point   7.
 InvSVX:  RCond= 4.46D-09 Info=           0 Equed=N FErr=  2.16D-12 BErr=  8.23D-17
 DIIS inversion failure, remove point   6.
 InvSVX:  RCond= 2.25D-08 Info=           0 Equed=N FErr=  4.52D-13 BErr=  6.71D-17
 DIIS inversion failure, remove point   5.
 InvSVX:  RCond= 1.65D-06 Info=           0 Equed=N FErr=  8.95D-14 BErr=  4.96D-17
 RFO-DIIS uses    4 points instead of   10
 IWarn =    0
 DidBck=T Rises=T RFO-DIIS coefs:    0.64673    0.27507    0.06706    0.01114    0.00000
                  RFO-DIIS coefs:    0.00000    0.00000    0.00000    0.00000    0.00000
 Iteration  1 RMS(Cart)=  0.00039238 RMS(Int)=  0.00000029
 Iteration  2 RMS(Cart)=  0.00000030 RMS(Int)=  0.00000001
 Iteration  1 RMS(Cart)=  0.00000000 RMS(Int)=  0.00000000
 ITry= 1 IFail=0 DXMaxC= 1.28D-03 DCOld= 1.00D+10 DXMaxT= 8.49D-02 DXLimC= 3.00D+00 Rises=F
 Variable       Old X    -DE/DX   Delta X   Delta X   Delta X     New X
                                 (Linear)    (Quad)   (Total)
    R1        2.24659   0.00000  -0.00001   0.00003   0.00002   2.24661
    R2        2.83003   0.00000   0.00002   0.00000   0.00001   2.83004
    R3        3.59048  -0.00075   0.00000   0.00000   0.00000   3.59048
    R4        4.91329   0.00696   0.00000   0.00000   0.00000   4.91329
    R5        2.05713   0.00001   0.00000   0.00002   0.00002   2.05715
    R6        2.07751  -0.00001   0.00000  -0.00002  -0.00002   2.07749
    R7        2.06485   0.00000   0.00000   0.00001   0.00001   2.06486
    R8        2.22991   0.00000   0.00000   0.00000   0.00000   2.22991
    A1        2.25772   0.00000   0.00004  -0.00005  -0.00001   2.25771
    A2        2.04993   0.00000   0.00002  -0.00002  -0.00001   2.04992
    A3        1.71931  -0.00001  -0.00005  -0.00008  -0.00014   1.71918
    A4        1.93055   0.00000  -0.00004   0.00006   0.00002   1.93057
    A5        1.58975   0.00001  -0.00003   0.00000  -0.00003   1.58971
    A6        1.67935   0.00001   0.00005   0.00015   0.00020   1.67955
    A7        1.95154   0.00000  -0.00004   0.00006   0.00002   1.95155
    A8        1.86719   0.00000   0.00001   0.00001   0.00003   1.86722
    A9        1.90104  -0.00001   0.00002  -0.00007  -0.00004   1.90100
   A10        1.90446   0.00000  -0.00002   0.00002   0.00000   1.90446
   A11        1.92902   0.00000  -0.00001  -0.00001  -0.00002   1.92900
   A12        1.90928   0.00000   0.00003   0.00000   0.00002   1.90931
   A13        3.18560  -0.00001  -0.00050  -0.00044  -0.00093   3.18467
   A14        2.58982   0.00000  -0.00110   0.00014  -0.00095   2.58887
    D1        2.70539   0.00000   0.00003  -0.00020  -0.00017   2.70522
    D2       -1.49365   0.00000   0.00000  -0.00014  -0.00015  -1.49380
    D3        0.56839   0.00000   0.00005  -0.00018  -0.00012   0.56826
    D4       -0.76787  -0.00001   0.00008  -0.00025  -0.00016  -0.76804
    D5        1.31627  -0.00001   0.00005  -0.00019  -0.00014   1.31613
    D6       -2.90488   0.00000   0.00010  -0.00022  -0.00012  -2.90500
    D7        0.92614   0.00000   0.00012  -0.00008   0.00004   0.92618
    D8        3.01028   0.00001   0.00009  -0.00002   0.00006   3.01034
    D9       -1.21087   0.00001   0.00014  -0.00006   0.00008  -1.21079
         Item               Value     Threshold  Converged?
 Maximum Force            0.000011     0.000450     YES
 RMS     Force            0.000005     0.000300     YES
 Maximum Displacement     0.001285     0.001800     YES
 RMS     Displacement     0.000392     0.001200     YES
 Predicted change in Energy=-1.066065D-08
 Optimization completed.
    -- Stationary point found.
                           ----------------------------
                           !   Optimized Parameters   !
                           ! (Angstroms and Degrees)  !
 --------------------------                            --------------------------
 ! Name  Definition              Value          Derivative Info.                !
 --------------------------------------------------------------------------------
 ! R1    R(1,2)                  1.1888         -DE/DX =    0.0                 !
 ! R2    R(1,3)                  1.4976         -DE/DX =    0.0                 !
 ! R3    R(1,7)                  1.9            -DE/DX =   -0.0007              !
 ! R4    R(1,8)                  2.6            -DE/DX =    0.007               !
 ! R5    R(3,4)                  1.0886         -DE/DX =    0.0                 !
 ! R6    R(3,5)                  1.0994         -DE/DX =    0.0                 !
 ! R7    R(3,6)                  1.0927         -DE/DX =    0.0                 !
 ! R8    R(8,9)                  1.18           -DE/DX =    0.0                 !
 ! A1    A(2,1,3)              129.3577         -DE/DX =    0.0                 !
 ! A2    A(2,1,7)              117.4522         -DE/DX =    0.0                 !
 ! A3    A(2,1,8)               98.5093         -DE/DX =    0.0                 !
 ! A4    A(3,1,7)              110.6124         -DE/DX =    0.0                 !
 ! A5    A(3,1,8)               91.0858         -DE/DX =    0.0                 !
 ! A6    A(7,1,8)               96.2198         -DE/DX =    0.0                 !
 ! A7    A(1,3,4)              111.8149         -DE/DX =    0.0                 !
 ! A8    A(1,3,5)              106.9823         -DE/DX =    0.0                 !
 ! A9    A(1,3,6)              108.9218         -DE/DX =    0.0                 !
 ! A10   A(4,3,5)              109.1174         -DE/DX =    0.0                 !
 ! A11   A(4,3,6)              110.5245         -DE/DX =    0.0                 !
 ! A12   A(5,3,6)              109.3939         -DE/DX =    0.0                 !
 ! A13   L(1,8,9,6,-1)         182.5217         -DE/DX =    0.0                 !
 ! A14   L(1,8,9,6,-2)         148.386          -DE/DX =    0.0                 !
 ! D1    D(2,1,3,4)            155.0076         -DE/DX =    0.0                 !
 ! D2    D(2,1,3,5)            -85.5801         -DE/DX =    0.0                 !
 ! D3    D(2,1,3,6)             32.5661         -DE/DX =    0.0                 !
 ! D4    D(7,1,3,4)            -43.9958         -DE/DX =    0.0                 !
 ! D5    D(7,1,3,5)             75.4165         -DE/DX =    0.0                 !
 ! D6    D(7,1,3,6)           -166.4373         -DE/DX =    0.0                 !
 ! D7    D(8,1,3,4)             53.0638         -DE/DX =    0.0                 !
 ! D8    D(8,1,3,5)            172.4761         -DE/DX =    0.0                 !
 ! D9    D(8,1,3,6)            -69.3777         -DE/DX =    0.0                 !
 --------------------------------------------------------------------------------
 Largest change from initial coordinates is atom    4       0.214 Angstoms.
 GradGradGradGradGradGradGradGradGradGradGradGradGradGradGradGradGradGrad

 Leave Link  103 at Wed Jan  8 00:18:57 2020, MaxMem=  4294967296 cpu:              41.1 elap:               2.8
 (Enter /home/cwagen/sw/g16/g16/l202.exe)
                          Input orientation:                          
 ---------------------------------------------------------------------
 Center     Atomic      Atomic             Coordinates (Angstroms)
 Number     Number       Type             X           Y           Z
 ---------------------------------------------------------------------
      1          6           0       -0.310889   -0.403642   -0.289129
      2          8           0       -0.123303   -0.532981   -1.455932
      3          6           0       -0.296736   -1.436421    0.795278
      4          1           0       -0.069661   -1.000188    1.766441
      5          1           0       -1.301006   -1.882576    0.826917
      6          1           0        0.434857   -2.207171    0.541009
      7         17           0       -1.239293    1.152762    0.281549
      8          6           0        2.060118    0.416644    0.393115
      9          7           0        3.176604    0.780346    0.276420
 ---------------------------------------------------------------------
                    Distance matrix (angstroms):
                    1          2          3          4          5
     1  C    0.000000
     2  O    1.188843   0.000000
     3  C    1.497588   2.431919   0.000000
     4  H    2.153933   3.256509   1.088586   0.000000
     5  H    2.100747   2.901688   1.099370   1.782561   0.000000
     6  H    2.120845   2.665001   1.092674   1.792493   1.788946
     7  Cl   1.900000   2.665709   2.802891   2.864984   3.084560
     8  C    2.600000   3.014646   3.024953   2.903342   4.095333
     9  N    3.726162   3.951615   4.152994   3.991078   5.238625
                    6          7          8          9
     6  H    0.000000
     7  Cl   3.762877   0.000000
     8  C    3.089944   3.382370   0.000000
     9  N    4.063551   4.431576   1.180016   0.000000
 Stoichiometry    C3H3ClNO(1-)
 Framework group  C1[X(C3H3ClNO)]
 Deg. of freedom    21
 Full point group                 C1      NOp   1
 RotChk:  IX=0 Diff= 1.55D-15
 Largest Abelian subgroup         C1      NOp   1
 Largest concise Abelian subgroup C1      NOp   1
                         Standard orientation:                         
 ---------------------------------------------------------------------
 Center     Atomic      Atomic             Coordinates (Angstroms)
 Number     Number       Type             X           Y           Z
 ---------------------------------------------------------------------
      1          6           0       -0.495835    0.557420    0.271879
      2          8           0       -0.364520    0.830976    1.421345
      3          6           0       -0.472109    1.455000   -0.926686
      4          1           0       -0.186739    0.917299   -1.829162
      5          1           0       -1.489756    1.852019   -1.050721
      6          1           0        0.218770    2.280187   -0.737773
      7         17           0       -1.340413   -1.092739   -0.144847
      8          6           0        1.931399   -0.237821   -0.214051
      9          7           0        3.054312   -0.538334   -0.011079
 ---------------------------------------------------------------------
 Rotational constants (GHZ):           3.4742698           1.6992209           1.4655144
 Leave Link  202 at Wed Jan  8 00:18:57 2020, MaxMem=  4294967296 cpu:               1.4 elap:               0.1
 (Enter /home/cwagen/sw/g16/g16/l601.exe)
 Copying SCF densities to generalized density rwf, IOpCl= 0 IROHF=0.

 **********************************************************************

            Population analysis using the SCF density.

 **********************************************************************

 Orbital symmetries:
       Occupied  (A) (A) (A) (A) (A) (A) (A) (A) (A) (A) (A) (A)
                 (A) (A) (A) (A) (A) (A) (A) (A) (A) (A) (A) (A)
                 (A) (A) (A)
       Virtual   (A) (A) (A) (A) (A) (A) (A) (A) (A) (A) (A) (A)
                 (A) (A) (A) (A) (A) (A) (A) (A) (A) (A) (A) (A)
                 (A) (A) (A) (A) (A) (A) (A) (A) (A) (A) (A) (A)
                 (A) (A) (A) (A) (A) (A) (A) (A) (A) (A) (A) (A)
                 (A) (A) (A) (A) (A) (A) (A) (A) (A) (A) (A) (A)
                 (A) (A) (A) (A) (A) (A) (A) (A) (A) (A) (A) (A)
                 (A) (A) (A) (A) (A) (A) (A) (A) (A) (A) (A) (A)
                 (A) (A) (A) (A) (A) (A) (A) (A) (A) (A) (A) (A)
                 (A)
 The electronic state is 1-A.
 Alpha  occ. eigenvalues -- -101.51419 -19.16672 -14.26102 -10.32750 -10.18730
 Alpha  occ. eigenvalues --  -10.12538  -9.43053  -7.19312  -7.18565  -7.18504
 Alpha  occ. eigenvalues --   -1.07503  -0.81726  -0.80661  -0.73382  -0.53450
 Alpha  occ. eigenvalues --   -0.46283  -0.45106  -0.44879  -0.38642  -0.37287
 Alpha  occ. eigenvalues --   -0.34991  -0.29638  -0.29342  -0.27506  -0.26655
 Alpha  occ. eigenvalues --   -0.26601  -0.23179
 Alpha virt. eigenvalues --   -0.01766   0.01507   0.03503   0.04950   0.05554
 Alpha virt. eigenvalues --    0.06055   0.08473   0.08774   0.09078   0.09640
 Alpha virt. eigenvalues --    0.10787   0.11268   0.11294   0.13195   0.13612
 Alpha virt. eigenvalues --    0.14075   0.14443   0.16459   0.19158   0.21502
 Alpha virt. eigenvalues --    0.22861   0.23495   0.24516   0.25662   0.26355
 Alpha virt. eigenvalues --    0.28358   0.28794   0.30280   0.32492   0.35117
 Alpha virt. eigenvalues --    0.36351   0.40145   0.45644   0.54015   0.58122
 Alpha virt. eigenvalues --    0.62758   0.65008   0.65642   0.68537   0.72455
 Alpha virt. eigenvalues --    0.73315   0.75337   0.75821   0.79203   0.82613
 Alpha virt. eigenvalues --    0.85163   0.87242   0.90907   0.92407   0.94790
 Alpha virt. eigenvalues --    0.98523   1.00304   1.03135   1.03491   1.04463
 Alpha virt. eigenvalues --    1.05807   1.10453   1.15266   1.21077   1.27315
 Alpha virt. eigenvalues --    1.28654   1.33628   1.34609   1.38295   1.46223
 Alpha virt. eigenvalues --    1.54471   1.56642   1.61281   1.61772   1.63860
 Alpha virt. eigenvalues --    1.64004   1.74318   1.76880   1.81866   1.84444
 Alpha virt. eigenvalues --    1.90903   2.03692   2.04065   2.06044   2.17471
 Alpha virt. eigenvalues --    2.23679   2.30669   2.42478   2.51990   2.55315
 Alpha virt. eigenvalues --    2.64259   2.66706   2.68910   2.88853   3.07494
 Alpha virt. eigenvalues --    3.14158   4.02169   4.20292   4.30426   4.32789
 Alpha virt. eigenvalues --    4.38752   4.47094
          Condensed to atoms (all electrons):
               1          2          3          4          5          6
     1  C    7.103935   0.328505  -1.112657  -0.091797   0.047313  -0.121042
     2  O    0.328505   8.088907   0.005531   0.007498  -0.009140   0.004834
     3  C   -1.112657   0.005531   6.609965   0.413154   0.298636   0.435022
     4  H   -0.091797   0.007498   0.413154   0.441250  -0.025366  -0.019937
     5  H    0.047313  -0.009140   0.298636  -0.025366   0.464470  -0.022861
     6  H   -0.121042   0.004834   0.435022  -0.019937  -0.022861   0.452903
     7  Cl  -0.599333  -0.063045   0.261279   0.014617  -0.016234   0.014368
     8  C    0.626559  -0.121403  -0.450056  -0.007467   0.007771  -0.002268
     9  N   -0.050388   0.002565   0.022713   0.000028  -0.000106  -0.000184
               7          8          9
     1  C   -0.599333   0.626559  -0.050388
     2  O   -0.063045  -0.121403   0.002565
     3  C    0.261279  -0.450056   0.022713
     4  H    0.014617  -0.007467   0.000028
     5  H   -0.016234   0.007771  -0.000106
     6  H    0.014368  -0.002268  -0.000184
     7  Cl  17.584054  -0.151675   0.003735
     8  C   -0.151675   5.685049   0.628809
     9  N    0.003735   0.628809   7.053509
 Mulliken charges:
               1
     1  C   -0.131094
     2  O   -0.244253
     3  C   -0.483588
     4  H    0.268019
     5  H    0.255518
     6  H    0.259165
     7  Cl  -0.047766
     8  C   -0.215319
     9  N   -0.660682
 Sum of Mulliken charges =  -1.00000
 Mulliken charges with hydrogens summed into heavy atoms:
               1
     1  C   -0.131094
     2  O   -0.244253
     3  C    0.299115
     7  Cl  -0.047766
     8  C   -0.215319
     9  N   -0.660682
 Electronic spatial extent (au):  <R**2>=            858.9923
 Charge=             -1.0000 electrons
 Dipole moment (field-independent basis, Debye):
    X=             -9.8604    Y=              4.2354    Z=             -2.2885  Tot=             10.9729
 Quadrupole moment (field-independent basis, Debye-Ang):
   XX=            -80.5836   YY=            -46.2194   ZZ=            -48.6306
   XY=              3.0865   XZ=              1.5591   YZ=             -3.4231
 Traceless Quadrupole moment (field-independent basis, Debye-Ang):
   XX=            -22.1057   YY=             12.2585   ZZ=              9.8473
   XY=              3.0865   XZ=              1.5591   YZ=             -3.4231
 Octapole moment (field-independent basis, Debye-Ang**2):
  XXX=           -128.2753  YYY=              9.9697  ZZZ=             -3.0799  XYY=            -12.3963
  XXY=             24.1545  XXZ=              1.7587  XZZ=             -8.0674  YZZ=             -0.0972
  YYZ=             -2.5886  XYZ=              1.2742
 Hexadecapole moment (field-independent basis, Debye-Ang**3):
 XXXX=          -1128.7421 YYYY=           -295.5873 ZZZZ=           -184.7187 XXXY=             63.8891
 XXXZ=              2.4750 YYYX=             15.2934 YYYZ=             -2.0756 ZZZX=              4.2397
 ZZZY=             -3.5098 XXYY=           -190.6325 XXZZ=           -164.1357 YYZZ=            -83.9653
 XXYZ=             -0.0660 YYXZ=              3.1094 ZZXY=              3.7869
 N-N= 2.413831223428D+02 E-N=-2.160501053865D+03  KE= 7.026291224872D+02
 No NMR shielding tensors so no spin-rotation constants.
 Leave Link  601 at Wed Jan  8 00:18:58 2020, MaxMem=  4294967296 cpu:               8.7 elap:               0.6
 (Enter /home/cwagen/sw/g16/g16/l9999.exe)
 1\1\GINC-NODE006\FOpt\RB3LYP\6-31+G(d)\C3H3Cl1N1O1(1-)\CWAGEN\08-Jan-2
 020\0\\#p opt=modredundant b3lyp/6-31+g(d) scrf=(smd, solvent=tetrahyd
 rofuran)\\title\\-1,1\C,-0.3108889754,-0.4036420896,-0.2891289051\O,-0
 .1233030519,-0.5329808887,-1.4559322826\C,-0.2967356759,-1.4364210651,
 0.7952777238\H,-0.0696613784,-1.0001879155,1.7664411289\H,-1.301006244
 6,-1.8825758266,0.8269174348\H,0.4348569363,-2.2071710983,0.5410092757
 \Cl,-1.2392926025,1.1527619941,0.2815487863\C,2.060117879,0.4166439136
 ,0.3931154684\N,3.1766041833,0.7803463761,0.2764204198\\Version=AS64L-
 G16RevA.03\State=1-A\HF=-706.4135553\RMSD=1.839e-09\RMSF=1.917e-03\Dip
 ole=-3.8387784,-1.9035017,0.5267439\Quadrupole=-16.080374,9.4993545,6.
 5810196,-2.9901017,-2.3441625,-2.4442367\PG=C01 [X(C3H3Cl1N1O1)]\\@


 The lyf so short, the craft so long to lerne.
                             -- Chaucer
 Job cpu time:       0 days  3 hours 58 minutes 56.9 seconds.
 Elapsed time:       0 days  0 hours 17 minutes 24.9 seconds.
 File lengths (MBytes):  RWF=     63 Int=      0 D2E=      0 Chk=      3 Scr=      1
 Normal termination of Gaussian 16 at Wed Jan  8 00:18:58 2020.
