 Entering Gaussian System, Link 0=g16
 Input=scan_160_290.gjf
 Output=scan_160_290.out
 Initial command:
 /home/cwagen/sw/g16/g16/l1.exe "/scratch/users/cwagen/cwagen_scan_160_290/Gau-40903.inp" -scrdir="/scratch/users/cwagen/cwagen_scan_160_290/"
 Entering Link 1 = /home/cwagen/sw/g16/g16/l1.exe PID=     40904.
  
 Copyright (c) 1988,1990,1992,1993,1995,1998,2003,2009,2016,
            Gaussian, Inc.  All Rights Reserved.
  
 This is part of the Gaussian(R) 16 program.  It is based on
 the Gaussian(R) 09 system (copyright 2009, Gaussian, Inc.),
 the Gaussian(R) 03 system (copyright 2003, Gaussian, Inc.),
 the Gaussian(R) 98 system (copyright 1998, Gaussian, Inc.),
 the Gaussian(R) 94 system (copyright 1995, Gaussian, Inc.),
 the Gaussian 92(TM) system (copyright 1992, Gaussian, Inc.),
 the Gaussian 90(TM) system (copyright 1990, Gaussian, Inc.),
 the Gaussian 88(TM) system (copyright 1988, Gaussian, Inc.),
 the Gaussian 86(TM) system (copyright 1986, Carnegie Mellon
 University), and the Gaussian 82(TM) system (copyright 1983,
 Carnegie Mellon University). Gaussian is a federally registered
 trademark of Gaussian, Inc.
  
 This software contains proprietary and confidential information,
 including trade secrets, belonging to Gaussian, Inc.
  
 This software is provided under written license and may be
 used, copied, transmitted, or stored only in accord with that
 written license.
  
 The following legend is applicable only to US Government
 contracts under FAR:
  
                    RESTRICTED RIGHTS LEGEND
  
 Use, reproduction and disclosure by the US Government is
 subject to restrictions as set forth in subparagraphs (a)
 and (c) of the Commercial Computer Software - Restricted
 Rights clause in FAR 52.227-19.
  
 Gaussian, Inc.
 340 Quinnipiac St., Bldg. 40, Wallingford CT 06492
  
  
 ---------------------------------------------------------------
 Warning -- This program may not be used in any manner that
 competes with the business of Gaussian, Inc. or will provide
 assistance to any competitor of Gaussian, Inc.  The licensee
 of this program is prohibited from giving any competitor of
 Gaussian, Inc. access to this program.  By using this program,
 the user acknowledges that Gaussian, Inc. is engaged in the
 business of creating and licensing software in the field of
 computational chemistry and represents and warrants to the
 licensee that it is not a competitor of Gaussian, Inc. and that
 it will not use this program in any manner prohibited above.
 ---------------------------------------------------------------
  

 Cite this work as:
 Gaussian 16, Revision A.03,
 M. J. Frisch, G. W. Trucks, H. B. Schlegel, G. E. Scuseria, 
 M. A. Robb, J. R. Cheeseman, G. Scalmani, V. Barone, 
 G. A. Petersson, H. Nakatsuji, X. Li, M. Caricato, A. V. Marenich, 
 J. Bloino, B. G. Janesko, R. Gomperts, B. Mennucci, H. P. Hratchian, 
 J. V. Ortiz, A. F. Izmaylov, J. L. Sonnenberg, D. Williams-Young, 
 F. Ding, F. Lipparini, F. Egidi, J. Goings, B. Peng, A. Petrone, 
 T. Henderson, D. Ranasinghe, V. G. Zakrzewski, J. Gao, N. Rega, 
 G. Zheng, W. Liang, M. Hada, M. Ehara, K. Toyota, R. Fukuda, 
 J. Hasegawa, M. Ishida, T. Nakajima, Y. Honda, O. Kitao, H. Nakai, 
 T. Vreven, K. Throssell, J. A. Montgomery, Jr., J. E. Peralta, 
 F. Ogliaro, M. J. Bearpark, J. J. Heyd, E. N. Brothers, K. N. Kudin, 
 V. N. Staroverov, T. A. Keith, R. Kobayashi, J. Normand, 
 K. Raghavachari, A. P. Rendell, J. C. Burant, S. S. Iyengar, 
 J. Tomasi, M. Cossi, J. M. Millam, M. Klene, C. Adamo, R. Cammi, 
 J. W. Ochterski, R. L. Martin, K. Morokuma, O. Farkas, 
 J. B. Foresman, and D. J. Fox, Gaussian, Inc., Wallingford CT, 2016.
 
 ******************************************
 Gaussian 16:  AS64L-G16RevA.03 25-Dec-2016
                 7-Jan-2020 
 ******************************************
 %nprocshared=16
 Will use up to   16 processors via shared memory.
 %mem=32GB
 ----------------------------------------------------------------------
 #p opt=modredundant b3lyp/6-31+g(d) scrf=(smd, solvent=tetrahydrofuran
 )
 ----------------------------------------------------------------------
 1/18=120,19=15,26=3,38=1/1,3;
 2/9=110,12=2,17=6,18=5,40=1/2;
 3/5=1,6=6,7=11,11=2,25=1,30=1,70=32201,71=1,72=20,74=-5/1,2,3;
 4//1;
 5/5=2,38=5,53=20/2;
 6/7=2,8=2,9=2,10=2,28=1/1;
 7//1,2,3,16;
 1/18=20,19=15,26=3/3(2);
 2/9=110/2;
 99//99;
 2/9=110/2;
 3/5=1,6=6,7=11,11=2,25=1,30=1,70=32205,71=1,72=20,74=-5/1,2,3;
 4/5=5,16=3,69=1/1;
 5/5=2,38=5,53=20/2;
 7//1,2,3,16;
 1/18=20,19=15,26=3/3(-5);
 2/9=110/2;
 6/7=2,8=2,9=2,10=2,19=2,28=1/1;
 99/9=1/99;
 Leave Link    1 at Tue Jan  7 23:06:01 2020, MaxMem=  4294967296 cpu:               2.9 elap:               0.2
 (Enter /home/cwagen/sw/g16/g16/l101.exe)
 -----
 title
 -----
 Symbolic Z-matrix:
 Charge = -1 Multiplicity = 1
 6                    -0.19426  -0.292    -0.21291 
 8                    -0.25532  -0.66526  -1.45426 
 6                    -0.33095  -1.45422   0.81632 
 1                    -0.18039  -1.13044   1.85373 
 1                    -1.34067  -1.87301   0.71427 
 1                     0.39707  -2.23395   0.57058 
 17                   -1.15225   0.92328   0.19373 
 6                     2.49439   0.6495    0.32998 
 7                     3.62896   0.92979   0.36029 
 
 Add virtual bond connecting atoms C8         and C1         Dist= 5.48D+00.
 The following ModRedundant input section has been read:
 B       1       7 F                                                           
 B       1       8 F                                                           
 
 ITRead=  0  0  0  0  0  0  0  0  0
 MicOpt= -1 -1 -1 -1 -1 -1 -1 -1 -1
 NAtoms=      9 NQM=        9 NQMF=       0 NMMI=      0 NMMIF=      0
                NMic=       0 NMicF=      0.
                    Isotopes and Nuclear Properties:
 (Nuclear quadrupole moments (NQMom) in fm**2, nuclear magnetic moments (NMagM)
  in nuclear magnetons)

  Atom         1           2           3           4           5           6           7           8           9
 IAtWgt=          12          16          12           1           1           1          35          12          14
 AtmWgt=  12.0000000  15.9949146  12.0000000   1.0078250   1.0078250   1.0078250  34.9688527  12.0000000  14.0030740
 NucSpn=           0           0           0           1           1           1           3           0           2
 AtZEff=   0.0000000   0.0000000   0.0000000   0.0000000   0.0000000   0.0000000   0.0000000   0.0000000   0.0000000
 NQMom=    0.0000000   0.0000000   0.0000000   0.0000000   0.0000000   0.0000000  -8.1650000   0.0000000   2.0440000
 NMagM=    0.0000000   0.0000000   0.0000000   2.7928460   2.7928460   2.7928460   0.8218740   0.0000000   0.4037610
 AtZNuc=   6.0000000   8.0000000   6.0000000   1.0000000   1.0000000   1.0000000  17.0000000   6.0000000   7.0000000
 Leave Link  101 at Tue Jan  7 23:06:01 2020, MaxMem=  4294967296 cpu:               7.8 elap:               0.7
 (Enter /home/cwagen/sw/g16/g16/l103.exe)

 GradGradGradGradGradGradGradGradGradGradGradGradGradGradGradGradGradGrad
 Berny optimization.
 Initialization pass.
                           ----------------------------
                           !    Initial Parameters    !
                           ! (Angstroms and Degrees)  !
 --------------------------                            --------------------------
 ! Name  Definition              Value          Derivative Info.                !
 --------------------------------------------------------------------------------
 ! R1    R(1,2)                  1.2977         estimate D2E/DX2                !
 ! R2    R(1,3)                  1.5584         estimate D2E/DX2                !
 ! R3    R(1,7)                  1.6            Frozen                          !
 ! R4    R(1,8)                  2.9            Frozen                          !
 ! R5    R(3,4)                  1.0971         estimate D2E/DX2                !
 ! R6    R(3,5)                  1.0979         estimate D2E/DX2                !
 ! R7    R(3,6)                  1.0947         estimate D2E/DX2                !
 ! R8    R(8,9)                  1.1691         estimate D2E/DX2                !
 ! A1    A(2,1,3)              114.4006         estimate D2E/DX2                !
 ! A2    A(2,1,7)              115.6846         estimate D2E/DX2                !
 ! A3    A(2,1,8)              108.426          estimate D2E/DX2                !
 ! A4    A(3,1,7)              110.248          estimate D2E/DX2                !
 ! A5    A(3,1,8)              101.5248         estimate D2E/DX2                !
 ! A6    A(7,1,8)              105.1256         estimate D2E/DX2                !
 ! A7    A(1,3,4)              113.1005         estimate D2E/DX2                !
 ! A8    A(1,3,5)              107.683          estimate D2E/DX2                !
 ! A9    A(1,3,6)              108.9421         estimate D2E/DX2                !
 ! A10   A(4,3,5)              109.0662         estimate D2E/DX2                !
 ! A11   A(4,3,6)              109.3417         estimate D2E/DX2                !
 ! A12   A(5,3,6)              108.6067         estimate D2E/DX2                !
 ! A13   L(1,8,9,6,-1)         177.0663         estimate D2E/DX2                !
 ! A14   L(1,8,9,6,-2)         163.5063         estimate D2E/DX2                !
 ! D1    D(2,1,3,4)            174.4714         estimate D2E/DX2                !
 ! D2    D(2,1,3,5)            -64.9488         estimate D2E/DX2                !
 ! D3    D(2,1,3,6)             52.6633         estimate D2E/DX2                !
 ! D4    D(7,1,3,4)            -53.1046         estimate D2E/DX2                !
 ! D5    D(7,1,3,5)             67.4752         estimate D2E/DX2                !
 ! D6    D(7,1,3,6)           -174.9127         estimate D2E/DX2                !
 ! D7    D(8,1,3,4)             57.938          estimate D2E/DX2                !
 ! D8    D(8,1,3,5)            178.5177         estimate D2E/DX2                !
 ! D9    D(8,1,3,6)            -63.8702         estimate D2E/DX2                !
 --------------------------------------------------------------------------------
 Trust Radius=3.00D-01 FncErr=1.00D-07 GrdErr=1.00D-06 EigMax=2.50D+02 EigMin=1.00D-04
 Number of steps in this run=     41 maximum allowed number of steps=    100.
 GradGradGradGradGradGradGradGradGradGradGradGradGradGradGradGradGradGrad

 Leave Link  103 at Tue Jan  7 23:06:02 2020, MaxMem=  4294967296 cpu:               0.9 elap:               0.1
 (Enter /home/cwagen/sw/g16/g16/l202.exe)
                          Input orientation:                          
 ---------------------------------------------------------------------
 Center     Atomic      Atomic             Coordinates (Angstroms)
 Number     Number       Type             X           Y           Z
 ---------------------------------------------------------------------
      1          6           0       -0.194263   -0.291999   -0.212908
      2          8           0       -0.255321   -0.665256   -1.454255
      3          6           0       -0.330945   -1.454221    0.816316
      4          1           0       -0.180394   -1.130438    1.853734
      5          1           0       -1.340665   -1.873010    0.714272
      6          1           0        0.397068   -2.233949    0.570583
      7         17           0       -1.152246    0.923284    0.193734
      8          6           0        2.494390    0.649496    0.329984
      9          7           0        3.628961    0.929794    0.360287
 ---------------------------------------------------------------------
                    Distance matrix (angstroms):
                    1          2          3          4          5
     1  C    0.000000
     2  O    1.297687   0.000000
     3  C    1.558443   2.404928   0.000000
     4  H    2.230287   3.341377   1.097150   0.000000
     5  H    2.161827   2.709087   1.097876   1.787740   0.000000
     6  H    2.175937   2.643176   1.094698   1.788205   1.780629
     7  Cl   1.600000   2.458414   2.591268   2.813871   2.850565
     8  C    2.900000   3.531712   3.555933   3.555904   4.606339
     9  N    4.054426   4.574319   4.644604   4.581062   5.716485
                    6          7          8          9
     6  H    0.000000
     7  Cl   3.537019   0.000000
     8  C    3.573640   3.659437   0.000000
     9  N    4.527541   4.784111   1.169075   0.000000
 Stoichiometry    C3H3ClNO(1-)
 Framework group  C1[X(C3H3ClNO)]
 Deg. of freedom    21
 Full point group                 C1      NOp   1
 Largest Abelian subgroup         C1      NOp   1
 Largest concise Abelian subgroup C1      NOp   1
                         Standard orientation:                         
 ---------------------------------------------------------------------
 Center     Atomic      Atomic             Coordinates (Angstroms)
 Number     Number       Type             X           Y           Z
 ---------------------------------------------------------------------
      1          6           0       -0.551459    0.301556    0.212643
      2          8           0       -0.780709    0.705401    1.424396
      3          6           0       -0.820545    1.374362   -0.885276
      4          1           0       -0.529301    1.044253   -1.890234
      5          1           0       -1.895728    1.596315   -0.878245
      6          1           0       -0.273633    2.287937   -0.631044
      7         17           0       -1.228990   -1.089532   -0.194573
      8          6           0        2.300710   -0.129941   -0.085587
      9          7           0        3.466419   -0.189362   -0.019797
 ---------------------------------------------------------------------
 Rotational constants (GHZ):           3.8615641           1.4121376           1.2847105
 Leave Link  202 at Tue Jan  7 23:06:02 2020, MaxMem=  4294967296 cpu:               2.4 elap:               0.2
 (Enter /home/cwagen/sw/g16/g16/l301.exe)
 Standard basis: 6-31+G(d) (6D, 7F)
 Ernie: Thresh=  0.10000D-02 Tol=  0.10000D-05 Strict=F.
 There are   124 symmetry adapted cartesian basis functions of A   symmetry.
 There are   124 symmetry adapted basis functions of A   symmetry.
   124 basis functions,   228 primitive gaussians,   124 cartesian basis functions
    27 alpha electrons       27 beta electrons
       nuclear repulsion energy       240.9862368371 Hartrees.
 IExCor=  402 DFT=T Ex+Corr=B3LYP ExCW=0 ScaHFX=  0.200000
 ScaDFX=  0.800000  0.720000  1.000000  0.810000 ScalE2=  1.000000  1.000000
 IRadAn=      5 IRanWt=     -1 IRanGd=            0 ICorTp=0 IEmpDi=  4
 NAtoms=    9 NActive=    9 NUniq=    9 SFac= 1.00D+00 NAtFMM=   60 NAOKFM=F Big=F
 Integral buffers will be    131072 words long.
 Raffenetti 2 integral format.
 Two-electron integral symmetry is turned on.
 ------------------------------------------------------------------------------
 Polarizable Continuum Model (PCM)
 =================================
 Model                : PCM.
 Atomic radii         : SMD-Coulomb.
 Polarization charges : Total charges.
 Charge compensation  : None.
 Solution method      : On-the-fly selection.
 Cavity type          : VdW (van der Waals Surface) (Alpha=1.000).
 Cavity algorithm     : GePol (No added spheres)
                        Default sphere list used, NSphG=    9.
                        Lebedev-Laikov grids with approx.  5.0 points / Ang**2.
                        Smoothing algorithm: York/Karplus (Gamma=1.0000).
                        Polarization charges: spherical gaussians, with
                                              point-specific exponents (IZeta= 3).
                        Self-potential: point-specific (ISelfS= 7).
                        Self-field    : sphere-specific E.n sum rule (ISelfD= 2).
 1st derivatives      : Analytical E(r).r(x)/FMM algorithm (CHGder, D1EAlg=3).
                        Cavity 1st derivative terms included.
 Solvent              : TetraHydroFuran, Eps=   7.425700 Eps(inf)=   1.974025
 ------------------------------------------------------------------------------
 Spheres list:
 ISph  on   Nord     Re0    Alpha      Xe            Ye            Ze
    1   C      1    1.8500  1.000     -0.551459      0.301556      0.212643
    2   O      2    2.2940  1.000     -0.780709      0.705401      1.424396
    3   C      3    1.8500  1.000     -0.820545      1.374362     -0.885276
    4   H      4    1.2000  1.000     -0.529301      1.044253     -1.890234
    5   H      5    1.2000  1.000     -1.895728      1.596315     -0.878245
    6   H      6    1.2000  1.000     -0.273633      2.287937     -0.631044
    7  Cl      7    2.3800  1.000     -1.228990     -1.089532     -0.194573
    8   C      8    1.8500  1.000      2.300710     -0.129941     -0.085587
    9   N      9    1.8900  1.000      3.466419     -0.189362     -0.019797
 ------------------------------------------------------------------------------
 GePol: Number of generator spheres                  =       9
 GePol: Total number of spheres                      =       9
 GePol: Number of exposed spheres                    =       9 (100.00%)
 GePol: Number of points                             =    1226
 GePol: Average weight of points                     =       0.14
 GePol: Minimum weight of points                     =   0.67D-08
 GePol: Maximum weight of points                     =    0.18138
 GePol: Number of points with low weight             =      26
 GePol: Fraction of low-weight points (<1% of avg)   =       2.12%
 GePol: Cavity surface area                          =    166.801 Ang**2
 GePol: Cavity volume                                =    147.941 Ang**3
 ------------------------------------------------------------------------------
 Atomic radii for non-electrostatic terms: SMD-CDS.
 ------------------------------------------------------------------------------
 PCM non-electrostatic energy =         0.0012807948 Hartrees.
 Nuclear repulsion after PCM non-electrostatic terms =      240.9875176320 Hartrees.
 Leave Link  301 at Tue Jan  7 23:06:02 2020, MaxMem=  4294967296 cpu:               2.5 elap:               0.2
 (Enter /home/cwagen/sw/g16/g16/l302.exe)
 NPDir=0 NMtPBC=     1 NCelOv=     1 NCel=       1 NClECP=     1 NCelD=      1
         NCelK=      1 NCelE2=     1 NClLst=     1 CellRange=     0.0.
 One-electron integrals computed using PRISM.
 One-electron integral symmetry used in STVInt
 NBasis=   124 RedAO= T EigKep=  8.96D-05  NBF=   124
 NBsUse=   124 1.00D-06 EigRej= -1.00D+00 NBFU=   124
 Precomputing XC quadrature grid using
 IXCGrd= 4 IRadAn=           5 IRanWt=          -1 IRanGd=           0 AccXCQ= 0.00D+00.
 Generated NRdTot=       0 NPtTot=           0 NUsed=           0 NTot=          32
 NSgBfM=   124   124   124   124   124 MxSgAt=     9 MxSgA2=     9.
 Leave Link  302 at Tue Jan  7 23:06:04 2020, MaxMem=  4294967296 cpu:              28.3 elap:               2.2
 (Enter /home/cwagen/sw/g16/g16/l303.exe)
 DipDrv:  MaxL=1.
 Leave Link  303 at Tue Jan  7 23:06:05 2020, MaxMem=  4294967296 cpu:               3.7 elap:               0.4
 (Enter /home/cwagen/sw/g16/g16/l401.exe)
 ExpMin= 4.38D-02 ExpMax= 2.52D+04 ExpMxC= 3.78D+03 IAcc=3 IRadAn=         5 AccDes= 0.00D+00
 Harris functional with IExCor=  402 and IRadAn=       5 diagonalized for initial guess.
 HarFok:  IExCor=  402 AccDes= 0.00D+00 IRadAn=         5 IDoV= 1 UseB2=F ITyADJ=14
 ICtDFT=  3500011 ScaDFX=  1.000000  1.000000  1.000000  1.000000
 FoFCou: FMM=F IPFlag=           0 FMFlag=      100000 FMFlg1=           0
         NFxFlg=           0 DoJE=T BraDBF=F KetDBF=T FulRan=T
         wScrn=  0.000000 ICntrl=       500 IOpCl=  0 I1Cent=   200000004 NGrid=           0
         NMat0=    1 NMatS0=      1 NMatT0=    0 NMatD0=    1 NMtDS0=    0 NMtDT0=    0
 Petite list used in FoFCou.
 Harris En= -706.391597840238    
 JPrj=0 DoOrth=F DoCkMO=F.
 Leave Link  401 at Tue Jan  7 23:06:07 2020, MaxMem=  4294967296 cpu:              25.9 elap:               2.0
 (Enter /home/cwagen/sw/g16/g16/l502.exe)
 Keep R1 ints in memory in canonical form, NReq=45236517.
 FoFCou: FMM=F IPFlag=           0 FMFlag=           0 FMFlg1=           0
         NFxFlg=           0 DoJE=F BraDBF=F KetDBF=F FulRan=T
         wScrn=  0.000000 ICntrl=       600 IOpCl=  0 I1Cent=           0 NGrid=           0
         NMat0=    1 NMatS0=   7750 NMatT0=    0 NMatD0=    1 NMtDS0=    0 NMtDT0=    0
 Symmetry not used in FoFCou.
 Two-electron integral symmetry not used.
 Closed shell SCF:
 Using DIIS extrapolation, IDIIS=  1040.
 NGot=  4294967296 LenX=  4264898079 LenY=  4264882262
 Requested convergence on RMS density matrix=1.00D-08 within 128 cycles.
 Requested convergence on MAX density matrix=1.00D-06.
 Requested convergence on             energy=1.00D-06.
 No special actions if energy rises.

 Cycle   1  Pass 1  IDiag  1:
 Inv3:  Mode=1 IEnd=     4509228.
 Iteration    1 A*A^-1 deviation from unit magnitude is 2.66D-15 for   1194.
 Iteration    1 A*A^-1 deviation from orthogonality  is 1.40D-15 for   1225   1102.
 Iteration    1 A^-1*A deviation from unit magnitude is 2.55D-15 for   1194.
 Iteration    1 A^-1*A deviation from orthogonality  is 1.43D-15 for   1220    976.
 E= -706.095295385912    
 DIIS: error= 3.56D-02 at cycle   1 NSaved=   1.
 NSaved= 1 IEnMin= 1 EnMin= -706.095295385912     IErMin= 1 ErrMin= 3.56D-02
 ErrMax= 3.56D-02  0.00D+00 EMaxC= 1.00D-01 BMatC= 2.70D-01 BMatP= 2.70D-01
 IDIUse=3 WtCom= 6.44D-01 WtEn= 3.56D-01
 Coeff-Com:  0.100D+01
 Coeff-En:   0.100D+01
 Coeff:      0.100D+01
 Gap=     0.300 Goal=   None    Shift=    0.000
 GapD=    0.300 DampG=1.000 DampE=0.500 DampFc=0.5000 IDamp=-1.
 Damping current iteration by 5.00D-01
 RMSDP=3.00D-02 MaxDP=1.86D+00              OVMax= 4.39D-01

 Cycle   2  Pass 1  IDiag  1:
 E= -706.057517377810     Delta-E=        0.037778008102 Rises=F Damp=T
 DIIS: error= 2.50D-02 at cycle   2 NSaved=   2.
 NSaved= 2 IEnMin= 1 EnMin= -706.095295385912     IErMin= 2 ErrMin= 2.50D-02
 ErrMax= 2.50D-02  0.00D+00 EMaxC= 1.00D-01 BMatC= 1.15D-01 BMatP= 2.70D-01
 IDIUse=3 WtCom= 7.50D-01 WtEn= 2.50D-01
 Coeff-Com:  0.372D+00 0.628D+00
 Coeff-En:   0.548D+00 0.452D+00
 Coeff:      0.416D+00 0.584D+00
 Gap=     0.163 Goal=   None    Shift=    0.000
 RMSDP=9.00D-03 MaxDP=2.15D-01 DE= 3.78D-02 OVMax= 3.81D-01

 Cycle   3  Pass 1  IDiag  1:
 E= -706.309378616950     Delta-E=       -0.251861239140 Rises=F Damp=F
 DIIS: error= 1.67D-02 at cycle   3 NSaved=   3.
 NSaved= 3 IEnMin= 3 EnMin= -706.309378616950     IErMin= 3 ErrMin= 1.67D-02
 ErrMax= 1.67D-02  0.00D+00 EMaxC= 1.00D-01 BMatC= 5.24D-02 BMatP= 1.15D-01
 IDIUse=3 WtCom= 8.33D-01 WtEn= 1.67D-01
 Coeff-Com:  0.174D+00 0.391D+00 0.435D+00
 Coeff-En:   0.000D+00 0.000D+00 0.100D+01
 Coeff:      0.145D+00 0.326D+00 0.529D+00
 Gap=     0.183 Goal=   None    Shift=    0.000
 RMSDP=5.63D-03 MaxDP=3.56D-01 DE=-2.52D-01 OVMax= 1.00D-01

 Cycle   4  Pass 1  IDiag  1:
 E= -706.354358156506     Delta-E=       -0.044979539556 Rises=F Damp=F
 DIIS: error= 6.54D-03 at cycle   4 NSaved=   4.
 NSaved= 4 IEnMin= 4 EnMin= -706.354358156506     IErMin= 4 ErrMin= 6.54D-03
 ErrMax= 6.54D-03  0.00D+00 EMaxC= 1.00D-01 BMatC= 7.49D-03 BMatP= 5.24D-02
 IDIUse=3 WtCom= 9.35D-01 WtEn= 6.54D-02
 Coeff-Com:  0.149D-01 0.176D-01 0.273D+00 0.695D+00
 Coeff-En:   0.000D+00 0.000D+00 0.117D+00 0.883D+00
 Coeff:      0.139D-01 0.165D-01 0.263D+00 0.707D+00
 Gap=     0.190 Goal=   None    Shift=    0.000
 RMSDP=9.82D-04 MaxDP=3.97D-02 DE=-4.50D-02 OVMax= 1.95D-02

 Cycle   5  Pass 1  IDiag  1:
 E= -706.360285725713     Delta-E=       -0.005927569207 Rises=F Damp=F
 DIIS: error= 3.29D-03 at cycle   5 NSaved=   5.
 NSaved= 5 IEnMin= 5 EnMin= -706.360285725713     IErMin= 5 ErrMin= 3.29D-03
 ErrMax= 3.29D-03  0.00D+00 EMaxC= 1.00D-01 BMatC= 6.40D-04 BMatP= 7.49D-03
 IDIUse=3 WtCom= 9.67D-01 WtEn= 3.29D-02
 Coeff-Com:  0.290D-02-0.754D-02 0.155D+00 0.456D+00 0.394D+00
 Coeff-En:   0.000D+00 0.000D+00 0.000D+00 0.000D+00 0.100D+01
 Coeff:      0.281D-02-0.729D-02 0.149D+00 0.441D+00 0.414D+00
 Gap=     0.176 Goal=   None    Shift=    0.000
 RMSDP=4.40D-04 MaxDP=2.66D-02 DE=-5.93D-03 OVMax= 1.03D-02

 Cycle   6  Pass 1  IDiag  1:
 E= -706.360779764581     Delta-E=       -0.000494038868 Rises=F Damp=F
 DIIS: error= 8.19D-04 at cycle   6 NSaved=   6.
 NSaved= 6 IEnMin= 6 EnMin= -706.360779764581     IErMin= 6 ErrMin= 8.19D-04
 ErrMax= 8.19D-04  0.00D+00 EMaxC= 1.00D-01 BMatC= 8.63D-05 BMatP= 6.40D-04
 IDIUse=3 WtCom= 9.92D-01 WtEn= 8.19D-03
 Coeff-Com:  0.143D-02-0.853D-02 0.436D-01 0.124D+00 0.260D+00 0.580D+00
 Coeff-En:   0.000D+00 0.000D+00 0.000D+00 0.000D+00 0.127D+00 0.873D+00
 Coeff:      0.142D-02-0.846D-02 0.432D-01 0.123D+00 0.259D+00 0.582D+00
 Gap=     0.177 Goal=   None    Shift=    0.000
 RMSDP=7.79D-05 MaxDP=1.64D-03 DE=-4.94D-04 OVMax= 2.46D-03

 Cycle   7  Pass 1  IDiag  1:
 E= -706.360852957872     Delta-E=       -0.000073193290 Rises=F Damp=F
 DIIS: error= 1.49D-04 at cycle   7 NSaved=   7.
 NSaved= 7 IEnMin= 7 EnMin= -706.360852957872     IErMin= 7 ErrMin= 1.49D-04
 ErrMax= 1.49D-04  0.00D+00 EMaxC= 1.00D-01 BMatC= 3.90D-06 BMatP= 8.63D-05
 IDIUse=3 WtCom= 9.99D-01 WtEn= 1.49D-03
 Coeff-Com:  0.124D-02-0.410D-02 0.113D-01 0.248D-01 0.835D-01 0.234D+00
 Coeff-Com:  0.650D+00
 Coeff-En:   0.000D+00 0.000D+00 0.000D+00 0.000D+00 0.000D+00 0.000D+00
 Coeff-En:   0.100D+01
 Coeff:      0.124D-02-0.409D-02 0.113D-01 0.247D-01 0.834D-01 0.233D+00
 Coeff:      0.650D+00
 Gap=     0.177 Goal=   None    Shift=    0.000
 RMSDP=2.87D-05 MaxDP=1.70D-03 DE=-7.32D-05 OVMax= 4.49D-04

 Cycle   8  Pass 1  IDiag  1:
 E= -706.360855913414     Delta-E=       -0.000002955542 Rises=F Damp=F
 DIIS: error= 5.02D-05 at cycle   8 NSaved=   8.
 NSaved= 8 IEnMin= 8 EnMin= -706.360855913414     IErMin= 8 ErrMin= 5.02D-05
 ErrMax= 5.02D-05  0.00D+00 EMaxC= 1.00D-01 BMatC= 5.15D-07 BMatP= 3.90D-06
 IDIUse=1 WtCom= 1.00D+00 WtEn= 0.00D+00
 Coeff-Com:  0.657D-03-0.140D-02 0.104D-02-0.205D-02 0.901D-02 0.346D-01
 Coeff-Com:  0.264D+00 0.695D+00
 Coeff:      0.657D-03-0.140D-02 0.104D-02-0.205D-02 0.901D-02 0.346D-01
 Coeff:      0.264D+00 0.695D+00
 Gap=     0.177 Goal=   None    Shift=    0.000
 RMSDP=1.17D-05 MaxDP=2.89D-04 DE=-2.96D-06 OVMax= 2.22D-04

 Cycle   9  Pass 1  IDiag  1:
 E= -706.360856354715     Delta-E=       -0.000000441301 Rises=F Damp=F
 DIIS: error= 1.24D-05 at cycle   9 NSaved=   9.
 NSaved= 9 IEnMin= 9 EnMin= -706.360856354715     IErMin= 9 ErrMin= 1.24D-05
 ErrMax= 1.24D-05  0.00D+00 EMaxC= 1.00D-01 BMatC= 4.45D-08 BMatP= 5.15D-07
 IDIUse=1 WtCom= 1.00D+00 WtEn= 0.00D+00
 Coeff-Com:  0.261D-03-0.366D-03 0.996D-05-0.202D-02-0.243D-02-0.669D-02
 Coeff-Com:  0.505D-01 0.327D+00 0.633D+00
 Coeff:      0.261D-03-0.366D-03 0.996D-05-0.202D-02-0.243D-02-0.669D-02
 Coeff:      0.505D-01 0.327D+00 0.633D+00
 Gap=     0.177 Goal=   None    Shift=    0.000
 RMSDP=2.56D-06 MaxDP=5.28D-05 DE=-4.41D-07 OVMax= 6.02D-05

 Cycle  10  Pass 1  IDiag  1:
 E= -706.360856396881     Delta-E=       -0.000000042166 Rises=F Damp=F
 DIIS: error= 3.24D-06 at cycle  10 NSaved=  10.
 NSaved=10 IEnMin=10 EnMin= -706.360856396881     IErMin=10 ErrMin= 3.24D-06
 ErrMax= 3.24D-06  0.00D+00 EMaxC= 1.00D-01 BMatC= 2.06D-09 BMatP= 4.45D-08
 IDIUse=1 WtCom= 1.00D+00 WtEn= 0.00D+00
 Coeff-Com:  0.530D-04-0.343D-04-0.818D-04-0.685D-03-0.179D-02-0.620D-02
 Coeff-Com: -0.548D-02 0.667D-01 0.221D+00 0.727D+00
 Coeff:      0.530D-04-0.343D-04-0.818D-04-0.685D-03-0.179D-02-0.620D-02
 Coeff:     -0.548D-02 0.667D-01 0.221D+00 0.727D+00
 Gap=     0.177 Goal=   None    Shift=    0.000
 RMSDP=8.53D-07 MaxDP=4.18D-05 DE=-4.22D-08 OVMax= 1.98D-05

 Cycle  11  Pass 1  IDiag  1:
 E= -706.360856398788     Delta-E=       -0.000000001908 Rises=F Damp=F
 DIIS: error= 5.46D-07 at cycle  11 NSaved=  11.
 NSaved=11 IEnMin=11 EnMin= -706.360856398788     IErMin=11 ErrMin= 5.46D-07
 ErrMax= 5.46D-07  0.00D+00 EMaxC= 1.00D-01 BMatC= 1.33D-10 BMatP= 2.06D-09
 IDIUse=1 WtCom= 1.00D+00 WtEn= 0.00D+00
 Coeff-Com:  0.157D-05 0.925D-05 0.823D-05-0.698D-05-0.313D-03-0.151D-02
 Coeff-Com: -0.625D-02-0.248D-03 0.351D-01 0.310D+00 0.663D+00
 Coeff:      0.157D-05 0.925D-05 0.823D-05-0.698D-05-0.313D-03-0.151D-02
 Coeff:     -0.625D-02-0.248D-03 0.351D-01 0.310D+00 0.663D+00
 Gap=     0.177 Goal=   None    Shift=    0.000
 RMSDP=1.84D-07 MaxDP=6.66D-06 DE=-1.91D-09 OVMax= 6.29D-06

 Cycle  12  Pass 1  IDiag  1:
 E= -706.360856398940     Delta-E=       -0.000000000152 Rises=F Damp=F
 DIIS: error= 1.61D-07 at cycle  12 NSaved=  12.
 NSaved=12 IEnMin=12 EnMin= -706.360856398940     IErMin=12 ErrMin= 1.61D-07
 ErrMax= 1.61D-07  0.00D+00 EMaxC= 1.00D-01 BMatC= 7.68D-12 BMatP= 1.33D-10
 IDIUse=1 WtCom= 1.00D+00 WtEn= 0.00D+00
 Coeff-Com: -0.342D-05 0.666D-05 0.479D-05 0.272D-04 0.618D-05-0.755D-04
 Coeff-Com: -0.170D-02-0.472D-02-0.270D-02 0.579D-01 0.242D+00 0.709D+00
 Coeff:     -0.342D-05 0.666D-05 0.479D-05 0.272D-04 0.618D-05-0.755D-04
 Coeff:     -0.170D-02-0.472D-02-0.270D-02 0.579D-01 0.242D+00 0.709D+00
 Gap=     0.177 Goal=   None    Shift=    0.000
 RMSDP=9.02D-08 MaxDP=5.33D-06 DE=-1.52D-10 OVMax= 2.30D-06

 Cycle  13  Pass 1  IDiag  1:
 E= -706.360856398952     Delta-E=       -0.000000000012 Rises=F Damp=F
 DIIS: error= 4.38D-08 at cycle  13 NSaved=  13.
 NSaved=13 IEnMin=13 EnMin= -706.360856398952     IErMin=13 ErrMin= 4.38D-08
 ErrMax= 4.38D-08  0.00D+00 EMaxC= 1.00D-01 BMatC= 5.80D-13 BMatP= 7.68D-12
 IDIUse=1 WtCom= 1.00D+00 WtEn= 0.00D+00
 Coeff-Com: -0.141D-05 0.125D-05-0.159D-05 0.274D-05 0.332D-04 0.168D-03
 Coeff-Com:  0.319D-03-0.124D-02-0.435D-02-0.222D-01-0.197D-01 0.129D+00
 Coeff-Com:  0.918D+00
 Coeff:     -0.141D-05 0.125D-05-0.159D-05 0.274D-05 0.332D-04 0.168D-03
 Coeff:      0.319D-03-0.124D-02-0.435D-02-0.222D-01-0.197D-01 0.129D+00
 Coeff:      0.918D+00
 Gap=     0.177 Goal=   None    Shift=    0.000
 RMSDP=2.13D-08 MaxDP=4.47D-07 DE=-1.17D-11 OVMax= 1.28D-06

 Cycle  14  Pass 1  IDiag  1:
 E= -706.360856398955     Delta-E=       -0.000000000003 Rises=F Damp=F
 DIIS: error= 1.48D-08 at cycle  14 NSaved=  14.
 NSaved=14 IEnMin=14 EnMin= -706.360856398955     IErMin=14 ErrMin= 1.48D-08
 ErrMax= 1.48D-08  0.00D+00 EMaxC= 1.00D-01 BMatC= 4.79D-14 BMatP= 5.80D-13
 IDIUse=1 WtCom= 1.00D+00 WtEn= 0.00D+00
 Coeff-Com: -0.906D-07-0.162D-08-0.106D-05-0.220D-05 0.184D-05 0.225D-04
 Coeff-Com:  0.118D-03 0.145D-03-0.220D-03-0.536D-02-0.157D-01-0.249D-01
 Coeff-Com:  0.110D+00 0.936D+00
 Coeff:     -0.906D-07-0.162D-08-0.106D-05-0.220D-05 0.184D-05 0.225D-04
 Coeff:      0.118D-03 0.145D-03-0.220D-03-0.536D-02-0.157D-01-0.249D-01
 Coeff:      0.110D+00 0.936D+00
 Gap=     0.177 Goal=   None    Shift=    0.000
 RMSDP=4.32D-09 MaxDP=9.35D-08 DE=-3.18D-12 OVMax= 3.01D-07

 Error on total polarization charges =  0.02629
 SCF Done:  E(RB3LYP) =  -706.360856399     A.U. after   14 cycles
            NFock= 14  Conv=0.43D-08     -V/T= 2.0052
 KE= 7.026830204746D+02 PE=-2.159129676104D+03 EE= 5.090982815980D+02
 SMD-CDS (non-electrostatic) energy       (kcal/mol) =       0.80
 (included in total energy above)
 Leave Link  502 at Tue Jan  7 23:06:54 2020, MaxMem=  4294967296 cpu:             595.6 elap:              47.4
 (Enter /home/cwagen/sw/g16/g16/l601.exe)
 Copying SCF densities to generalized density rwf, IOpCl= 0 IROHF=0.

 **********************************************************************

            Population analysis using the SCF density.

 **********************************************************************

 Orbital symmetries:
       Occupied  (A) (A) (A) (A) (A) (A) (A) (A) (A) (A) (A) (A)
                 (A) (A) (A) (A) (A) (A) (A) (A) (A) (A) (A) (A)
                 (A) (A) (A)
       Virtual   (A) (A) (A) (A) (A) (A) (A) (A) (A) (A) (A) (A)
                 (A) (A) (A) (A) (A) (A) (A) (A) (A) (A) (A) (A)
                 (A) (A) (A) (A) (A) (A) (A) (A) (A) (A) (A) (A)
                 (A) (A) (A) (A) (A) (A) (A) (A) (A) (A) (A) (A)
                 (A) (A) (A) (A) (A) (A) (A) (A) (A) (A) (A) (A)
                 (A) (A) (A) (A) (A) (A) (A) (A) (A) (A) (A) (A)
                 (A) (A) (A) (A) (A) (A) (A) (A) (A) (A) (A) (A)
                 (A) (A) (A) (A) (A) (A) (A) (A) (A) (A) (A) (A)
                 (A)
 The electronic state is 1-A.
 Alpha  occ. eigenvalues -- -101.55411 -19.13766 -14.26296 -10.31894 -10.18377
 Alpha  occ. eigenvalues --  -10.12987  -9.47436  -7.23746  -7.22919  -7.22754
 Alpha  occ. eigenvalues --   -1.01630  -0.88195  -0.82471  -0.71526  -0.55394
 Alpha  occ. eigenvalues --   -0.45504  -0.44218  -0.43691  -0.38442  -0.36791
 Alpha  occ. eigenvalues --   -0.35293  -0.30942  -0.29786  -0.27246  -0.27199
 Alpha  occ. eigenvalues --   -0.25376  -0.23774
 Alpha virt. eigenvalues --   -0.06090   0.03121   0.04673   0.05404   0.05861
 Alpha virt. eigenvalues --    0.06518   0.07695   0.08520   0.08834   0.09576
 Alpha virt. eigenvalues --    0.11161   0.11367   0.11984   0.13442   0.13914
 Alpha virt. eigenvalues --    0.15290   0.15670   0.16593   0.19524   0.21636
 Alpha virt. eigenvalues --    0.21914   0.24054   0.24467   0.25202   0.25990
 Alpha virt. eigenvalues --    0.26836   0.28128   0.28817   0.30795   0.33833
 Alpha virt. eigenvalues --    0.34287   0.38332   0.39650   0.55499   0.57721
 Alpha virt. eigenvalues --    0.62092   0.62824   0.64023   0.66918   0.68669
 Alpha virt. eigenvalues --    0.71251   0.72211   0.75120   0.76284   0.78086
 Alpha virt. eigenvalues --    0.81212   0.85489   0.87182   0.88890   0.93026
 Alpha virt. eigenvalues --    0.97165   1.01426   1.01561   1.02409   1.04799
 Alpha virt. eigenvalues --    1.10010   1.13854   1.15122   1.20579   1.22620
 Alpha virt. eigenvalues --    1.29495   1.32384   1.34306   1.35861   1.51730
 Alpha virt. eigenvalues --    1.54230   1.59254   1.60715   1.60788   1.64086
 Alpha virt. eigenvalues --    1.64608   1.68272   1.77398   1.84658   1.90571
 Alpha virt. eigenvalues --    1.93687   2.00063   2.03600   2.03656   2.19336
 Alpha virt. eigenvalues --    2.22565   2.25992   2.35326   2.49278   2.52248
 Alpha virt. eigenvalues --    2.58930   2.67493   2.67603   2.73806   2.96267
 Alpha virt. eigenvalues --    3.09786   4.01028   4.17116   4.24303   4.30528
 Alpha virt. eigenvalues --    4.33878   4.49788
          Condensed to atoms (all electrons):
               1          2          3          4          5          6
     1  C    6.940435   0.352655  -0.675347  -0.096716   0.012779  -0.087435
     2  O    0.352655   8.292653  -0.086911   0.009511  -0.014064   0.001041
     3  C   -0.675347  -0.086911   6.225413   0.391389   0.357091   0.404509
     4  H   -0.096716   0.009511   0.391389   0.483541  -0.029584  -0.021999
     5  H    0.012779  -0.014064   0.357091  -0.029584   0.461072  -0.022820
     6  H   -0.087435   0.001041   0.404509  -0.021999  -0.022820   0.461668
     7  Cl  -0.598344  -0.137841   0.162121   0.023106  -0.020729   0.018192
     8  C    0.407958  -0.044118  -0.250099   0.003788   0.000499   0.001676
     9  N   -0.021099  -0.000189   0.006050  -0.000154   0.000004  -0.000067
               7          8          9
     1  C   -0.598344   0.407958  -0.021099
     2  O   -0.137841  -0.044118  -0.000189
     3  C    0.162121  -0.250099   0.006050
     4  H    0.023106   0.003788  -0.000154
     5  H   -0.020729   0.000499   0.000004
     6  H    0.018192   0.001676  -0.000067
     7  Cl  17.398565  -0.100229   0.000385
     8  C   -0.100229   5.541836   0.640867
     9  N    0.000385   0.640867   7.023069
 Mulliken charges:
               1
     1  C   -0.234886
     2  O   -0.372737
     3  C   -0.534216
     4  H    0.237118
     5  H    0.255752
     6  H    0.245236
     7  Cl   0.254775
     8  C   -0.202178
     9  N   -0.648864
 Sum of Mulliken charges =  -1.00000
 Mulliken charges with hydrogens summed into heavy atoms:
               1
     1  C   -0.234886
     2  O   -0.372737
     3  C    0.203891
     7  Cl   0.254775
     8  C   -0.202178
     9  N   -0.648864
 Electronic spatial extent (au):  <R**2>=            950.1079
 Charge=             -1.0000 electrons
 Dipole moment (field-independent basis, Debye):
    X=            -12.2203    Y=              0.8761    Z=             -3.2793  Tot=             12.6829
 Quadrupole moment (field-independent basis, Debye-Ang):
   XX=            -86.9658   YY=            -45.0434   ZZ=            -50.1077
   XY=              2.1108   XZ=              3.5897   YZ=             -3.1891
 Traceless Quadrupole moment (field-independent basis, Debye-Ang):
   XX=            -26.2601   YY=             15.6622   ZZ=             10.5979
   XY=              2.1108   XZ=              3.5897   YZ=             -3.1891
 Octapole moment (field-independent basis, Debye-Ang**2):
  XXX=           -184.2090  YYY=             -0.7554  ZZZ=             -7.1100  XYY=            -13.5420
  XXY=              8.4132  XXZ=             -0.8989  XZZ=             -7.9685  YZZ=             -3.2838
  YYZ=             -2.9146  XYZ=              2.0409
 Hexadecapole moment (field-independent basis, Debye-Ang**3):
 XXXX=          -1492.7525 YYYY=           -256.9556 ZZZZ=           -189.0102 XXXY=             35.1084
 XXXZ=              7.1724 YYYX=             13.0536 YYYZ=              0.3360 ZZZX=              7.0132
 ZZZY=             -3.3804 XXYY=           -204.0522 XXZZ=           -196.6662 YYZZ=            -78.2868
 XXYZ=             -0.9338 YYXZ=              4.2309 ZZXY=              4.7553
 N-N= 2.409875176320D+02 E-N=-2.159129675745D+03  KE= 7.026830204746D+02
 No NMR shielding tensors so no spin-rotation constants.
 Leave Link  601 at Tue Jan  7 23:06:55 2020, MaxMem=  4294967296 cpu:              15.6 elap:               1.2
 (Enter /home/cwagen/sw/g16/g16/l701.exe)
 ... and contract with generalized density number  0.
 Compute integral first derivatives.
 D1PCM: PCM CHGder 1st derivatives, ID1Alg=3 FixD1E=F DoIter=F DoCFld=F I1PDM=0.
 GePol: Maximum number of non-zero 1st derivatives   =     334
 Leave Link  701 at Tue Jan  7 23:07:01 2020, MaxMem=  4294967296 cpu:              70.3 elap:               5.4
 (Enter /home/cwagen/sw/g16/g16/l702.exe)
 L702 exits ... SP integral derivatives will be done elsewhere.
 Leave Link  702 at Tue Jan  7 23:07:01 2020, MaxMem=  4294967296 cpu:               1.2 elap:               0.2
 (Enter /home/cwagen/sw/g16/g16/l703.exe)
 Integral derivatives from FoFJK, PRISM(SPDF).
 Compute integral first derivatives, UseDBF=F ICtDFT=           0.
 Calling FoFJK, ICntrl=      2127 FMM=F ISym2X=0 I1Cent= 0 IOpClX= 0 NMat=1 NMatS=1 NMatT=0.
 FoFJK:  IHMeth= 1 ICntrl=    2127 DoSepK=F KAlg= 0 I1Cent=           0 FoldK=F
 IRaf=         0 NMat=       1 IRICut=       1 DoRegI=T DoRafI=F ISym2E= 0 IDoP0=0 IntGTp=1.
 FoFCou: FMM=F IPFlag=           0 FMFlag=      100000 FMFlg1=         800
         NFxFlg=           0 DoJE=F BraDBF=F KetDBF=F FulRan=T
         wScrn=  0.000000 ICntrl=      2127 IOpCl=  0 I1Cent=           0 NGrid=           0
         NMat0=    1 NMatS0=      1 NMatT0=    0 NMatD0=    1 NMtDS0=    0 NMtDT0=    0
 Symmetry not used in FoFCou.
 Leave Link  703 at Tue Jan  7 23:07:04 2020, MaxMem=  4294967296 cpu:              35.5 elap:               2.8
 (Enter /home/cwagen/sw/g16/g16/l716.exe)
 Dipole        =-4.80783409D+00 3.44690582D-01-1.29018438D+00
 ***** Axes restored to original set *****
 -------------------------------------------------------------------
 Center     Atomic                   Forces (Hartrees/Bohr)
 Number     Number              X              Y              Z
 -------------------------------------------------------------------
      1        6          -0.022620406   -0.141382667   -0.097968323
      2        8           0.035303935    0.030353452    0.068047953
      3        6           0.032869579    0.006959073    0.002484438
      4        1           0.000352510   -0.000103736   -0.002417767
      5        1           0.001267354    0.004590934   -0.002845852
      6        1          -0.000552835   -0.000275537    0.001311301
      7       17          -0.042947469    0.100752643    0.030554938
      8        6          -0.025530626   -0.006445471    0.000411255
      9        7           0.021857956    0.005551309    0.000422056
 -------------------------------------------------------------------
 Cartesian Forces:  Max     0.141382667 RMS     0.043970574
 Leave Link  716 at Tue Jan  7 23:07:04 2020, MaxMem=  4294967296 cpu:               1.3 elap:               0.1
 (Enter /home/cwagen/sw/g16/g16/l103.exe)

 GradGradGradGradGradGradGradGradGradGradGradGradGradGradGradGradGradGrad
 Berny optimization.
 FormGI is forming the generalized inverse of G from B-inverse, IUseBI=4.
 Internal  Forces:  Max     0.110036650 RMS     0.027547303
 Search for a local minimum.
 Step number   1 out of a maximum of   41
 All quantities printed in internal units (Hartrees-Bohrs-Radians)
 RMS Force = .19830D-01 SwitMx=.10000D-02 MixMth= 1
 Mixed Optimization -- RFO/linear search
 Second derivative matrix not updated -- first step.
 ITU=  0
     Eigenvalues ---    0.00230   0.04746   0.04746   0.05330   0.05908
     Eigenvalues ---    0.07453   0.10176   0.16000   0.16000   0.16000
     Eigenvalues ---    0.25000   0.25000   0.25000   0.26946   0.33918
     Eigenvalues ---    0.33999   0.34275   0.67840   1.220341000.00000
     Eigenvalues --- 1000.000001000.000001000.000001000.000001000.00000
     Eigenvalues --- 1000.000001000.000001000.000001000.000001000.00000
     Eigenvalues --- 1000.00000
 RFO step:  Lambda=-4.32880554D-02 EMin= 2.30000000D-03
 Linear search not attempted -- first point.
 Maximum step size (   0.300) exceeded in Quadratic search.
    -- Step size scaled by   0.922
 Iteration  1 RMS(Cart)=  0.09980535 RMS(Int)=  0.01088744
 Iteration  2 RMS(Cart)=  0.00883859 RMS(Int)=  0.00818588
 Iteration  3 RMS(Cart)=  0.00003321 RMS(Int)=  0.00818583
 Iteration  4 RMS(Cart)=  0.00000087 RMS(Int)=  0.00818583
 Iteration  1 RMS(Cart)=  0.00000000 RMS(Int)=  0.00000000
 ITry= 1 IFail=0 DXMaxC= 2.09D-01 DCOld= 1.00D+10 DXMaxT= 3.00D-01 DXLimC= 3.00D+00 Rises=F
 Variable       Old X    -DE/DX   Delta X   Delta X   Delta X     New X
                                 (Linear)    (Quad)   (Total)
    R1        2.45227  -0.07551   0.00000  -0.09642  -0.09642   2.35585
    R2        2.94503  -0.01233   0.00000  -0.03634  -0.03634   2.90869
    R3        3.02356   0.11004   0.00000   0.00000   0.00000   3.02356
    R4        5.48021  -0.00353   0.00000   0.00000   0.00000   5.48021
    R5        2.07331  -0.00227   0.00000  -0.00547  -0.00547   2.06785
    R6        2.07468  -0.00263   0.00000  -0.00635  -0.00635   2.06834
    R7        2.06868  -0.00048   0.00000  -0.00114  -0.00114   2.06754
    R8        2.20923   0.02258   0.00000   0.01647   0.01647   2.22570
    A1        1.99667   0.02223   0.00000   0.10035   0.07814   2.07481
    A2        2.01908  -0.00712   0.00000   0.06385   0.03696   2.05603
    A3        1.89239  -0.01465   0.00000  -0.11050  -0.10484   1.78756
    A4        1.92419   0.03138   0.00000   0.13554   0.11343   2.03762
    A5        1.77194  -0.02067   0.00000  -0.12487  -0.11787   1.65408
    A6        1.83479  -0.01924   0.00000  -0.12435  -0.11564   1.71915
    A7        1.97398  -0.00028   0.00000  -0.00129  -0.00142   1.97256
    A8        1.87942  -0.00746   0.00000  -0.03598  -0.03601   1.84341
    A9        1.90140   0.00330   0.00000   0.01716   0.01720   1.91860
   A10        1.90356   0.00314   0.00000   0.01013   0.00992   1.91349
   A11        1.90837  -0.00070   0.00000   0.00062   0.00056   1.90893
   A12        1.89554   0.00204   0.00000   0.00944   0.00960   1.90515
   A13        3.09039   0.00007   0.00000   0.00073   0.00073   3.09112
   A14        2.85372  -0.00027   0.00000  -0.00279  -0.00279   2.85093
    D1        3.04510  -0.01931   0.00000  -0.15399  -0.15949   2.88561
    D2       -1.13357  -0.02065   0.00000  -0.16670  -0.17206  -1.30563
    D3        0.91915  -0.02059   0.00000  -0.16618  -0.17170   0.74745
    D4       -0.92685   0.02070   0.00000   0.15797   0.16433  -0.76252
    D5        1.17766   0.01936   0.00000   0.14526   0.15177   1.32943
    D6       -3.05280   0.01943   0.00000   0.14578   0.15212  -2.90068
    D7        1.01121   0.00057   0.00000   0.00775   0.00677   1.01798
    D8        3.11572  -0.00077   0.00000  -0.00496  -0.00580   3.10993
    D9       -1.11475  -0.00070   0.00000  -0.00443  -0.00544  -1.12019
         Item               Value     Threshold  Converged?
 Maximum Force            0.075511     0.000450     NO 
 RMS     Force            0.019830     0.000300     NO 
 Maximum Displacement     0.208779     0.001800     NO 
 RMS     Displacement     0.098737     0.001200     NO 
 Predicted change in Energy=-2.805491D-02
 Lowest energy point so far.  Saving SCF results.
 GradGradGradGradGradGradGradGradGradGradGradGradGradGradGradGradGradGrad

 Leave Link  103 at Tue Jan  7 23:07:11 2020, MaxMem=  4294967296 cpu:              83.9 elap:               6.5
 (Enter /home/cwagen/sw/g16/g16/l202.exe)
                          Input orientation:                          
 ---------------------------------------------------------------------
 Center     Atomic      Atomic             Coordinates (Angstroms)
 Number     Number       Type             X           Y           Z
 ---------------------------------------------------------------------
      1          6           0       -0.304744   -0.324370   -0.236208
      2          8           0       -0.227035   -0.625331   -1.443498
      3          6           0       -0.293029   -1.450613    0.812897
      4          1           0       -0.108951   -1.087391    1.828567
      5          1           0       -1.284290   -1.911807    0.761242
      6          1           0        0.463870   -2.196071    0.551283
      7         17           0       -1.095601    1.011691    0.150431
      8          6           0        2.385316    0.583653    0.354614
      9          7           0        3.531049    0.853940    0.392419
 ---------------------------------------------------------------------
                    Distance matrix (angstroms):
                    1          2          3          4          5
     1  C    0.000000
     2  O    1.246662   0.000000
     3  C    1.539215   2.403490   0.000000
     4  H    2.209939   3.306638   1.094257   0.000000
     5  H    2.115272   2.762913   1.094517   1.788929   0.000000
     6  H    2.171216   2.631298   1.094096   1.785707   1.783522
     7  Cl   1.600000   2.444351   2.673186   2.862825   2.992580
     8  C    2.900000   3.393999   3.394377   3.344592   4.456308
     9  N    4.061637   4.436443   4.484566   4.368168   5.565328
                    6          7          8          9
     6  H    0.000000
     7  Cl   3.589202   0.000000
     8  C    3.384893   3.513074   0.000000
     9  N    4.328440   4.635659   1.177789   0.000000
 Stoichiometry    C3H3ClNO(1-)
 Framework group  C1[X(C3H3ClNO)]
 Deg. of freedom    21
 Full point group                 C1      NOp   1
 RotChk:  IX=0 Diff= 8.44D-02
 Largest Abelian subgroup         C1      NOp   1
 Largest concise Abelian subgroup C1      NOp   1
                         Standard orientation:                         
 ---------------------------------------------------------------------
 Center     Atomic      Atomic             Coordinates (Angstroms)
 Number     Number       Type             X           Y           Z
 ---------------------------------------------------------------------
      1          6           0       -0.657026    0.339068    0.217626
      2          8           0       -0.751591    0.645466    1.422343
      3          6           0       -0.713404    1.455883   -0.840074
      4          1           0       -0.371625    1.128485   -1.826683
      5          1           0       -1.764454    1.756124   -0.895896
      6          1           0       -0.112922    2.309959   -0.512933
      7         17           0       -1.185935   -1.103332   -0.229293
      8          6           0        2.187992   -0.135272   -0.083820
      9          7           0        3.359607   -0.222817   -0.001093
 ---------------------------------------------------------------------
 Rotational constants (GHZ):           3.7747091           1.5068916           1.3463892
 Leave Link  202 at Tue Jan  7 23:07:11 2020, MaxMem=  4294967296 cpu:               2.3 elap:               0.2
 (Enter /home/cwagen/sw/g16/g16/l301.exe)
 Standard basis: 6-31+G(d) (6D, 7F)
 Ernie: Thresh=  0.10000D-02 Tol=  0.10000D-05 Strict=F.
 There are   124 symmetry adapted cartesian basis functions of A   symmetry.
 There are   124 symmetry adapted basis functions of A   symmetry.
   124 basis functions,   228 primitive gaussians,   124 cartesian basis functions
    27 alpha electrons       27 beta electrons
       nuclear repulsion energy       243.3199961831 Hartrees.
 IExCor=  402 DFT=T Ex+Corr=B3LYP ExCW=0 ScaHFX=  0.200000
 ScaDFX=  0.800000  0.720000  1.000000  0.810000 ScalE2=  1.000000  1.000000
 IRadAn=      5 IRanWt=     -1 IRanGd=            0 ICorTp=0 IEmpDi=  4
 NAtoms=    9 NActive=    9 NUniq=    9 SFac= 1.00D+00 NAtFMM=   60 NAOKFM=F Big=F
 Integral buffers will be    131072 words long.
 Raffenetti 2 integral format.
 Two-electron integral symmetry is turned on.
 ------------------------------------------------------------------------------
 Polarizable Continuum Model (PCM)
 =================================
 Model                : PCM.
 Atomic radii         : SMD-Coulomb.
 Polarization charges : Total charges.
 Charge compensation  : None.
 Solution method      : On-the-fly selection.
 Cavity type          : VdW (van der Waals Surface) (Alpha=1.000).
 Cavity algorithm     : GePol (No added spheres)
                        Default sphere list used, NSphG=    9.
                        Lebedev-Laikov grids with approx.  5.0 points / Ang**2.
                        Smoothing algorithm: York/Karplus (Gamma=1.0000).
                        Polarization charges: spherical gaussians, with
                                              point-specific exponents (IZeta= 3).
                        Self-potential: point-specific (ISelfS= 7).
                        Self-field    : sphere-specific E.n sum rule (ISelfD= 2).
 1st derivatives      : Analytical E(r).r(x)/FMM algorithm (CHGder, D1EAlg=3).
                        Cavity 1st derivative terms included.
 Solvent              : TetraHydroFuran, Eps=   7.425700 Eps(inf)=   1.974025
 ------------------------------------------------------------------------------
 Spheres list:
 ISph  on   Nord     Re0    Alpha      Xe            Ye            Ze
    1   C      1    1.8500  1.000     -0.657026      0.339068      0.217626
    2   O      2    2.2940  1.000     -0.751591      0.645466      1.422343
    3   C      3    1.8500  1.000     -0.713404      1.455883     -0.840074
    4   H      4    1.2000  1.000     -0.371625      1.128485     -1.826683
    5   H      5    1.2000  1.000     -1.764454      1.756124     -0.895896
    6   H      6    1.2000  1.000     -0.112922      2.309959     -0.512933
    7  Cl      7    2.3800  1.000     -1.185935     -1.103332     -0.229293
    8   C      8    1.8500  1.000      2.187992     -0.135272     -0.083820
    9   N      9    1.8900  1.000      3.359607     -0.222817     -0.001093
 ------------------------------------------------------------------------------
 GePol: Number of generator spheres                  =       9
 GePol: Total number of spheres                      =       9
 GePol: Number of exposed spheres                    =       9 (100.00%)
 GePol: Number of points                             =    1215
 GePol: Average weight of points                     =       0.14
 GePol: Minimum weight of points                     =   0.10D-11
 GePol: Maximum weight of points                     =    0.18138
 GePol: Number of points with low weight             =      31
 GePol: Fraction of low-weight points (<1% of avg)   =       2.55%
 GePol: Cavity surface area                          =    164.993 Ang**2
 GePol: Cavity volume                                =    147.461 Ang**3
 ------------------------------------------------------------------------------
 Atomic radii for non-electrostatic terms: SMD-CDS.
 ------------------------------------------------------------------------------
 PCM non-electrostatic energy =         0.0011126616 Hartrees.
 Nuclear repulsion after PCM non-electrostatic terms =      243.3211088446 Hartrees.
 Leave Link  301 at Tue Jan  7 23:07:11 2020, MaxMem=  4294967296 cpu:               2.4 elap:               0.2
 (Enter /home/cwagen/sw/g16/g16/l302.exe)
 NPDir=0 NMtPBC=     1 NCelOv=     1 NCel=       1 NClECP=     1 NCelD=      1
         NCelK=      1 NCelE2=     1 NClLst=     1 CellRange=     0.0.
 One-electron integrals computed using PRISM.
 One-electron integral symmetry used in STVInt
 NBasis=   124 RedAO= T EigKep=  7.17D-05  NBF=   124
 NBsUse=   124 1.00D-06 EigRej= -1.00D+00 NBFU=   124
 Precomputing XC quadrature grid using
 IXCGrd= 4 IRadAn=           5 IRanWt=          -1 IRanGd=           0 AccXCQ= 0.00D+00.
 Generated NRdTot=       0 NPtTot=           0 NUsed=           0 NTot=          32
 NSgBfM=   124   124   124   124   124 MxSgAt=     9 MxSgA2=     9.
 Leave Link  302 at Tue Jan  7 23:07:13 2020, MaxMem=  4294967296 cpu:              30.6 elap:               2.4
 (Enter /home/cwagen/sw/g16/g16/l303.exe)
 DipDrv:  MaxL=1.
 Leave Link  303 at Tue Jan  7 23:07:14 2020, MaxMem=  4294967296 cpu:               2.9 elap:               0.3
 (Enter /home/cwagen/sw/g16/g16/l401.exe)
 Initial guess from the checkpoint file:  "/scratch/users/cwagen/cwagen_scan_160_290/Gau-40904.chk"
 B after Tr=     0.000000    0.000000    0.000000
         Rot=    0.999808   -0.018044    0.005379    0.005415 Ang=  -2.25 deg.
 Guess basis will be translated and rotated to current coordinates.
 JPrj=2 DoOrth=T DoCkMO=T.
 Generating alternative initial guess.
 ExpMin= 4.38D-02 ExpMax= 2.52D+04 ExpMxC= 3.78D+03 IAcc=2 IRadAn=         4 AccDes= 0.00D+00
 Harris functional with IExCor=  402 and IRadAn=       4 diagonalized for initial guess.
 HarFok:  IExCor=  402 AccDes= 0.00D+00 IRadAn=         4 IDoV= 1 UseB2=F ITyADJ=14
 ICtDFT=  3500011 ScaDFX=  1.000000  1.000000  1.000000  1.000000
 FoFCou: FMM=F IPFlag=           0 FMFlag=      100000 FMFlg1=           0
         NFxFlg=           0 DoJE=T BraDBF=F KetDBF=T FulRan=T
         wScrn=  0.000000 ICntrl=       500 IOpCl=  0 I1Cent=   200000004 NGrid=           0
         NMat0=    1 NMatS0=      1 NMatT0=    0 NMatD0=    1 NMtDS0=    0 NMtDT0=    0
 Petite list used in FoFCou.
 Harris En= -706.417088617183    
 Leave Link  401 at Tue Jan  7 23:07:17 2020, MaxMem=  4294967296 cpu:              40.4 elap:               3.2
 (Enter /home/cwagen/sw/g16/g16/l502.exe)
 Keep R1 ints in memory in canonical form, NReq=45236517.
 FoFCou: FMM=F IPFlag=           0 FMFlag=           0 FMFlg1=           0
         NFxFlg=           0 DoJE=F BraDBF=F KetDBF=F FulRan=T
         wScrn=  0.000000 ICntrl=       600 IOpCl=  0 I1Cent=           0 NGrid=           0
         NMat0=    1 NMatS0=   7750 NMatT0=    0 NMatD0=    1 NMtDS0=    0 NMtDT0=    0
 Symmetry not used in FoFCou.
 Two-electron integral symmetry not used.
 Closed shell SCF:
 Using DIIS extrapolation, IDIIS=  1040.
 NGot=  4294967296 LenX=  4264898079 LenY=  4264882262
 Requested convergence on RMS density matrix=1.00D-08 within 128 cycles.
 Requested convergence on MAX density matrix=1.00D-06.
 Requested convergence on             energy=1.00D-06.
 No special actions if energy rises.

 Cycle   1  Pass 1  IDiag  1:
 Inv3:  Mode=1 IEnd=     4428675.
 Iteration    1 A*A^-1 deviation from unit magnitude is 2.66D-15 for   1177.
 Iteration    1 A*A^-1 deviation from orthogonality  is 1.97D-15 for    352    121.
 Iteration    1 A^-1*A deviation from unit magnitude is 3.22D-15 for   1212.
 Iteration    1 A^-1*A deviation from orthogonality  is 1.98D-15 for   1205    171.
 E= -706.365410224761    
 DIIS: error= 8.10D-03 at cycle   1 NSaved=   1.
 NSaved= 1 IEnMin= 1 EnMin= -706.365410224761     IErMin= 1 ErrMin= 8.10D-03
 ErrMax= 8.10D-03  0.00D+00 EMaxC= 1.00D-01 BMatC= 1.27D-02 BMatP= 1.27D-02
 IDIUse=3 WtCom= 9.19D-01 WtEn= 8.10D-02
 Coeff-Com:  0.100D+01
 Coeff-En:   0.100D+01
 Coeff:      0.100D+01
 Gap=     0.577 Goal=   None    Shift=    0.000
 GapD=    0.577 DampG=2.000 DampE=1.000 DampFc=2.0000 IDamp=-1.
 RMSDP=6.72D-03 MaxDP=4.66D-01              OVMax= 5.31D-02

 Cycle   2  Pass 1  IDiag  1:
 E= -706.387454824575     Delta-E=       -0.022044599814 Rises=F Damp=F
 DIIS: error= 1.65D-03 at cycle   2 NSaved=   2.
 NSaved= 2 IEnMin= 2 EnMin= -706.387454824575     IErMin= 2 ErrMin= 1.65D-03
 ErrMax= 1.65D-03  0.00D+00 EMaxC= 1.00D-01 BMatC= 8.28D-04 BMatP= 1.27D-02
 IDIUse=3 WtCom= 9.83D-01 WtEn= 1.65D-02
 Coeff-Com:  0.542D-01 0.946D+00
 Coeff-En:   0.000D+00 0.100D+01
 Coeff:      0.533D-01 0.947D+00
 Gap=     0.213 Goal=   None    Shift=    0.000
 RMSDP=1.42D-03 MaxDP=8.34D-02 DE=-2.20D-02 OVMax= 2.12D-02

 Cycle   3  Pass 1  IDiag  1:
 E= -706.387048697511     Delta-E=        0.000406127064 Rises=F Damp=F
 DIIS: error= 3.55D-03 at cycle   3 NSaved=   3.
 NSaved= 3 IEnMin= 2 EnMin= -706.387454824575     IErMin= 2 ErrMin= 1.65D-03
 ErrMax= 3.55D-03  0.00D+00 EMaxC= 1.00D-01 BMatC= 1.44D-03 BMatP= 8.28D-04
 IDIUse=3 WtCom= 1.44D-01 WtEn= 8.56D-01
 Coeff-Com: -0.279D-01 0.586D+00 0.441D+00
 Coeff-En:   0.000D+00 0.587D+00 0.413D+00
 Coeff:     -0.400D-02 0.587D+00 0.417D+00
 Gap=     0.204 Goal=   None    Shift=    0.000
 RMSDP=8.36D-04 MaxDP=4.86D-02 DE= 4.06D-04 OVMax= 1.24D-02

 Cycle   4  Pass 1  IDiag  1:
 E= -706.388303126902     Delta-E=       -0.001254429391 Rises=F Damp=F
 DIIS: error= 1.14D-03 at cycle   4 NSaved=   4.
 NSaved= 4 IEnMin= 4 EnMin= -706.388303126902     IErMin= 4 ErrMin= 1.14D-03
 ErrMax= 1.14D-03  0.00D+00 EMaxC= 1.00D-01 BMatC= 1.33D-04 BMatP= 8.28D-04
 IDIUse=3 WtCom= 9.89D-01 WtEn= 1.14D-02
 Coeff-Com: -0.237D-01 0.283D+00 0.277D+00 0.465D+00
 Coeff-En:   0.000D+00 0.000D+00 0.000D+00 0.100D+01
 Coeff:     -0.235D-01 0.279D+00 0.273D+00 0.471D+00
 Gap=     0.201 Goal=   None    Shift=    0.000
 RMSDP=1.31D-04 MaxDP=2.52D-03 DE=-1.25D-03 OVMax= 3.79D-03

 Cycle   5  Pass 1  IDiag  1:
 E= -706.388411969661     Delta-E=       -0.000108842760 Rises=F Damp=F
 DIIS: error= 1.82D-04 at cycle   5 NSaved=   5.
 NSaved= 5 IEnMin= 5 EnMin= -706.388411969661     IErMin= 5 ErrMin= 1.82D-04
 ErrMax= 1.82D-04  0.00D+00 EMaxC= 1.00D-01 BMatC= 8.91D-06 BMatP= 1.33D-04
 IDIUse=3 WtCom= 9.98D-01 WtEn= 1.82D-03
 Coeff-Com: -0.777D-02 0.770D-01 0.911D-01 0.256D+00 0.584D+00
 Coeff-En:   0.000D+00 0.000D+00 0.000D+00 0.194D-01 0.981D+00
 Coeff:     -0.775D-02 0.769D-01 0.909D-01 0.256D+00 0.584D+00
 Gap=     0.202 Goal=   None    Shift=    0.000
 RMSDP=4.31D-05 MaxDP=7.80D-04 DE=-1.09D-04 OVMax= 7.40D-04

 Cycle   6  Pass 1  IDiag  1:
 E= -706.388420301064     Delta-E=       -0.000008331403 Rises=F Damp=F
 DIIS: error= 3.17D-05 at cycle   6 NSaved=   6.
 NSaved= 6 IEnMin= 6 EnMin= -706.388420301064     IErMin= 6 ErrMin= 3.17D-05
 ErrMax= 3.17D-05  0.00D+00 EMaxC= 1.00D-01 BMatC= 3.26D-07 BMatP= 8.91D-06
 IDIUse=1 WtCom= 1.00D+00 WtEn= 0.00D+00
 Coeff-Com: -0.864D-03 0.140D-02 0.795D-02 0.573D-01 0.222D+00 0.712D+00
 Coeff:     -0.864D-03 0.140D-02 0.795D-02 0.573D-01 0.222D+00 0.712D+00
 Gap=     0.202 Goal=   None    Shift=    0.000
 RMSDP=1.99D-05 MaxDP=1.31D-03 DE=-8.33D-06 OVMax= 2.66D-04

 Cycle   7  Pass 1  IDiag  1:
 E= -706.388420643056     Delta-E=       -0.000000341992 Rises=F Damp=F
 DIIS: error= 1.51D-05 at cycle   7 NSaved=   7.
 NSaved= 7 IEnMin= 7 EnMin= -706.388420643056     IErMin= 7 ErrMin= 1.51D-05
 ErrMax= 1.51D-05  0.00D+00 EMaxC= 1.00D-01 BMatC= 3.47D-08 BMatP= 3.26D-07
 IDIUse=1 WtCom= 1.00D+00 WtEn= 0.00D+00
 Coeff-Com:  0.328D-03-0.662D-02-0.490D-02 0.381D-02 0.516D-01 0.314D+00
 Coeff-Com:  0.642D+00
 Coeff:      0.328D-03-0.662D-02-0.490D-02 0.381D-02 0.516D-01 0.314D+00
 Coeff:      0.642D+00
 Gap=     0.202 Goal=   None    Shift=    0.000
 RMSDP=6.87D-06 MaxDP=4.35D-04 DE=-3.42D-07 OVMax= 6.62D-05

 Cycle   8  Pass 1  IDiag  1:
 E= -706.388420681498     Delta-E=       -0.000000038442 Rises=F Damp=F
 DIIS: error= 2.96D-06 at cycle   8 NSaved=   8.
 NSaved= 8 IEnMin= 8 EnMin= -706.388420681498     IErMin= 8 ErrMin= 2.96D-06
 ErrMax= 2.96D-06  0.00D+00 EMaxC= 1.00D-01 BMatC= 2.62D-09 BMatP= 3.47D-08
 IDIUse=1 WtCom= 1.00D+00 WtEn= 0.00D+00
 Coeff-Com:  0.191D-03-0.304D-02-0.264D-02-0.132D-02 0.127D-01 0.102D+00
 Coeff-Com:  0.286D+00 0.606D+00
 Coeff:      0.191D-03-0.304D-02-0.264D-02-0.132D-02 0.127D-01 0.102D+00
 Coeff:      0.286D+00 0.606D+00
 Gap=     0.202 Goal=   None    Shift=    0.000
 RMSDP=1.08D-06 MaxDP=6.12D-05 DE=-3.84D-08 OVMax= 2.07D-05

 Cycle   9  Pass 1  IDiag  1:
 E= -706.388420682779     Delta-E=       -0.000000001281 Rises=F Damp=F
 DIIS: error= 2.53D-06 at cycle   9 NSaved=   9.
 NSaved= 9 IEnMin= 9 EnMin= -706.388420682779     IErMin= 9 ErrMin= 2.53D-06
 ErrMax= 2.53D-06  0.00D+00 EMaxC= 1.00D-01 BMatC= 1.63D-09 BMatP= 2.62D-09
 IDIUse=1 WtCom= 1.00D+00 WtEn= 0.00D+00
 Coeff-Com:  0.583D-04-0.606D-03-0.743D-03-0.175D-02-0.209D-02 0.362D-02
 Coeff-Com:  0.647D-01 0.453D+00 0.484D+00
 Coeff:      0.583D-04-0.606D-03-0.743D-03-0.175D-02-0.209D-02 0.362D-02
 Coeff:      0.647D-01 0.453D+00 0.484D+00
 Gap=     0.202 Goal=   None    Shift=    0.000
 RMSDP=9.85D-07 MaxDP=6.61D-05 DE=-1.28D-09 OVMax= 1.46D-05

 Cycle  10  Pass 1  IDiag  1:
 E= -706.388420684164     Delta-E=       -0.000000001386 Rises=F Damp=F
 DIIS: error= 3.92D-07 at cycle  10 NSaved=  10.
 NSaved=10 IEnMin=10 EnMin= -706.388420684164     IErMin=10 ErrMin= 3.92D-07
 ErrMax= 3.92D-07  0.00D+00 EMaxC= 1.00D-01 BMatC= 4.31D-11 BMatP= 1.63D-09
 IDIUse=1 WtCom= 1.00D+00 WtEn= 0.00D+00
 Coeff-Com: -0.132D-05 0.144D-03 0.298D-04-0.502D-03-0.255D-02-0.119D-01
 Coeff-Com: -0.149D-01 0.828D-01 0.190D+00 0.757D+00
 Coeff:     -0.132D-05 0.144D-03 0.298D-04-0.502D-03-0.255D-02-0.119D-01
 Coeff:     -0.149D-01 0.828D-01 0.190D+00 0.757D+00
 Gap=     0.202 Goal=   None    Shift=    0.000
 RMSDP=2.25D-07 MaxDP=1.29D-05 DE=-1.39D-09 OVMax= 4.81D-06

 Cycle  11  Pass 1  IDiag  1:
 E= -706.388420684220     Delta-E=       -0.000000000056 Rises=F Damp=F
 DIIS: error= 6.05D-08 at cycle  11 NSaved=  11.
 NSaved=11 IEnMin=11 EnMin= -706.388420684220     IErMin=11 ErrMin= 6.05D-08
 ErrMax= 6.05D-08  0.00D+00 EMaxC= 1.00D-01 BMatC= 1.45D-12 BMatP= 4.31D-11
 IDIUse=1 WtCom= 1.00D+00 WtEn= 0.00D+00
 Coeff-Com: -0.294D-05 0.695D-04 0.417D-04-0.794D-04-0.743D-03-0.363D-02
 Coeff-Com: -0.708D-02 0.246D-02 0.394D-01 0.213D+00 0.756D+00
 Coeff:     -0.294D-05 0.695D-04 0.417D-04-0.794D-04-0.743D-03-0.363D-02
 Coeff:     -0.708D-02 0.246D-02 0.394D-01 0.213D+00 0.756D+00
 Gap=     0.202 Goal=   None    Shift=    0.000
 RMSDP=2.75D-08 MaxDP=7.38D-07 DE=-5.59D-11 OVMax= 1.06D-06

 Cycle  12  Pass 1  IDiag  1:
 E= -706.388420684221     Delta-E=       -0.000000000001 Rises=F Damp=F
 DIIS: error= 2.83D-08 at cycle  12 NSaved=  12.
 NSaved=12 IEnMin=12 EnMin= -706.388420684221     IErMin=12 ErrMin= 2.83D-08
 ErrMax= 2.83D-08  0.00D+00 EMaxC= 1.00D-01 BMatC= 2.20D-13 BMatP= 1.45D-12
 IDIUse=1 WtCom= 1.00D+00 WtEn= 0.00D+00
 Coeff-Com: -0.906D-06 0.969D-05 0.127D-04 0.273D-04-0.193D-05 0.576D-04
 Coeff-Com: -0.815D-03-0.850D-02-0.551D-02-0.766D-04 0.295D+00 0.720D+00
 Coeff:     -0.906D-06 0.969D-05 0.127D-04 0.273D-04-0.193D-05 0.576D-04
 Coeff:     -0.815D-03-0.850D-02-0.551D-02-0.766D-04 0.295D+00 0.720D+00
 Gap=     0.202 Goal=   None    Shift=    0.000
 RMSDP=8.19D-09 MaxDP=1.85D-07 DE=-6.82D-13 OVMax= 4.13D-07

 Error on total polarization charges =  0.02593
 SCF Done:  E(RB3LYP) =  -706.388420684     A.U. after   12 cycles
            NFock= 12  Conv=0.82D-08     -V/T= 2.0051
 KE= 7.027982625396D+02 PE=-2.163982451017D+03 EE= 5.114746589484D+02
 SMD-CDS (non-electrostatic) energy       (kcal/mol) =       0.70
 (included in total energy above)
 Leave Link  502 at Tue Jan  7 23:07:51 2020, MaxMem=  4294967296 cpu:             422.1 elap:              33.8
 (Enter /home/cwagen/sw/g16/g16/l701.exe)
 ... and contract with generalized density number  0.
 Compute integral first derivatives.
 D1PCM: PCM CHGder 1st derivatives, ID1Alg=3 FixD1E=F DoIter=F DoCFld=F I1PDM=0.
 GePol: Maximum number of non-zero 1st derivatives   =     338
 Leave Link  701 at Tue Jan  7 23:07:56 2020, MaxMem=  4294967296 cpu:              65.8 elap:               5.3
 (Enter /home/cwagen/sw/g16/g16/l702.exe)
 L702 exits ... SP integral derivatives will be done elsewhere.
 Leave Link  702 at Tue Jan  7 23:07:56 2020, MaxMem=  4294967296 cpu:               2.0 elap:               0.2
 (Enter /home/cwagen/sw/g16/g16/l703.exe)
 Integral derivatives from FoFJK, PRISM(SPDF).
 Compute integral first derivatives, UseDBF=F ICtDFT=           0.
 Calling FoFJK, ICntrl=      2127 FMM=F ISym2X=0 I1Cent= 0 IOpClX= 0 NMat=1 NMatS=1 NMatT=0.
 FoFJK:  IHMeth= 1 ICntrl=    2127 DoSepK=F KAlg= 0 I1Cent=           0 FoldK=F
 IRaf=         0 NMat=       1 IRICut=       1 DoRegI=T DoRafI=F ISym2E= 0 IDoP0=0 IntGTp=1.
 FoFCou: FMM=F IPFlag=           0 FMFlag=      100000 FMFlg1=         800
         NFxFlg=           0 DoJE=F BraDBF=F KetDBF=F FulRan=T
         wScrn=  0.000000 ICntrl=      2127 IOpCl=  0 I1Cent=           0 NGrid=           0
         NMat0=    1 NMatS0=      1 NMatT0=    0 NMatD0=    1 NMtDS0=    0 NMtDT0=    0
 Symmetry not used in FoFCou.
 Leave Link  703 at Tue Jan  7 23:07:59 2020, MaxMem=  4294967296 cpu:              37.5 elap:               2.9
 (Enter /home/cwagen/sw/g16/g16/l716.exe)
 Dipole        =-4.81533356D+00 5.29172145D-01-1.24440125D+00
 ***** Axes restored to original set *****
 -------------------------------------------------------------------
 Center     Atomic                   Forces (Hartrees/Bohr)
 Number     Number              X              Y              Z
 -------------------------------------------------------------------
      1        6           0.012250172   -0.117022025   -0.064531923
      2        8           0.015267061    0.009368446    0.031069033
      3        6           0.015582611    0.013251775   -0.000699084
      4        1          -0.000901826    0.000069174   -0.000806791
      5        1          -0.001685316   -0.000335011    0.000625461
      6        1          -0.001027367    0.001273223   -0.000998670
      7       17          -0.041507783    0.093121212    0.033631170
      8        6          -0.003107440   -0.001051381    0.001811492
      9        7           0.005129888    0.001324587   -0.000100688
 -------------------------------------------------------------------
 Cartesian Forces:  Max     0.117022025 RMS     0.034042329
 Leave Link  716 at Tue Jan  7 23:07:59 2020, MaxMem=  4294967296 cpu:               1.2 elap:               0.1
 (Enter /home/cwagen/sw/g16/g16/l103.exe)

 GradGradGradGradGradGradGradGradGradGradGradGradGradGradGradGradGradGrad
 Berny optimization.
 Using GEDIIS/GDIIS optimizer.
 FormGI is forming the generalized inverse of G from B-inverse, IUseBI=4.
 Internal  Forces:  Max     0.106407514 RMS     0.020745515
 Search for a local minimum.
 Step number   2 out of a maximum of   41
 All quantities printed in internal units (Hartrees-Bohrs-Radians)
 RMS Force = .83331D-02 SwitMx=.10000D-02 MixMth= 1
 Mixed Optimization -- RFO/linear search
 Update second derivatives using D2CorX and points    1    2
 DE= -2.76D-02 DEPred=-2.81D-02 R= 9.83D-01
 TightC=F SS=  1.41D+00  RLast= 4.79D-01 DXNew= 5.0454D-01 1.4361D+00
 Trust test= 9.83D-01 RLast= 4.79D-01 DXMaxT set to 5.05D-01
 ITU=  1  0
 Use linear search instead of GDIIS.
     Eigenvalues ---    0.00230   0.04745   0.04746   0.05315   0.06025
     Eigenvalues ---    0.06062   0.10629   0.15986   0.16000   0.16199
     Eigenvalues ---    0.24862   0.25000   0.26207   0.29735   0.33985
     Eigenvalues ---    0.34045   0.34288   0.57279   1.216281000.00000
     Eigenvalues --- 1000.000001000.000001000.000001000.000001000.00000
     Eigenvalues --- 1000.000001000.000001000.000001000.000001000.00000
     Eigenvalues --- 1000.00000
 RFO step:  Lambda=-5.43329547D-03 EMin= 2.30050279D-03
 Quartic linear search produced a step of  0.66864.
 Iteration  1 RMS(Cart)=  0.10116912 RMS(Int)=  0.01130615
 Iteration  2 RMS(Cart)=  0.00719876 RMS(Int)=  0.00960986
 Iteration  3 RMS(Cart)=  0.00003543 RMS(Int)=  0.00960979
 Iteration  4 RMS(Cart)=  0.00000074 RMS(Int)=  0.00960979
 Iteration  1 RMS(Cart)=  0.00000000 RMS(Int)=  0.00000000
 ITry= 1 IFail=0 DXMaxC= 1.89D-01 DCOld= 1.00D+10 DXMaxT= 5.05D-01 DXLimC= 3.00D+00 Rises=F
 Variable       Old X    -DE/DX   Delta X   Delta X   Delta X     New X
                                 (Linear)    (Quad)   (Total)
    R1        2.35585  -0.03140  -0.06447  -0.01190  -0.07638   2.27947
    R2        2.90869  -0.01164  -0.02430  -0.04428  -0.06857   2.84012
    R3        3.02356   0.10641   0.00000   0.00000   0.00000   3.02356
    R4        5.48021   0.00231   0.00000   0.00000   0.00000   5.48021
    R5        2.06785  -0.00089  -0.00365  -0.00040  -0.00406   2.06379
    R6        2.06834   0.00164  -0.00424   0.01259   0.00835   2.07668
    R7        2.06754  -0.00130  -0.00076  -0.00549  -0.00625   2.06129
    R8        2.22570   0.00529   0.01101  -0.00359   0.00742   2.23312
    A1        2.07481   0.00647   0.05225   0.01517   0.03768   2.11249
    A2        2.05603   0.00611   0.02471   0.09480   0.08892   2.14495
    A3        1.78756  -0.00390  -0.07010  -0.01332  -0.07657   1.71098
    A4        2.03762  -0.00345   0.07585  -0.07273  -0.02700   2.01063
    A5        1.65408  -0.01018  -0.07881  -0.04664  -0.12087   1.53320
    A6        1.71915  -0.00458  -0.07732  -0.02156  -0.09641   1.62275
    A7        1.97256  -0.00010  -0.00095  -0.00004  -0.00108   1.97147
    A8        1.84341   0.00046  -0.02408   0.03365   0.00958   1.85299
    A9        1.91860  -0.00169   0.01150  -0.03066  -0.01913   1.89947
   A10        1.91349  -0.00044   0.00664  -0.01348  -0.00698   1.90651
   A11        1.90893   0.00123   0.00037   0.01284   0.01315   1.92209
   A12        1.90515   0.00052   0.00642  -0.00221   0.00437   1.90952
   A13        3.09112   0.00034   0.00049   0.00984   0.01033   3.10145
   A14        2.85093  -0.00034  -0.00187  -0.00758  -0.00945   2.84149
    D1        2.88561  -0.00973  -0.10664  -0.06056  -0.17087   2.71474
    D2       -1.30563  -0.01003  -0.11504  -0.05520  -0.17381  -1.47944
    D3        0.74745  -0.01001  -0.11481  -0.05460  -0.17312   0.57433
    D4       -0.76252   0.01060   0.10988   0.04261   0.15490  -0.60761
    D5        1.32943   0.01031   0.10148   0.04796   0.15196   1.48139
    D6       -2.90068   0.01032   0.10172   0.04856   0.15266  -2.74802
    D7        1.01798  -0.00069   0.00453  -0.02076  -0.01505   1.00292
    D8        3.10993  -0.00099  -0.00388  -0.01541  -0.01800   3.09193
    D9       -1.12019  -0.00097  -0.00364  -0.01481  -0.01730  -1.13749
         Item               Value     Threshold  Converged?
 Maximum Force            0.031400     0.000450     NO 
 RMS     Force            0.008333     0.000300     NO 
 Maximum Displacement     0.189150     0.001800     NO 
 RMS     Displacement     0.102585     0.001200     NO 
 Predicted change in Energy=-8.695274D-03
 Lowest energy point so far.  Saving SCF results.
 GradGradGradGradGradGradGradGradGradGradGradGradGradGradGradGradGradGrad

 Leave Link  103 at Tue Jan  7 23:08:04 2020, MaxMem=  4294967296 cpu:              63.9 elap:               5.0
 (Enter /home/cwagen/sw/g16/g16/l202.exe)
                          Input orientation:                          
 ---------------------------------------------------------------------
 Center     Atomic      Atomic             Coordinates (Angstroms)
 Number     Number       Type             X           Y           Z
 ---------------------------------------------------------------------
      1          6           0       -0.394751   -0.364328   -0.284148
      2          8           0       -0.199638   -0.633969   -1.443567
      3          6           0       -0.263038   -1.409929    0.787376
      4          1           0       -0.044431   -0.987298    1.770379
      5          1           0       -1.228747   -1.933055    0.824832
      6          1           0        0.519201   -2.113233    0.498782
      7         17           0       -1.049937    1.016735    0.188503
      8          6           0        2.289296    0.504864    0.386968
      9          7           0        3.438630    0.773912    0.442622
 ---------------------------------------------------------------------
                    Distance matrix (angstroms):
                    1          2          3          4          5
     1  C    0.000000
     2  O    1.206246   0.000000
     3  C    1.502928   2.362888   0.000000
     4  H    2.175293   3.237033   1.092109   0.000000
     5  H    2.094347   2.809328   1.098934   1.786371   0.000000
     6  H    2.122960   2.545127   1.090789   1.789517   1.787204
     7  Cl   1.600000   2.472142   2.620411   2.743997   3.022936
     8  C    2.900000   3.292809   3.215769   3.096233   4.302534
     9  N    4.064308   4.333224   4.311655   4.122683   5.409082
                    6          7          8          9
     6  H    0.000000
     7  Cl   3.514991   0.000000
     8  C    3.162305   3.384062   0.000000
     9  N    4.106316   4.502307   1.181716   0.000000
 Stoichiometry    C3H3ClNO(1-)
 Framework group  C1[X(C3H3ClNO)]
 Deg. of freedom    21
 Full point group                 C1      NOp   1
 RotChk:  IX=0 Diff= 1.23D-01
 Largest Abelian subgroup         C1      NOp   1
 Largest concise Abelian subgroup C1      NOp   1
                         Standard orientation:                         
 ---------------------------------------------------------------------
 Center     Atomic      Atomic             Coordinates (Angstroms)
 Number     Number       Type             X           Y           Z
 ---------------------------------------------------------------------
      1          6           0       -0.744297    0.386109    0.226411
      2          8           0       -0.726802    0.774552    1.368267
      3          6           0       -0.626637    1.348998   -0.921541
      4          1           0       -0.237712    0.883591   -1.829746
      5          1           0       -1.642190    1.722864   -1.112679
      6          1           0        0.014431    2.178718   -0.620845
      7         17           0       -1.147763   -1.108738   -0.176885
      8          6           0        2.092622   -0.139431   -0.066333
      9          7           0        3.265963   -0.243871    0.027566
 ---------------------------------------------------------------------
 Rotational constants (GHZ):           3.8226284           1.5954579           1.4164546
 Leave Link  202 at Tue Jan  7 23:08:04 2020, MaxMem=  4294967296 cpu:               2.0 elap:               0.2
 (Enter /home/cwagen/sw/g16/g16/l301.exe)
 Standard basis: 6-31+G(d) (6D, 7F)
 Ernie: Thresh=  0.10000D-02 Tol=  0.10000D-05 Strict=F.
 There are   124 symmetry adapted cartesian basis functions of A   symmetry.
 There are   124 symmetry adapted basis functions of A   symmetry.
   124 basis functions,   228 primitive gaussians,   124 cartesian basis functions
    27 alpha electrons       27 beta electrons
       nuclear repulsion energy       246.9524064838 Hartrees.
 IExCor=  402 DFT=T Ex+Corr=B3LYP ExCW=0 ScaHFX=  0.200000
 ScaDFX=  0.800000  0.720000  1.000000  0.810000 ScalE2=  1.000000  1.000000
 IRadAn=      5 IRanWt=     -1 IRanGd=            0 ICorTp=0 IEmpDi=  4
 NAtoms=    9 NActive=    9 NUniq=    9 SFac= 1.00D+00 NAtFMM=   60 NAOKFM=F Big=F
 Integral buffers will be    131072 words long.
 Raffenetti 2 integral format.
 Two-electron integral symmetry is turned on.
 ------------------------------------------------------------------------------
 Polarizable Continuum Model (PCM)
 =================================
 Model                : PCM.
 Atomic radii         : SMD-Coulomb.
 Polarization charges : Total charges.
 Charge compensation  : None.
 Solution method      : On-the-fly selection.
 Cavity type          : VdW (van der Waals Surface) (Alpha=1.000).
 Cavity algorithm     : GePol (No added spheres)
                        Default sphere list used, NSphG=    9.
                        Lebedev-Laikov grids with approx.  5.0 points / Ang**2.
                        Smoothing algorithm: York/Karplus (Gamma=1.0000).
                        Polarization charges: spherical gaussians, with
                                              point-specific exponents (IZeta= 3).
                        Self-potential: point-specific (ISelfS= 7).
                        Self-field    : sphere-specific E.n sum rule (ISelfD= 2).
 1st derivatives      : Analytical E(r).r(x)/FMM algorithm (CHGder, D1EAlg=3).
                        Cavity 1st derivative terms included.
 Solvent              : TetraHydroFuran, Eps=   7.425700 Eps(inf)=   1.974025
 ------------------------------------------------------------------------------
 Spheres list:
 ISph  on   Nord     Re0    Alpha      Xe            Ye            Ze
    1   C      1    1.8500  1.000     -0.744297      0.386109      0.226411
    2   O      2    2.2940  1.000     -0.726802      0.774552      1.368267
    3   C      3    1.8500  1.000     -0.626637      1.348998     -0.921541
    4   H      4    1.2000  1.000     -0.237712      0.883591     -1.829746
    5   H      5    1.2000  1.000     -1.642190      1.722864     -1.112679
    6   H      6    1.2000  1.000      0.014431      2.178718     -0.620845
    7  Cl      7    2.3800  1.000     -1.147763     -1.108738     -0.176885
    8   C      8    1.8500  1.000      2.092622     -0.139431     -0.066333
    9   N      9    1.8900  1.000      3.265963     -0.243871      0.027566
 ------------------------------------------------------------------------------
 GePol: Number of generator spheres                  =       9
 GePol: Total number of spheres                      =       9
 GePol: Number of exposed spheres                    =       9 (100.00%)
 GePol: Number of points                             =    1198
 GePol: Average weight of points                     =       0.14
 GePol: Minimum weight of points                     =   0.60D-09
 GePol: Maximum weight of points                     =    0.18138
 GePol: Number of points with low weight             =      29
 GePol: Fraction of low-weight points (<1% of avg)   =       2.42%
 GePol: Cavity surface area                          =    161.767 Ang**2
 GePol: Cavity volume                                =    145.926 Ang**3
 ------------------------------------------------------------------------------
 Atomic radii for non-electrostatic terms: SMD-CDS.
 ------------------------------------------------------------------------------
 PCM non-electrostatic energy =         0.0010796062 Hartrees.
 Nuclear repulsion after PCM non-electrostatic terms =      246.9534860901 Hartrees.
 Leave Link  301 at Tue Jan  7 23:08:05 2020, MaxMem=  4294967296 cpu:               2.4 elap:               0.2
 (Enter /home/cwagen/sw/g16/g16/l302.exe)
 NPDir=0 NMtPBC=     1 NCelOv=     1 NCel=       1 NClECP=     1 NCelD=      1
         NCelK=      1 NCelE2=     1 NClLst=     1 CellRange=     0.0.
 One-electron integrals computed using PRISM.
 One-electron integral symmetry used in STVInt
 NBasis=   124 RedAO= T EigKep=  5.68D-05  NBF=   124
 NBsUse=   124 1.00D-06 EigRej= -1.00D+00 NBFU=   124
 Precomputing XC quadrature grid using
 IXCGrd= 4 IRadAn=           5 IRanWt=          -1 IRanGd=           0 AccXCQ= 0.00D+00.
 Generated NRdTot=       0 NPtTot=           0 NUsed=           0 NTot=          32
 NSgBfM=   124   124   124   124   124 MxSgAt=     9 MxSgA2=     9.
[...]
      6        1           0.000504404   -0.000719343    0.001379040
      7       17          -0.044631089    0.092959107    0.027345971
      8        6           0.007462749    0.002307302    0.002224961
      9        7          -0.000673741   -0.000228237   -0.000082606
 -------------------------------------------------------------------
 Cartesian Forces:  Max     0.092959107 RMS     0.028805409
 Leave Link  716 at Tue Jan  7 23:43:10 2020, MaxMem=  4294967296 cpu:               1.2 elap:               0.1
 (Enter /home/cwagen/sw/g16/g16/l103.exe)

 GradGradGradGradGradGradGradGradGradGradGradGradGradGradGradGradGradGrad
 Berny optimization.
 Using GEDIIS/GDIIS optimizer.
 FormGI is forming the generalized inverse of G from B-inverse, IUseBI=4.
 Internal  Forces:  Max     0.106644875 RMS     0.019309029
 Search for a local minimum.
 Step number  41 out of a maximum of   41
 All quantities printed in internal units (Hartrees-Bohrs-Radians)
 RMS Force = .21176D-02 SwitMx=.10000D-02 MixMth= 1
 Mixed Optimization -- RFO/linear search
 Update second derivatives using D2CorX and points   10   11   12   13   15
                                                     14   17   18   19   20
                                                     21   22   24   26   27
                                                     28   29   30   31   32
                                                     33   34   35   36   37
                                                     39   40   41   23
 ITU=  0 -1 -1  0  0 -1  0 -1 -1  0  1  1  1 -1  0 -1 -1 -1  1  0
 ITU= -1  1  1 -1  0 -1 -1  1  1  0  1 -1
 Use linear search instead of GDIIS.
     Eigenvalues ---   -0.00627   0.00000   0.00167   0.01474   0.02237
     Eigenvalues ---    0.04896   0.06849   0.10054   0.13821   0.16456
     Eigenvalues ---    0.17294   0.19496   0.24840   0.28784   0.34076
     Eigenvalues ---    0.34347   0.37992   0.79298   1.220261000.00000
     Eigenvalues --- 1000.000001000.000001000.000001000.000001000.00000
     Eigenvalues --- 1000.000001000.000001000.000001000.000001000.00000
     Eigenvalues --- 1000.00000
 Eigenvalue     1 is  -6.27D-03 should be greater than     0.000000 Eigenvector:
                          A14       D6        A12       A5        R5
   1                    0.73470  -0.30890  -0.21761   0.21368  -0.19670
                          A7        A13       D8        D3        A3
   1                    0.18915  -0.16783   0.14748  -0.13853  -0.13065
 RFO step:  Lambda=-6.29355140D-03 EMin=-6.26711972D-03
 I=     1 Eig=   -6.27D-03 Dot1= -4.83D-05
 I=     1 Stepn= -1.25D-01 RXN=   1.25D-01 EDone=F
 Mixed    1 eigenvectors in step.  Raw Step.Grad=  4.83D-05.
 RFO eigenvector is Hessian eigenvector with negative curvature.
 Taking step of  1.25D-01 in eigenvector direction(s).  Step.Grad=  1.30D-04.
 Skip linear search -- no minimum in search direction.
 Maximum step size (   0.050) exceeded in Quadratic search.
    -- Step size not scaled.
 Iteration  1 RMS(Cart)=  0.02832800 RMS(Int)=  0.00069686
 Iteration  2 RMS(Cart)=  0.00091645 RMS(Int)=  0.00008924
 Iteration  3 RMS(Cart)=  0.00000123 RMS(Int)=  0.00008923
 Iteration  4 RMS(Cart)=  0.00000000 RMS(Int)=  0.00008923
 Iteration  1 RMS(Cart)=  0.00000000 RMS(Int)=  0.00000000
 ITry= 1 IFail=0 DXMaxC= 6.96D-02 DCOld= 1.00D+10 DXMaxT= 5.00D-02 DXLimC= 3.00D+00 Rises=F
 Variable       Old X    -DE/DX   Delta X   Delta X   Delta X     New X
                                 (Linear)    (Quad)   (Total)
    R1        2.29457   0.00559   0.00000  -0.00031  -0.00031   2.29426
    R2        2.84658   0.00534   0.00000   0.00607   0.00607   2.85265
    R3        3.02356   0.10664   0.00000   0.00000   0.00000   3.02356
    R4        5.48021   0.00740   0.00000   0.00000   0.00000   5.48021
    R5        2.06822  -0.00239   0.00000   0.02459   0.02459   2.09281
    R6        2.07602   0.00096   0.00000  -0.00878  -0.00878   2.06724
    R7        2.06216   0.00048   0.00000   0.00032   0.00032   2.06248
    R8        2.23218  -0.00068   0.00000  -0.00171  -0.00171   2.23047
    A1        2.11894   0.00409   0.00000   0.00750   0.00742   2.12636
    A2        2.12878  -0.00338   0.00000  -0.01448  -0.01456   2.11423
    A3        1.63790   0.00109   0.00000   0.01633   0.01641   1.65431
    A4        2.03104  -0.00094   0.00000   0.00897   0.00889   2.03993
    A5        1.54622   0.00040   0.00000  -0.02671  -0.02659   1.51964
    A6        1.61340   0.00082   0.00000  -0.00981  -0.00963   1.60377
    A7        1.97381  -0.00169   0.00000  -0.02364  -0.02380   1.95001
    A8        1.87050   0.00221   0.00000   0.00224   0.00219   1.87269
    A9        1.88691   0.00239   0.00000  -0.00033  -0.00051   1.88640
   A10        1.91285  -0.00150   0.00000   0.00840   0.00838   1.92123
   A11        1.92477  -0.00049   0.00000  -0.01140  -0.01168   1.91308
   A12        1.89262  -0.00080   0.00000   0.02720   0.02714   1.91976
   A13        3.20051  -0.00001   0.00000   0.02098   0.02098   3.22149
   A14        2.24805  -0.00027   0.00000  -0.09184  -0.09184   2.15622
    D1        2.53115   0.00194   0.00000  -0.01297  -0.01293   2.51822
    D2       -1.64210   0.00054   0.00000  -0.01549  -0.01553  -1.65763
    D3        0.39477   0.00197   0.00000   0.01732   0.01724   0.41200
    D4       -0.70945  -0.00077   0.00000   0.00833   0.00845  -0.70100
    D5        1.40048  -0.00217   0.00000   0.00580   0.00585   1.40633
    D6       -2.84583  -0.00073   0.00000   0.03861   0.03861  -2.80722
    D7        0.89673   0.00035   0.00000  -0.01591  -0.01588   0.88085
    D8        3.00666  -0.00105   0.00000  -0.01844  -0.01848   2.98818
    D9       -1.23965   0.00039   0.00000   0.01437   0.01429  -1.22537
         Item               Value     Threshold  Converged?
 Maximum Force            0.005591     0.000450     NO 
 RMS     Force            0.002118     0.000300     NO 
 Maximum Displacement     0.069580     0.001800     NO 
 RMS     Displacement     0.028775     0.001200     NO 
 Predicted change in Energy=-2.221399D-04
 Optimization stopped.
    -- Number of steps exceeded,  NStep=  41
    -- Flag reset to prevent archiving.
                           ----------------------------
                           ! Non-Optimized Parameters !
                           ! (Angstroms and Degrees)  !
 --------------------------                            --------------------------
 ! Name  Definition              Value          Derivative Info.                !
 --------------------------------------------------------------------------------
 ! R1    R(1,2)                  1.2141         -DE/DX =    0.0056              !
 ! R2    R(1,3)                  1.5096         -DE/DX =    0.0053              !
 ! R3    R(1,7)                  1.6            -DE/DX =    0.1066              !
 ! R4    R(1,8)                  2.9            -DE/DX =    0.0074              !
 ! R5    R(3,4)                  1.1075         -DE/DX =   -0.0024              !
 ! R6    R(3,5)                  1.0939         -DE/DX =    0.001               !
 ! R7    R(3,6)                  1.0914         -DE/DX =    0.0005              !
 ! R8    R(8,9)                  1.1803         -DE/DX =   -0.0007              !
 ! A1    A(2,1,3)              121.8315         -DE/DX =    0.0041              !
 ! A2    A(2,1,7)              121.1362         -DE/DX =   -0.0034              !
 ! A3    A(2,1,8)               94.785          -DE/DX =    0.0011              !
 ! A4    A(3,1,7)              116.8794         -DE/DX =   -0.0009              !
 ! A5    A(3,1,8)               87.0687         -DE/DX =    0.0004              !
 ! A6    A(7,1,8)               91.8892         -DE/DX =    0.0008              !
 ! A7    A(1,3,4)              111.7273         -DE/DX =   -0.0017              !
 ! A8    A(1,3,5)              107.2975         -DE/DX =    0.0022              !
 ! A9    A(1,3,6)              108.0828         -DE/DX =    0.0024              !
 ! A10   A(4,3,5)              110.0782         -DE/DX =   -0.0015              !
 ! A11   A(4,3,6)              109.6116         -DE/DX =   -0.0005              !
 ! A12   A(5,3,6)              109.9939         -DE/DX =   -0.0008              !
 ! A13   L(1,8,9,6,-1)         184.5777         -DE/DX =    0.0                 !
 ! A14   L(1,8,9,6,-2)         123.5421         -DE/DX =   -0.0003              !
 ! D1    D(2,1,3,4)            144.2834         -DE/DX =    0.0019              !
 ! D2    D(2,1,3,5)            -94.9753         -DE/DX =    0.0005              !
 ! D3    D(2,1,3,6)             23.6061         -DE/DX =    0.002               !
 ! D4    D(7,1,3,4)            -40.1644         -DE/DX =   -0.0008              !
 ! D5    D(7,1,3,5)             80.5769         -DE/DX =   -0.0022              !
 ! D6    D(7,1,3,6)           -160.8417         -DE/DX =   -0.0007              !
 ! D7    D(8,1,3,4)             50.469          -DE/DX =    0.0004              !
 ! D8    D(8,1,3,5)            171.2103         -DE/DX =   -0.0011              !
 ! D9    D(8,1,3,6)            -70.2083         -DE/DX =    0.0004              !
 --------------------------------------------------------------------------------
 Largest change from initial coordinates is atom    8       0.318 Angstoms.
 GradGradGradGradGradGradGradGradGradGradGradGradGradGradGradGradGradGrad

 Leave Link  103 at Tue Jan  7 23:43:16 2020, MaxMem=  4294967296 cpu:              78.8 elap:               6.1
 (Enter /home/cwagen/sw/g16/g16/l202.exe)
                          Input orientation:                          
 ---------------------------------------------------------------------
 Center     Atomic      Atomic             Coordinates (Angstroms)
 Number     Number       Type             X           Y           Z
 ---------------------------------------------------------------------
      1          6           0       -0.356990   -0.370928   -0.265840
      2          8           0       -0.026341   -0.602664   -1.410973
      3          6           0       -0.299729   -1.435407    0.798433
      4          1           0       -0.023945   -1.044007    1.782596
      5          1           0       -1.295900   -1.895600    0.850816
      6          1           0        0.415348   -2.195625    0.479747
      7         17           0       -1.005266    1.027829    0.162201
      8          6           0        2.298919    0.473201    0.536402
      9          7           0        3.360490    0.896902    0.238363
 ---------------------------------------------------------------------
                    Distance matrix (angstroms):
                    1          2          3          4          5
     1  C    0.000000
     2  O    1.214232   0.000000
     3  C    1.506344   2.376904   0.000000
     4  H    2.181753   3.223922   1.094454   0.000000
     5  H    2.110237   2.898129   1.098580   1.792009   0.000000
     6  H    2.117056   2.511460   1.091250   1.793493   1.776535
     7  Cl   1.600000   2.468132   2.640096   2.807343   3.017465
     8  C    2.900000   3.218166   3.234875   3.041482   4.316573
     9  N    3.959958   4.054581   4.376133   4.195972   5.463985
                    6          7          8          9
     6  H    0.000000
     7  Cl   3.536896   0.000000
     8  C    3.267060   3.371242   0.000000
     9  N    4.277365   4.368382   1.181221   0.000000
 Stoichiometry    C3H3ClNO(1-)
 Framework group  C1[X(C3H3ClNO)]
 Deg. of freedom    21
 Full point group                 C1      NOp   1
 RotChk:  IX=0 Diff= 1.51D-15
 Largest Abelian subgroup         C1      NOp   1
 Largest concise Abelian subgroup C1      NOp   1
                         Standard orientation:                         
 ---------------------------------------------------------------------
 Center     Atomic      Atomic             Coordinates (Angstroms)
 Number     Number       Type             X           Y           Z
 ---------------------------------------------------------------------
      1          6           0       -0.737398    0.367736    0.255736
      2          8           0       -0.541129    0.662266    1.417239
      3          6           0       -0.775874    1.416958   -0.824414
      4          1           0       -0.362066    1.068808   -1.775930
      5          1           0       -1.827818    1.702026   -0.962357
      6          1           0       -0.225458    2.289752   -0.469312
      7         17           0       -1.106647   -1.124141   -0.189190
      8          6           0        2.077017   -0.023503   -0.323916
      9          7           0        3.167843   -0.259352    0.063068
 ---------------------------------------------------------------------
 Rotational constants (GHZ):           3.7557408           1.6597605           1.4665290
 Leave Link  202 at Tue Jan  7 23:43:17 2020, MaxMem=  4294967296 cpu:               2.3 elap:               0.2
 (Enter /home/cwagen/sw/g16/g16/l601.exe)
 Copying SCF densities to generalized density rwf, IOpCl= 0 IROHF=0.

 **********************************************************************

            Population analysis using the SCF density.

 **********************************************************************

 Orbital symmetries:
       Occupied  (A) (A) (A) (A) (A) (A) (A) (A) (A) (A) (A) (A)
                 (A) (A) (A) (A) (A) (A) (A) (A) (A) (A) (A) (A)
                 (A) (A) (A)
       Virtual   (A) (A) (A) (A) (A) (A) (A) (A) (A) (A) (A) (A)
                 (A) (A) (A) (A) (A) (A) (A) (A) (A) (A) (A) (A)
                 (A) (A) (A) (A) (A) (A) (A) (A) (A) (A) (A) (A)
                 (A) (A) (A) (A) (A) (A) (A) (A) (A) (A) (A) (A)
                 (A) (A) (A) (A) (A) (A) (A) (A) (A) (A) (A) (A)
                 (A) (A) (A) (A) (A) (A) (A) (A) (A) (A) (A) (A)
                 (A) (A) (A) (A) (A) (A) (A) (A) (A) (A) (A) (A)
                 (A) (A) (A) (A) (A) (A) (A) (A) (A) (A) (A) (A)
                 (A)
 The electronic state is 1-A.
 Alpha  occ. eigenvalues -- -101.55154 -19.13954 -14.25618 -10.30822 -10.17508
 Alpha  occ. eigenvalues --  -10.11983  -9.47183  -7.23473  -7.22675  -7.22514
 Alpha  occ. eigenvalues --   -1.05354  -0.88744  -0.81181  -0.72475  -0.54907
 Alpha  occ. eigenvalues --   -0.46759  -0.45140  -0.44620  -0.38705  -0.37025
 Alpha  occ. eigenvalues --   -0.34799  -0.31360  -0.31205  -0.26310  -0.26179
 Alpha  occ. eigenvalues --   -0.26168  -0.22826
 Alpha virt. eigenvalues --   -0.01421   0.02795   0.04751   0.05410   0.05850
 Alpha virt. eigenvalues --    0.06396   0.08288   0.08823   0.09341   0.09383
 Alpha virt. eigenvalues --    0.11273   0.11372   0.11963   0.13313   0.13526
 Alpha virt. eigenvalues --    0.14692   0.16493   0.16841   0.19346   0.21754
 Alpha virt. eigenvalues --    0.21990   0.22980   0.23574   0.24701   0.26763
 Alpha virt. eigenvalues --    0.28054   0.29034   0.31021   0.32150   0.34317
 Alpha virt. eigenvalues --    0.35928   0.40212   0.42813   0.52075   0.58555
 Alpha virt. eigenvalues --    0.62367   0.63352   0.65863   0.67871   0.70666
 Alpha virt. eigenvalues --    0.73494   0.75628   0.77079   0.79565   0.80881
 Alpha virt. eigenvalues --    0.83704   0.85152   0.87677   0.89515   0.91067
 Alpha virt. eigenvalues --    0.97838   1.01491   1.02078   1.03060   1.05772
 Alpha virt. eigenvalues --    1.13282   1.15542   1.17569   1.19164   1.23693
 Alpha virt. eigenvalues --    1.28648   1.32647   1.36228   1.40541   1.45863
 Alpha virt. eigenvalues --    1.48508   1.62025   1.62373   1.62766   1.64442
 Alpha virt. eigenvalues --    1.64873   1.71746   1.79484   1.84873   1.89480
 Alpha virt. eigenvalues --    1.94833   2.03845   2.04887   2.11244   2.18780
 Alpha virt. eigenvalues --    2.25065   2.33736   2.42484   2.51842   2.60155
 Alpha virt. eigenvalues --    2.60524   2.67098   2.67815   2.89338   3.05391
 Alpha virt. eigenvalues --    3.10118   4.01806   4.18930   4.30984   4.32496
 Alpha virt. eigenvalues --    4.35552   4.50944
          Condensed to atoms (all electrons):
               1          2          3          4          5          6
     1  C    8.329372   0.254010  -1.566274  -0.122487   0.057713  -0.133489
     2  O    0.254010   8.251845  -0.010323   0.008453  -0.008211   0.003502
     3  C   -1.566274  -0.010323   6.965317   0.416401   0.296342   0.446478
     4  H   -0.122487   0.008453   0.416401   0.458360  -0.024571  -0.020533
     5  H    0.057713  -0.008211   0.296342  -0.024571   0.471142  -0.022690
     6  H   -0.133489   0.003502   0.446478  -0.020533  -0.022690   0.455970
     7  Cl  -1.097181  -0.080568   0.351371   0.033527  -0.018261   0.020171
     8  C    0.705073  -0.090643  -0.475372  -0.000411   0.003460  -0.000508
     9  N   -0.054203   0.001604   0.026013  -0.000078  -0.000061  -0.000049
               7          8          9
     1  C   -1.097181   0.705073  -0.054203
     2  O   -0.080568  -0.090643   0.001604
     3  C    0.351371  -0.475372   0.026013
     4  H    0.033527  -0.000411  -0.000078
     5  H   -0.018261   0.003460  -0.000061
     6  H    0.020171  -0.000508  -0.000049
     7  Cl  17.646669  -0.199899   0.009674
     8  C   -0.199899   5.726099   0.620892
     9  N    0.009674   0.620892   7.037485
 Mulliken charges:
               1
     1  C   -0.372534
     2  O   -0.329668
     3  C   -0.449953
     4  H    0.251340
     5  H    0.245137
     6  H    0.251150
     7  Cl   0.334497
     8  C   -0.288691
     9  N   -0.641277
 Sum of Mulliken charges =  -1.00000
 Mulliken charges with hydrogens summed into heavy atoms:
               1
     1  C   -0.372534
     2  O   -0.329668
     3  C    0.297673
     7  Cl   0.334497
     8  C   -0.288691
     9  N   -0.641277
 Electronic spatial extent (au):  <R**2>=            857.5428
 Charge=             -1.0000 electrons
 Dipole moment (field-independent basis, Debye):
    X=            -12.4213    Y=              1.2225    Z=             -2.5596  Tot=             12.7411
 Quadrupole moment (field-independent basis, Debye-Ang):
   XX=            -81.6346   YY=            -44.5863   ZZ=            -50.2281
   XY=              1.7934   XZ=              2.1237   YZ=             -2.3965
 Traceless Quadrupole moment (field-independent basis, Debye-Ang):
   XX=            -22.8182   YY=             14.2300   ZZ=              8.5882
   XY=              1.7934   XZ=              2.1237   YZ=             -2.3965
 Octapole moment (field-independent basis, Debye-Ang**2):
  XXX=           -153.7304  YYY=             -1.2541  ZZZ=             -3.7662  XYY=            -13.3975
  XXY=             10.9934  XXZ=             -0.9433  XZZ=             -9.8426  YZZ=             -2.9703
  YYZ=             -1.7775  XYZ=              1.9395
 Hexadecapole moment (field-independent basis, Debye-Ang**3):
 XXXX=          -1215.5518 YYYY=           -264.5019 ZZZZ=           -187.2903 XXXY=             36.1432
 XXXZ=             -6.0408 YYYX=             12.0627 YYYZ=              3.0807 ZZZX=              7.3302
 ZZZY=             -2.0766 XXYY=           -185.7628 XXZZ=           -173.2811 YYZZ=            -79.2207
 XXYZ=              1.2421 YYXZ=              3.9602 ZZXY=              4.0331
 N-N= 2.476003680487D+02 E-N=-2.172763799669D+03  KE= 7.029489247477D+02
 No NMR shielding tensors so no spin-rotation constants.
 Leave Link  601 at Tue Jan  7 23:43:18 2020, MaxMem=  4294967296 cpu:              16.8 elap:               1.3
 (Enter /home/cwagen/sw/g16/g16/l9999.exe)


 SOME THINGS ARE EASY, THEY ARE ONLY HARD TO DO.
            -- A. EINSTEIN TO J. O. HIRSCHFELDER
 THE ONLY TROUBLE WITH A SURE THING IS THE UNCERTAINTY.
     -- FROM A TEABAG (BELONGING TO W.H.?)
 Error termination request processed by link 9999.
 Error termination via Lnk1e in /home/cwagen/sw/g16/g16/l9999.exe at Tue Jan  7 23:43:18 2020.
 Job cpu time:       0 days  7 hours 51 minutes 35.7 seconds.
 Elapsed time:       0 days  0 hours 37 minutes 11.5 seconds.
 File lengths (MBytes):  RWF=     36 Int=      0 D2E=      0 Chk=      3 Scr=      1
