 Entering Gaussian System, Link 0=g16
 Input=scan_180_270.gjf
 Output=scan_180_270.out
 Initial command:
 /home/cwagen/sw/g16/g16/l1.exe "/scratch/users/cwagen/cwagen_scan_180_270/Gau-46566.inp" -scrdir="/scratch/users/cwagen/cwagen_scan_180_270/"
 Entering Link 1 = /home/cwagen/sw/g16/g16/l1.exe PID=     46567.
  
 Copyright (c) 1988,1990,1992,1993,1995,1998,2003,2009,2016,
            Gaussian, Inc.  All Rights Reserved.
  
 This is part of the Gaussian(R) 16 program.  It is based on
 the Gaussian(R) 09 system (copyright 2009, Gaussian, Inc.),
 the Gaussian(R) 03 system (copyright 2003, Gaussian, Inc.),
 the Gaussian(R) 98 system (copyright 1998, Gaussian, Inc.),
 the Gaussian(R) 94 system (copyright 1995, Gaussian, Inc.),
 the Gaussian 92(TM) system (copyright 1992, Gaussian, Inc.),
 the Gaussian 90(TM) system (copyright 1990, Gaussian, Inc.),
 the Gaussian 88(TM) system (copyright 1988, Gaussian, Inc.),
 the Gaussian 86(TM) system (copyright 1986, Carnegie Mellon
 University), and the Gaussian 82(TM) system (copyright 1983,
 Carnegie Mellon University). Gaussian is a federally registered
 trademark of Gaussian, Inc.
  
 This software contains proprietary and confidential information,
 including trade secrets, belonging to Gaussian, Inc.
  
 This software is provided under written license and may be
 used, copied, transmitted, or stored only in accord with that
 written license.
  
 The following legend is applicable only to US Government
 contracts under FAR:
  
                    RESTRICTED RIGHTS LEGEND
  
 Use, reproduction and disclosure by the US Government is
 subject to restrictions as set forth in subparagraphs (a)
 and (c) of the Commercial Computer Software - Restricted
 Rights clause in FAR 52.227-19.
  
 Gaussian, Inc.
 340 Quinnipiac St., Bldg. 40, Wallingford CT 06492
  
  
 ---------------------------------------------------------------
 Warning -- This program may not be used in any manner that
 competes with the business of Gaussian, Inc. or will provide
 assistance to any competitor of Gaussian, Inc.  The licensee
 of this program is prohibited from giving any competitor of
 Gaussian, Inc. access to this program.  By using this program,
 the user acknowledges that Gaussian, Inc. is engaged in the
 business of creating and licensing software in the field of
 computational chemistry and represents and warrants to the
 licensee that it is not a competitor of Gaussian, Inc. and that
 it will not use this program in any manner prohibited above.
 ---------------------------------------------------------------
  

 Cite this work as:
 Gaussian 16, Revision A.03,
 M. J. Frisch, G. W. Trucks, H. B. Schlegel, G. E. Scuseria, 
 M. A. Robb, J. R. Cheeseman, G. Scalmani, V. Barone, 
 G. A. Petersson, H. Nakatsuji, X. Li, M. Caricato, A. V. Marenich, 
 J. Bloino, B. G. Janesko, R. Gomperts, B. Mennucci, H. P. Hratchian, 
 J. V. Ortiz, A. F. Izmaylov, J. L. Sonnenberg, D. Williams-Young, 
 F. Ding, F. Lipparini, F. Egidi, J. Goings, B. Peng, A. Petrone, 
 T. Henderson, D. Ranasinghe, V. G. Zakrzewski, J. Gao, N. Rega, 
 G. Zheng, W. Liang, M. Hada, M. Ehara, K. Toyota, R. Fukuda, 
 J. Hasegawa, M. Ishida, T. Nakajima, Y. Honda, O. Kitao, H. Nakai, 
 T. Vreven, K. Throssell, J. A. Montgomery, Jr., J. E. Peralta, 
 F. Ogliaro, M. J. Bearpark, J. J. Heyd, E. N. Brothers, K. N. Kudin, 
 V. N. Staroverov, T. A. Keith, R. Kobayashi, J. Normand, 
 K. Raghavachari, A. P. Rendell, J. C. Burant, S. S. Iyengar, 
 J. Tomasi, M. Cossi, J. M. Millam, M. Klene, C. Adamo, R. Cammi, 
 J. W. Ochterski, R. L. Martin, K. Morokuma, O. Farkas, 
 J. B. Foresman, and D. J. Fox, Gaussian, Inc., Wallingford CT, 2016.
 
 ******************************************
 Gaussian 16:  AS64L-G16RevA.03 25-Dec-2016
                 7-Jan-2020 
 ******************************************
 %nprocshared=16
 Will use up to   16 processors via shared memory.
 %mem=32GB
 ----------------------------------------------------------------------
 #p opt=modredundant b3lyp/6-31+g(d) scrf=(smd, solvent=tetrahydrofuran
 )
 ----------------------------------------------------------------------
 1/18=120,19=15,26=3,38=1/1,3;
 2/9=110,12=2,17=6,18=5,40=1/2;
 3/5=1,6=6,7=11,11=2,25=1,30=1,70=32201,71=1,72=20,74=-5/1,2,3;
 4//1;
 5/5=2,38=5,53=20/2;
 6/7=2,8=2,9=2,10=2,28=1/1;
 7//1,2,3,16;
 1/18=20,19=15,26=3/3(2);
 2/9=110/2;
 99//99;
 2/9=110/2;
 3/5=1,6=6,7=11,11=2,25=1,30=1,70=32205,71=1,72=20,74=-5/1,2,3;
 4/5=5,16=3,69=1/1;
 5/5=2,38=5,53=20/2;
 7//1,2,3,16;
 1/18=20,19=15,26=3/3(-5);
 2/9=110/2;
 6/7=2,8=2,9=2,10=2,19=2,28=1/1;
 99/9=1/99;
 Leave Link    1 at Tue Jan  7 23:44:41 2020, MaxMem=  4294967296 cpu:               1.8 elap:               0.1
 (Enter /home/cwagen/sw/g16/g16/l101.exe)
 -----
 title
 -----
 Symbolic Z-matrix:
 Charge = -1 Multiplicity = 1
 6                    -0.19426  -0.292    -0.21291 
 8                    -0.25532  -0.66526  -1.45426 
 6                    -0.33095  -1.45422   0.81632 
 1                    -0.18039  -1.13044   1.85373 
 1                    -1.34067  -1.87301   0.71427 
 1                     0.39707  -2.23395   0.57058 
 17                   -1.27199   1.07519   0.24456 
 6                     2.30897   0.58457   0.29254 
 7                     3.44354   0.86486   0.32285 
 
 Add virtual bond connecting atoms C8         and C1         Dist= 5.10D+00.
 The following ModRedundant input section has been read:
 B       1       7 F                                                           
 B       1       8 F                                                           
 
 ITRead=  0  0  0  0  0  0  0  0  0
 MicOpt= -1 -1 -1 -1 -1 -1 -1 -1 -1
 NAtoms=      9 NQM=        9 NQMF=       0 NMMI=      0 NMMIF=      0
                NMic=       0 NMicF=      0.
                    Isotopes and Nuclear Properties:
 (Nuclear quadrupole moments (NQMom) in fm**2, nuclear magnetic moments (NMagM)
  in nuclear magnetons)

  Atom         1           2           3           4           5           6           7           8           9
 IAtWgt=          12          16          12           1           1           1          35          12          14
 AtmWgt=  12.0000000  15.9949146  12.0000000   1.0078250   1.0078250   1.0078250  34.9688527  12.0000000  14.0030740
 NucSpn=           0           0           0           1           1           1           3           0           2
 AtZEff=   0.0000000   0.0000000   0.0000000   0.0000000   0.0000000   0.0000000   0.0000000   0.0000000   0.0000000
 NQMom=    0.0000000   0.0000000   0.0000000   0.0000000   0.0000000   0.0000000  -8.1650000   0.0000000   2.0440000
 NMagM=    0.0000000   0.0000000   0.0000000   2.7928460   2.7928460   2.7928460   0.8218740   0.0000000   0.4037610
 AtZNuc=   6.0000000   8.0000000   6.0000000   1.0000000   1.0000000   1.0000000  17.0000000   6.0000000   7.0000000
 Leave Link  101 at Tue Jan  7 23:44:42 2020, MaxMem=  4294967296 cpu:               8.0 elap:               0.6
 (Enter /home/cwagen/sw/g16/g16/l103.exe)

 GradGradGradGradGradGradGradGradGradGradGradGradGradGradGradGradGradGrad
 Berny optimization.
 Initialization pass.
                           ----------------------------
                           !    Initial Parameters    !
                           ! (Angstroms and Degrees)  !
 --------------------------                            --------------------------
 ! Name  Definition              Value          Derivative Info.                !
 --------------------------------------------------------------------------------
 ! R1    R(1,2)                  1.2977         estimate D2E/DX2                !
 ! R2    R(1,3)                  1.5584         estimate D2E/DX2                !
 ! R3    R(1,7)                  1.8            Frozen                          !
 ! R4    R(1,8)                  2.7            Frozen                          !
 ! R5    R(3,4)                  1.0971         estimate D2E/DX2                !
 ! R6    R(3,5)                  1.0979         estimate D2E/DX2                !
 ! R7    R(3,6)                  1.0947         estimate D2E/DX2                !
 ! R8    R(8,9)                  1.1691         estimate D2E/DX2                !
 ! A1    A(2,1,3)              114.4006         estimate D2E/DX2                !
 ! A2    A(2,1,7)              115.6846         estimate D2E/DX2                !
 ! A3    A(2,1,8)              108.426          estimate D2E/DX2                !
 ! A4    A(3,1,7)              110.248          estimate D2E/DX2                !
 ! A5    A(3,1,8)              101.5248         estimate D2E/DX2                !
 ! A6    A(7,1,8)              105.1256         estimate D2E/DX2                !
 ! A7    A(1,3,4)              113.1005         estimate D2E/DX2                !
 ! A8    A(1,3,5)              107.683          estimate D2E/DX2                !
 ! A9    A(1,3,6)              108.9421         estimate D2E/DX2                !
 ! A10   A(4,3,5)              109.0662         estimate D2E/DX2                !
 ! A11   A(4,3,6)              109.3417         estimate D2E/DX2                !
 ! A12   A(5,3,6)              108.6067         estimate D2E/DX2                !
 ! A13   L(1,8,9,6,-1)         177.1471         estimate D2E/DX2                !
 ! A14   L(1,8,9,6,-2)         164.1512         estimate D2E/DX2                !
 ! D1    D(2,1,3,4)            174.4714         estimate D2E/DX2                !
 ! D2    D(2,1,3,5)            -64.9488         estimate D2E/DX2                !
 ! D3    D(2,1,3,6)             52.6633         estimate D2E/DX2                !
 ! D4    D(7,1,3,4)            -53.1046         estimate D2E/DX2                !
 ! D5    D(7,1,3,5)             67.4752         estimate D2E/DX2                !
 ! D6    D(7,1,3,6)           -174.9127         estimate D2E/DX2                !
 ! D7    D(8,1,3,4)             57.938          estimate D2E/DX2                !
 ! D8    D(8,1,3,5)            178.5177         estimate D2E/DX2                !
 ! D9    D(8,1,3,6)            -63.8702         estimate D2E/DX2                !
 --------------------------------------------------------------------------------
 Trust Radius=3.00D-01 FncErr=1.00D-07 GrdErr=1.00D-06 EigMax=2.50D+02 EigMin=1.00D-04
 Number of steps in this run=     41 maximum allowed number of steps=    100.
 GradGradGradGradGradGradGradGradGradGradGradGradGradGradGradGradGradGrad

 Leave Link  103 at Tue Jan  7 23:44:42 2020, MaxMem=  4294967296 cpu:               0.9 elap:               0.1
 (Enter /home/cwagen/sw/g16/g16/l202.exe)
                          Input orientation:                          
 ---------------------------------------------------------------------
 Center     Atomic      Atomic             Coordinates (Angstroms)
 Number     Number       Type             X           Y           Z
 ---------------------------------------------------------------------
      1          6           0       -0.194263   -0.291999   -0.212908
      2          8           0       -0.255321   -0.665256   -1.454255
      3          6           0       -0.330945   -1.454221    0.816316
      4          1           0       -0.180394   -1.130438    1.853734
      5          1           0       -1.340665   -1.873010    0.714272
      6          1           0        0.397068   -2.233949    0.570583
      7         17           0       -1.271993    1.075194    0.244564
      8          6           0        2.308966    0.584565    0.292543
      9          7           0        3.443537    0.864863    0.322846
 ---------------------------------------------------------------------
                    Distance matrix (angstroms):
                    1          2          3          4          5
     1  C    0.000000
     2  O    1.297687   0.000000
     3  C    1.558443   2.404928   0.000000
     4  H    2.230287   3.341377   1.097150   0.000000
     5  H    2.161827   2.709087   1.097876   1.787740   0.000000
     6  H    2.175937   2.643176   1.094698   1.788205   1.780629
     7  Cl   1.800000   2.636053   2.758698   2.940379   2.986176
     8  C    2.700000   3.344985   3.376406   3.402274   4.420106
     9  N    3.854731   4.379601   4.457396   4.411091   5.526097
                    6          7          8          9
     6  H    0.000000
     7  Cl   3.720548   0.000000
     8  C    3.417116   3.614732   0.000000
     9  N    4.352583   4.720868   1.169075   0.000000
 Stoichiometry    C3H3ClNO(1-)
 Framework group  C1[X(C3H3ClNO)]
 Deg. of freedom    21
 Full point group                 C1      NOp   1
 Largest Abelian subgroup         C1      NOp   1
 Largest concise Abelian subgroup C1      NOp   1
                         Standard orientation:                         
 ---------------------------------------------------------------------
 Center     Atomic      Atomic             Coordinates (Angstroms)
 Number     Number       Type             X           Y           Z
 ---------------------------------------------------------------------
      1          6           0       -0.445115    0.396152    0.210289
      2          8           0       -0.620783    0.884711    1.399592
      3          6           0       -0.657874    1.420777   -0.944535
      4          1           0       -0.411005    1.013008   -1.932724
      5          1           0       -1.713948    1.720658   -0.933932
      6          1           0       -0.041728    2.305103   -0.752978
      7         17           0       -1.326872   -1.132769   -0.143128
      8          6           0        2.168565   -0.213666   -0.084331
      9          7           0        3.328044   -0.354136   -0.033211
 ---------------------------------------------------------------------
 Rotational constants (GHZ):           3.5302001           1.4957297           1.3110609
 Leave Link  202 at Tue Jan  7 23:44:42 2020, MaxMem=  4294967296 cpu:               2.3 elap:               0.2
 (Enter /home/cwagen/sw/g16/g16/l301.exe)
 Standard basis: 6-31+G(d) (6D, 7F)
 Ernie: Thresh=  0.10000D-02 Tol=  0.10000D-05 Strict=F.
 There are   124 symmetry adapted cartesian basis functions of A   symmetry.
 There are   124 symmetry adapted basis functions of A   symmetry.
   124 basis functions,   228 primitive gaussians,   124 cartesian basis functions
    27 alpha electrons       27 beta electrons
       nuclear repulsion energy       236.0957422020 Hartrees.
 IExCor=  402 DFT=T Ex+Corr=B3LYP ExCW=0 ScaHFX=  0.200000
 ScaDFX=  0.800000  0.720000  1.000000  0.810000 ScalE2=  1.000000  1.000000
 IRadAn=      5 IRanWt=     -1 IRanGd=            0 ICorTp=0 IEmpDi=  4
 NAtoms=    9 NActive=    9 NUniq=    9 SFac= 1.00D+00 NAtFMM=   60 NAOKFM=F Big=F
 Integral buffers will be    131072 words long.
 Raffenetti 2 integral format.
 Two-electron integral symmetry is turned on.
 ------------------------------------------------------------------------------
 Polarizable Continuum Model (PCM)
 =================================
 Model                : PCM.
 Atomic radii         : SMD-Coulomb.
 Polarization charges : Total charges.
 Charge compensation  : None.
 Solution method      : On-the-fly selection.
 Cavity type          : VdW (van der Waals Surface) (Alpha=1.000).
 Cavity algorithm     : GePol (No added spheres)
                        Default sphere list used, NSphG=    9.
                        Lebedev-Laikov grids with approx.  5.0 points / Ang**2.
                        Smoothing algorithm: York/Karplus (Gamma=1.0000).
                        Polarization charges: spherical gaussians, with
                                              point-specific exponents (IZeta= 3).
                        Self-potential: point-specific (ISelfS= 7).
                        Self-field    : sphere-specific E.n sum rule (ISelfD= 2).
 1st derivatives      : Analytical E(r).r(x)/FMM algorithm (CHGder, D1EAlg=3).
                        Cavity 1st derivative terms included.
 Solvent              : TetraHydroFuran, Eps=   7.425700 Eps(inf)=   1.974025
 ------------------------------------------------------------------------------
 Spheres list:
 ISph  on   Nord     Re0    Alpha      Xe            Ye            Ze
    1   C      1    1.8500  1.000     -0.445115      0.396152      0.210289
    2   O      2    2.2940  1.000     -0.620783      0.884711      1.399592
    3   C      3    1.8500  1.000     -0.657874      1.420777     -0.944535
    4   H      4    1.2000  1.000     -0.411005      1.013008     -1.932724
    5   H      5    1.2000  1.000     -1.713948      1.720658     -0.933932
    6   H      6    1.2000  1.000     -0.041728      2.305103     -0.752978
    7  Cl      7    2.3800  1.000     -1.326872     -1.132769     -0.143128
    8   C      8    1.8500  1.000      2.168565     -0.213666     -0.084331
    9   N      9    1.8900  1.000      3.328044     -0.354136     -0.033211
 ------------------------------------------------------------------------------
 GePol: Number of generator spheres                  =       9
 GePol: Total number of spheres                      =       9
 GePol: Number of exposed spheres                    =       9 (100.00%)
 GePol: Number of points                             =    1226
 GePol: Average weight of points                     =       0.14
 GePol: Minimum weight of points                     =   0.14D-07
 GePol: Maximum weight of points                     =    0.18138
 GePol: Number of points with low weight             =      35
 GePol: Fraction of low-weight points (<1% of avg)   =       2.85%
 GePol: Cavity surface area                          =    167.411 Ang**2
 GePol: Cavity volume                                =    149.960 Ang**3
 ------------------------------------------------------------------------------
 Atomic radii for non-electrostatic terms: SMD-CDS.
 ------------------------------------------------------------------------------
 PCM non-electrostatic energy =         0.0010755828 Hartrees.
 Nuclear repulsion after PCM non-electrostatic terms =      236.0968177848 Hartrees.
 Leave Link  301 at Tue Jan  7 23:44:42 2020, MaxMem=  4294967296 cpu:               2.5 elap:               0.2
 (Enter /home/cwagen/sw/g16/g16/l302.exe)
 NPDir=0 NMtPBC=     1 NCelOv=     1 NCel=       1 NClECP=     1 NCelD=      1
         NCelK=      1 NCelE2=     1 NClLst=     1 CellRange=     0.0.
 One-electron integrals computed using PRISM.
 One-electron integral symmetry used in STVInt
 NBasis=   124 RedAO= T EigKep=  1.04D-04  NBF=   124
 NBsUse=   124 1.00D-06 EigRej= -1.00D+00 NBFU=   124
 Precomputing XC quadrature grid using
 IXCGrd= 4 IRadAn=           5 IRanWt=          -1 IRanGd=           0 AccXCQ= 0.00D+00.
 Generated NRdTot=       0 NPtTot=           0 NUsed=           0 NTot=          32
 NSgBfM=   124   124   124   124   124 MxSgAt=     9 MxSgA2=     9.
 Leave Link  302 at Tue Jan  7 23:44:45 2020, MaxMem=  4294967296 cpu:              37.2 elap:               2.7
 (Enter /home/cwagen/sw/g16/g16/l303.exe)
 DipDrv:  MaxL=1.
 Leave Link  303 at Tue Jan  7 23:44:46 2020, MaxMem=  4294967296 cpu:               4.2 elap:               0.4
 (Enter /home/cwagen/sw/g16/g16/l401.exe)
 ExpMin= 4.38D-02 ExpMax= 2.52D+04 ExpMxC= 3.78D+03 IAcc=3 IRadAn=         5 AccDes= 0.00D+00
 Harris functional with IExCor=  402 and IRadAn=       5 diagonalized for initial guess.
 HarFok:  IExCor=  402 AccDes= 0.00D+00 IRadAn=         5 IDoV= 1 UseB2=F ITyADJ=14
 ICtDFT=  3500011 ScaDFX=  1.000000  1.000000  1.000000  1.000000
 FoFCou: FMM=F IPFlag=           0 FMFlag=      100000 FMFlg1=           0
         NFxFlg=           0 DoJE=T BraDBF=F KetDBF=T FulRan=T
         wScrn=  0.000000 ICntrl=       500 IOpCl=  0 I1Cent=   200000004 NGrid=           0
         NMat0=    1 NMatS0=      1 NMatT0=    0 NMatD0=    1 NMtDS0=    0 NMtDT0=    0
 Petite list used in FoFCou.
 Harris En= -706.402708492927    
 JPrj=0 DoOrth=F DoCkMO=F.
 Leave Link  401 at Tue Jan  7 23:44:46 2020, MaxMem=  4294967296 cpu:              10.7 elap:               0.7
 (Enter /home/cwagen/sw/g16/g16/l502.exe)
 Keep R1 ints in memory in canonical form, NReq=45236517.
 FoFCou: FMM=F IPFlag=           0 FMFlag=           0 FMFlg1=           0
         NFxFlg=           0 DoJE=F BraDBF=F KetDBF=F FulRan=T
         wScrn=  0.000000 ICntrl=       600 IOpCl=  0 I1Cent=           0 NGrid=           0
         NMat0=    1 NMatS0=   7750 NMatT0=    0 NMatD0=    1 NMtDS0=    0 NMtDT0=    0
 Symmetry not used in FoFCou.
 Two-electron integral symmetry not used.
 Closed shell SCF:
 Using DIIS extrapolation, IDIIS=  1040.
 NGot=  4294967296 LenX=  4264898079 LenY=  4264882262
 Requested convergence on RMS density matrix=1.00D-08 within 128 cycles.
 Requested convergence on MAX density matrix=1.00D-06.
 Requested convergence on             energy=1.00D-06.
 No special actions if energy rises.

 Cycle   1  Pass 1  IDiag  1:
 Inv3:  Mode=1 IEnd=     4509228.
 Iteration    1 A*A^-1 deviation from unit magnitude is 3.89D-15 for   1217.
 Iteration    1 A*A^-1 deviation from orthogonality  is 2.45D-15 for   1215    166.
 Iteration    1 A^-1*A deviation from unit magnitude is 3.66D-15 for   1217.
 Iteration    1 A^-1*A deviation from orthogonality  is 4.06D-15 for   1205   1031.
 E= -706.139192231896    
 DIIS: error= 2.96D-02 at cycle   1 NSaved=   1.
 NSaved= 1 IEnMin= 1 EnMin= -706.139192231896     IErMin= 1 ErrMin= 2.96D-02
 ErrMax= 2.96D-02  0.00D+00 EMaxC= 1.00D-01 BMatC= 2.52D-01 BMatP= 2.52D-01
 IDIUse=3 WtCom= 7.04D-01 WtEn= 2.96D-01
 Coeff-Com:  0.100D+01
 Coeff-En:   0.100D+01
 Coeff:      0.100D+01
 Gap=     0.292 Goal=   None    Shift=    0.000
 GapD=    0.292 DampG=1.000 DampE=0.500 DampFc=0.5000 IDamp=-1.
 Damping current iteration by 5.00D-01
 RMSDP=2.02D-02 MaxDP=1.05D+00              OVMax= 4.31D-01

 Cycle   2  Pass 1  IDiag  1:
 E= -706.063107181939     Delta-E=        0.076085049958 Rises=F Damp=T
 DIIS: error= 2.71D-02 at cycle   2 NSaved=   2.
 NSaved= 2 IEnMin= 1 EnMin= -706.139192231896     IErMin= 2 ErrMin= 2.71D-02
 ErrMax= 2.71D-02  0.00D+00 EMaxC= 1.00D-01 BMatC= 1.36D-01 BMatP= 2.52D-01
 IDIUse=3 WtCom= 7.29D-01 WtEn= 2.71D-01
 Coeff-Com:  0.407D+00 0.593D+00
 Coeff-En:   0.592D+00 0.408D+00
 Coeff:      0.457D+00 0.543D+00
 Gap=     0.112 Goal=   None    Shift=    0.000
 RMSDP=6.16D-03 MaxDP=1.09D-01 DE= 7.61D-02 OVMax= 3.90D-01

 Cycle   3  Pass 1  IDiag  1:
 E= -706.322103322022     Delta-E=       -0.258996140083 Rises=F Damp=F
 DIIS: error= 1.70D-02 at cycle   3 NSaved=   3.
 NSaved= 3 IEnMin= 3 EnMin= -706.322103322022     IErMin= 3 ErrMin= 1.70D-02
 ErrMax= 1.70D-02  0.00D+00 EMaxC= 1.00D-01 BMatC= 5.88D-02 BMatP= 1.36D-01
 IDIUse=3 WtCom= 8.30D-01 WtEn= 1.70D-01
 Coeff-Com:  0.196D+00 0.374D+00 0.430D+00
 Coeff-En:   0.000D+00 0.000D+00 0.100D+01
 Coeff:      0.163D+00 0.311D+00 0.527D+00
 Gap=     0.189 Goal=   None    Shift=    0.000
 RMSDP=5.25D-03 MaxDP=3.01D-01 DE=-2.59D-01 OVMax= 1.31D-01

 Cycle   4  Pass 1  IDiag  1:
 E= -706.373765399781     Delta-E=       -0.051662077759 Rises=F Damp=F
 DIIS: error= 6.39D-03 at cycle   4 NSaved=   4.
 NSaved= 4 IEnMin= 4 EnMin= -706.373765399781     IErMin= 4 ErrMin= 6.39D-03
 ErrMax= 6.39D-03  0.00D+00 EMaxC= 1.00D-01 BMatC= 8.76D-03 BMatP= 5.88D-02
 IDIUse=3 WtCom= 9.36D-01 WtEn= 6.39D-02
 Coeff-Com:  0.269D-01 0.413D-01 0.281D+00 0.650D+00
 Coeff-En:   0.000D+00 0.000D+00 0.120D+00 0.880D+00
 Coeff:      0.252D-01 0.387D-01 0.271D+00 0.665D+00
 Gap=     0.194 Goal=   None    Shift=    0.000
 RMSDP=9.99D-04 MaxDP=3.33D-02 DE=-5.17D-02 OVMax= 3.13D-02

 Cycle   5  Pass 1  IDiag  1:
 E= -706.380622034741     Delta-E=       -0.006856634960 Rises=F Damp=F
 DIIS: error= 3.37D-03 at cycle   5 NSaved=   5.
 NSaved= 5 IEnMin= 5 EnMin= -706.380622034741     IErMin= 5 ErrMin= 3.37D-03
 ErrMax= 3.37D-03  0.00D+00 EMaxC= 1.00D-01 BMatC= 1.01D-03 BMatP= 8.76D-03
 IDIUse=3 WtCom= 9.66D-01 WtEn= 3.37D-02
 Coeff-Com:  0.359D-02-0.105D-02 0.148D+00 0.432D+00 0.418D+00
 Coeff-En:   0.000D+00 0.000D+00 0.000D+00 0.000D+00 0.100D+01
 Coeff:      0.346D-02-0.101D-02 0.143D+00 0.417D+00 0.437D+00
 Gap=     0.177 Goal=   None    Shift=    0.000
 RMSDP=4.74D-04 MaxDP=2.53D-02 DE=-6.86D-03 OVMax= 1.31D-02

 Cycle   6  Pass 1  IDiag  1:
 E= -706.381392591216     Delta-E=       -0.000770556475 Rises=F Damp=F
 DIIS: error= 1.07D-03 at cycle   6 NSaved=   6.
 NSaved= 6 IEnMin= 6 EnMin= -706.381392591216     IErMin= 6 ErrMin= 1.07D-03
 ErrMax= 1.07D-03  0.00D+00 EMaxC= 1.00D-01 BMatC= 1.39D-04 BMatP= 1.01D-03
 IDIUse=3 WtCom= 9.89D-01 WtEn= 1.07D-02
 Coeff-Com:  0.549D-03-0.588D-02 0.510D-01 0.149D+00 0.283D+00 0.522D+00
 Coeff-En:   0.000D+00 0.000D+00 0.000D+00 0.000D+00 0.139D+00 0.861D+00
 Coeff:      0.543D-03-0.582D-02 0.505D-01 0.148D+00 0.281D+00 0.526D+00
 Gap=     0.179 Goal=   None    Shift=    0.000
 RMSDP=1.06D-04 MaxDP=2.67D-03 DE=-7.71D-04 OVMax= 3.46D-03

 Cycle   7  Pass 1  IDiag  1:
 E= -706.381515325892     Delta-E=       -0.000122734676 Rises=F Damp=F
 DIIS: error= 1.33D-04 at cycle   7 NSaved=   7.
 NSaved= 7 IEnMin= 7 EnMin= -706.381515325892     IErMin= 7 ErrMin= 1.33D-04
 ErrMax= 1.33D-04  0.00D+00 EMaxC= 1.00D-01 BMatC= 5.21D-06 BMatP= 1.39D-04
 IDIUse=3 WtCom= 9.99D-01 WtEn= 1.33D-03
 Coeff-Com:  0.784D-03-0.338D-02 0.808D-02 0.159D-01 0.702D-01 0.201D+00
 Coeff-Com:  0.707D+00
 Coeff-En:   0.000D+00 0.000D+00 0.000D+00 0.000D+00 0.000D+00 0.000D+00
 Coeff-En:   0.100D+01
 Coeff:      0.783D-03-0.337D-02 0.807D-02 0.158D-01 0.701D-01 0.201D+00
 Coeff:      0.708D+00
 Gap=     0.178 Goal=   None    Shift=    0.000
 RMSDP=3.17D-05 MaxDP=6.52D-04 DE=-1.23D-04 OVMax= 5.76D-04

 Cycle   8  Pass 1  IDiag  1:
 E= -706.381519831854     Delta-E=       -0.000004505962 Rises=F Damp=F
 DIIS: error= 4.52D-05 at cycle   8 NSaved=   8.
 NSaved= 8 IEnMin= 8 EnMin= -706.381519831854     IErMin= 8 ErrMin= 4.52D-05
 ErrMax= 4.52D-05  0.00D+00 EMaxC= 1.00D-01 BMatC= 2.92D-07 BMatP= 5.21D-06
 IDIUse=1 WtCom= 1.00D+00 WtEn= 0.00D+00
 Coeff-Com:  0.462D-03-0.109D-02 0.121D-02-0.500D-03 0.914D-02 0.324D-01
 Coeff-Com:  0.178D+00 0.780D+00
 Coeff:      0.462D-03-0.109D-02 0.121D-02-0.500D-03 0.914D-02 0.324D-01
 Coeff:      0.178D+00 0.780D+00
 Gap=     0.179 Goal=   None    Shift=    0.000
 RMSDP=5.44D-06 MaxDP=8.73D-05 DE=-4.51D-06 OVMax= 1.35D-04

 Cycle   9  Pass 1  IDiag  1:
 E= -706.381520044367     Delta-E=       -0.000000212513 Rises=F Damp=F
 DIIS: error= 1.45D-05 at cycle   9 NSaved=   9.
 NSaved= 9 IEnMin= 9 EnMin= -706.381520044367     IErMin= 9 ErrMin= 1.45D-05
 ErrMax= 1.45D-05  0.00D+00 EMaxC= 1.00D-01 BMatC= 4.86D-08 BMatP= 2.92D-07
 IDIUse=1 WtCom= 1.00D+00 WtEn= 0.00D+00
 Coeff-Com:  0.232D-03-0.344D-03-0.193D-03-0.243D-02-0.234D-02-0.247D-02
 Coeff-Com:  0.282D-01 0.424D+00 0.555D+00
 Coeff:      0.232D-03-0.344D-03-0.193D-03-0.243D-02-0.234D-02-0.247D-02
 Coeff:      0.282D-01 0.424D+00 0.555D+00
 Gap=     0.178 Goal=   None    Shift=    0.000
 RMSDP=3.23D-06 MaxDP=6.64D-05 DE=-2.13D-07 OVMax= 9.68D-05

 Cycle  10  Pass 1  IDiag  1:
 E= -706.381520093842     Delta-E=       -0.000000049476 Rises=F Damp=F
 DIIS: error= 3.26D-06 at cycle  10 NSaved=  10.
 NSaved=10 IEnMin=10 EnMin= -706.381520093842     IErMin=10 ErrMin= 3.26D-06
 ErrMax= 3.26D-06  0.00D+00 EMaxC= 1.00D-01 BMatC= 2.72D-09 BMatP= 4.86D-08
 IDIUse=1 WtCom= 1.00D+00 WtEn= 0.00D+00
 Coeff-Com:  0.444D-04-0.355D-04-0.484D-04-0.454D-03-0.141D-02-0.420D-02
 Coeff-Com: -0.127D-01 0.574D-01 0.230D+00 0.731D+00
 Coeff:      0.444D-04-0.355D-04-0.484D-04-0.454D-03-0.141D-02-0.420D-02
 Coeff:     -0.127D-01 0.574D-01 0.230D+00 0.731D+00
 Gap=     0.178 Goal=   None    Shift=    0.000
 RMSDP=6.67D-07 MaxDP=1.38D-05 DE=-4.95D-08 OVMax= 1.40D-05

 Cycle  11  Pass 1  IDiag  1:
 E= -706.381520096579     Delta-E=       -0.000000002737 Rises=F Damp=F
 DIIS: error= 4.43D-07 at cycle  11 NSaved=  11.
 NSaved=11 IEnMin=11 EnMin= -706.381520096579     IErMin=11 ErrMin= 4.43D-07
 ErrMax= 4.43D-07  0.00D+00 EMaxC= 1.00D-01 BMatC= 5.01D-11 BMatP= 2.72D-09
 IDIUse=1 WtCom= 1.00D+00 WtEn= 0.00D+00
 Coeff-Com:  0.184D-05 0.552D-05 0.875D-05 0.321D-05-0.225D-03-0.935D-03
 Coeff-Com: -0.475D-02-0.678D-02 0.356D-01 0.185D+00 0.792D+00
 Coeff:      0.184D-05 0.552D-05 0.875D-05 0.321D-05-0.225D-03-0.935D-03
 Coeff:     -0.475D-02-0.678D-02 0.356D-01 0.185D+00 0.792D+00
 Gap=     0.178 Goal=   None    Shift=    0.000
 RMSDP=1.39D-07 MaxDP=5.97D-06 DE=-2.74D-09 OVMax= 3.62D-06

 Cycle  12  Pass 1  IDiag  1:
 E= -706.381520096627     Delta-E=       -0.000000000048 Rises=F Damp=F
 DIIS: error= 8.27D-08 at cycle  12 NSaved=  12.
 NSaved=12 IEnMin=12 EnMin= -706.381520096627     IErMin=12 ErrMin= 8.27D-08
 ErrMax= 8.27D-08  0.00D+00 EMaxC= 1.00D-01 BMatC= 1.70D-12 BMatP= 5.01D-11
 IDIUse=1 WtCom= 1.00D+00 WtEn= 0.00D+00
 Coeff-Com: -0.133D-05 0.238D-05 0.434D-05 0.133D-04 0.791D-05-0.156D-04
 Coeff-Com: -0.478D-03-0.379D-02-0.216D-02 0.130D-01 0.164D+00 0.829D+00
 Coeff:     -0.133D-05 0.238D-05 0.434D-05 0.133D-04 0.791D-05-0.156D-04
 Coeff:     -0.478D-03-0.379D-02-0.216D-02 0.130D-01 0.164D+00 0.829D+00
 Gap=     0.178 Goal=   None    Shift=    0.000
 RMSDP=4.12D-08 MaxDP=1.73D-06 DE=-4.81D-11 OVMax= 8.70D-07

 Cycle  13  Pass 1  IDiag  1:
 E= -706.381520096633     Delta-E=       -0.000000000006 Rises=F Damp=F
 DIIS: error= 3.40D-08 at cycle  13 NSaved=  13.
 NSaved=13 IEnMin=13 EnMin= -706.381520096633     IErMin=13 ErrMin= 3.40D-08
 ErrMax= 3.40D-08  0.00D+00 EMaxC= 1.00D-01 BMatC= 3.48D-13 BMatP= 1.70D-12
 IDIUse=1 WtCom= 1.00D+00 WtEn= 0.00D+00
 Coeff-Com: -0.800D-06 0.916D-06 0.745D-06 0.346D-05 0.171D-04 0.605D-04
 Coeff-Com:  0.135D-03-0.124D-02-0.385D-02-0.769D-02 0.151D-01 0.383D+00
 Coeff-Com:  0.614D+00
 Coeff:     -0.800D-06 0.916D-06 0.745D-06 0.346D-05 0.171D-04 0.605D-04
 Coeff:      0.135D-03-0.124D-02-0.385D-02-0.769D-02 0.151D-01 0.383D+00
 Coeff:      0.614D+00
 Gap=     0.178 Goal=   None    Shift=    0.000
 RMSDP=1.34D-08 MaxDP=7.09D-07 DE=-6.25D-12 OVMax= 3.22D-07

 Cycle  14  Pass 1  IDiag  1:
 E= -706.381520096635     Delta-E=       -0.000000000002 Rises=F Damp=F
 DIIS: error= 8.93D-09 at cycle  14 NSaved=  14.
 NSaved=14 IEnMin=14 EnMin= -706.381520096635     IErMin=14 ErrMin= 8.93D-09
 ErrMax= 8.93D-09  0.00D+00 EMaxC= 1.00D-01 BMatC= 2.11D-14 BMatP= 3.48D-13
 IDIUse=1 WtCom= 1.00D+00 WtEn= 0.00D+00
 Coeff-Com: -0.143D-06 0.109D-06-0.263D-06-0.224D-06 0.397D-05 0.203D-04
 Coeff-Com:  0.783D-04 0.305D-05-0.864D-03-0.304D-02-0.112D-01 0.240D-01
 Coeff-Com:  0.180D+00 0.811D+00
 Coeff:     -0.143D-06 0.109D-06-0.263D-06-0.224D-06 0.397D-05 0.203D-04
 Coeff:      0.783D-04 0.305D-05-0.864D-03-0.304D-02-0.112D-01 0.240D-01
 Coeff:      0.180D+00 0.811D+00
 Gap=     0.178 Goal=   None    Shift=    0.000
 RMSDP=2.67D-09 MaxDP=9.79D-08 DE=-1.71D-12 OVMax= 1.23D-07

 Error on total polarization charges =  0.02511
 SCF Done:  E(RB3LYP) =  -706.381520097     A.U. after   14 cycles
            NFock= 14  Conv=0.27D-08     -V/T= 2.0058
 KE= 7.023151250643D+02 PE=-2.149428227439D+03 EE= 5.046347644938D+02
 SMD-CDS (non-electrostatic) energy       (kcal/mol) =       0.67
 (included in total energy above)
 Leave Link  502 at Tue Jan  7 23:45:03 2020, MaxMem=  4294967296 cpu:             250.7 elap:              17.2
 (Enter /home/cwagen/sw/g16/g16/l601.exe)
 Copying SCF densities to generalized density rwf, IOpCl= 0 IROHF=0.

 **********************************************************************

            Population analysis using the SCF density.

 **********************************************************************

 Orbital symmetries:
       Occupied  (A) (A) (A) (A) (A) (A) (A) (A) (A) (A) (A) (A)
                 (A) (A) (A) (A) (A) (A) (A) (A) (A) (A) (A) (A)
                 (A) (A) (A)
       Virtual   (A) (A) (A) (A) (A) (A) (A) (A) (A) (A) (A) (A)
                 (A) (A) (A) (A) (A) (A) (A) (A) (A) (A) (A) (A)
                 (A) (A) (A) (A) (A) (A) (A) (A) (A) (A) (A) (A)
                 (A) (A) (A) (A) (A) (A) (A) (A) (A) (A) (A) (A)
                 (A) (A) (A) (A) (A) (A) (A) (A) (A) (A) (A) (A)
                 (A) (A) (A) (A) (A) (A) (A) (A) (A) (A) (A) (A)
                 (A) (A) (A) (A) (A) (A) (A) (A) (A) (A) (A) (A)
                 (A) (A) (A) (A) (A) (A) (A) (A) (A) (A) (A) (A)
                 (A)
 The electronic state is 1-A.
 Alpha  occ. eigenvalues -- -101.53650 -19.14776 -14.26830 -10.33128 -10.18813
 Alpha  occ. eigenvalues --  -10.13753  -9.45309  -7.21639  -7.20793  -7.20705
 Alpha  occ. eigenvalues --   -1.00802  -0.83160  -0.82968  -0.71727  -0.54161
 Alpha  occ. eigenvalues --   -0.44747  -0.43148  -0.42413  -0.38128  -0.36416
 Alpha  occ. eigenvalues --   -0.34734  -0.30374  -0.29918  -0.27685  -0.27615
 Alpha  occ. eigenvalues --   -0.26020  -0.24185
 Alpha virt. eigenvalues --   -0.06338   0.02797   0.03882   0.05074   0.05427
 Alpha virt. eigenvalues --    0.05983   0.07764   0.08529   0.08854   0.09659
 Alpha virt. eigenvalues --    0.10926   0.11122   0.11511   0.13389   0.13496
 Alpha virt. eigenvalues --    0.14116   0.15444   0.16209   0.18431   0.21558
 Alpha virt. eigenvalues --    0.22411   0.23972   0.24514   0.25443   0.26230
 Alpha virt. eigenvalues --    0.26661   0.28339   0.28550   0.31157   0.33756
 Alpha virt. eigenvalues --    0.34573   0.38616   0.41058   0.55958   0.57286
 Alpha virt. eigenvalues --    0.63104   0.63643   0.64826   0.66735   0.68708
 Alpha virt. eigenvalues --    0.71338   0.72377   0.74144   0.78038   0.79232
 Alpha virt. eigenvalues --    0.81257   0.85553   0.89204   0.90245   0.94349
 Alpha virt. eigenvalues --    0.97945   1.00931   1.01662   1.02963   1.05202
 Alpha virt. eigenvalues --    1.06943   1.09890   1.15608   1.20800   1.21500
 Alpha virt. eigenvalues --    1.30100   1.31211   1.33613   1.35180   1.49633
 Alpha virt. eigenvalues --    1.53138   1.60073   1.60315   1.60410   1.61793
 Alpha virt. eigenvalues --    1.64100   1.70739   1.77778   1.82807   1.89373
 Alpha virt. eigenvalues --    1.91085   1.98047   2.03143   2.03246   2.16926
 Alpha virt. eigenvalues --    2.20035   2.25518   2.30376   2.48924   2.50852
 Alpha virt. eigenvalues --    2.56098   2.66928   2.67094   2.72508   2.96872
 Alpha virt. eigenvalues --    3.10267   4.01161   4.15199   4.24774   4.30835
 Alpha virt. eigenvalues --    4.34762   4.46935
          Condensed to atoms (all electrons):
               1          2          3          4          5          6
     1  C    6.259572   0.407101  -0.419271  -0.076623   0.010440  -0.079338
     2  O    0.407101   8.201311  -0.096121   0.008941  -0.012896  -0.000257
     3  C   -0.419271  -0.096121   6.067949   0.383477   0.350931   0.403904
     4  H   -0.076623   0.008941   0.383477   0.476651  -0.028561  -0.022559
     5  H    0.010440  -0.012896   0.350931  -0.028561   0.459902  -0.023169
     6  H   -0.079338  -0.000257   0.403904  -0.022559  -0.023169   0.457506
     7  Cl  -0.354260  -0.107383   0.102665   0.014849  -0.015823   0.012661
     8  C    0.378300  -0.060410  -0.259352   0.002507   0.002115   0.000167
     9  N   -0.020387   0.000018   0.005888  -0.000177  -0.000006  -0.000063
               7          8          9
     1  C   -0.354260   0.378300  -0.020387
     2  O   -0.107383  -0.060410   0.000018
     3  C    0.102665  -0.259352   0.005888
     4  H    0.014849   0.002507  -0.000177
     5  H   -0.015823   0.002115  -0.000006
     6  H    0.012661   0.000167  -0.000063
     7  Cl  17.379381  -0.081682  -0.001004
     8  C   -0.081682   5.545698   0.640543
     9  N   -0.001004   0.640543   7.021698
 Mulliken charges:
               1
     1  C   -0.105536
     2  O   -0.340304
     3  C   -0.540069
     4  H    0.241494
     5  H    0.257067
     6  H    0.251148
     7  Cl   0.050594
     8  C   -0.167886
     9  N   -0.646509
 Sum of Mulliken charges =  -1.00000
 Mulliken charges with hydrogens summed into heavy atoms:
               1
     1  C   -0.105536
     2  O   -0.340304
     3  C    0.209641
     7  Cl   0.050594
     8  C   -0.167886
     9  N   -0.646509
 Electronic spatial extent (au):  <R**2>=            933.5724
 Charge=             -1.0000 electrons
 Dipole moment (field-independent basis, Debye):
    X=            -10.4381    Y=              2.1787    Z=             -3.0618  Tot=             11.0939
 Quadrupole moment (field-independent basis, Debye-Ang):
   XX=            -83.5556   YY=            -46.1757   ZZ=            -49.5702
   XY=              2.8104   XZ=              2.8954   YZ=             -3.9263
 Traceless Quadrupole moment (field-independent basis, Debye-Ang):
   XX=            -23.7884   YY=             13.5915   ZZ=             10.1970
   XY=              2.8104   XZ=              2.8954   YZ=             -3.9263
 Octapole moment (field-independent basis, Debye-Ang**2):
  XXX=           -156.4884  YYY=              4.1495  ZZZ=             -5.9823  XYY=            -12.0368
  XXY=             16.0981  XXZ=              0.5978  XZZ=             -7.2592  YZZ=             -2.2603
  YYZ=             -3.7197  XYZ=              2.0082
 Hexadecapole moment (field-independent basis, Debye-Ang**3):
 XXXX=          -1339.9764 YYYY=           -289.8475 ZZZZ=           -187.4470 XXXY=             53.6315
 XXXZ=              7.5012 YYYX=             13.8874 YYYZ=             -2.6653 ZZZX=              5.3105
 ZZZY=             -4.1590 XXYY=           -200.9013 XXZZ=           -183.8526 YYZZ=            -84.0471
 XXYZ=             -1.1975 YYXZ=              3.9355 ZZXY=              4.5196
 N-N= 2.360968177848D+02 E-N=-2.149428227439D+03  KE= 7.023151250643D+02
 No NMR shielding tensors so no spin-rotation constants.
 Leave Link  601 at Tue Jan  7 23:45:05 2020, MaxMem=  4294967296 cpu:              14.8 elap:               1.1
 (Enter /home/cwagen/sw/g16/g16/l701.exe)
 ... and contract with generalized density number  0.
 Compute integral first derivatives.
 D1PCM: PCM CHGder 1st derivatives, ID1Alg=3 FixD1E=F DoIter=F DoCFld=F I1PDM=0.
 GePol: Maximum number of non-zero 1st derivatives   =     345
 Leave Link  701 at Tue Jan  7 23:45:09 2020, MaxMem=  4294967296 cpu:              59.9 elap:               4.1
 (Enter /home/cwagen/sw/g16/g16/l702.exe)
 L702 exits ... SP integral derivatives will be done elsewhere.
 Leave Link  702 at Tue Jan  7 23:45:09 2020, MaxMem=  4294967296 cpu:               1.2 elap:               0.2
 (Enter /home/cwagen/sw/g16/g16/l703.exe)
 Integral derivatives from FoFJK, PRISM(SPDF).
 Compute integral first derivatives, UseDBF=F ICtDFT=           0.
 Calling FoFJK, ICntrl=      2127 FMM=F ISym2X=0 I1Cent= 0 IOpClX= 0 NMat=1 NMatS=1 NMatT=0.
 FoFJK:  IHMeth= 1 ICntrl=    2127 DoSepK=F KAlg= 0 I1Cent=           0 FoldK=F
 IRaf=         0 NMat=       1 IRICut=       1 DoRegI=T DoRafI=F ISym2E= 0 IDoP0=0 IntGTp=1.
 FoFCou: FMM=F IPFlag=           0 FMFlag=      100000 FMFlg1=         800
         NFxFlg=           0 DoJE=F BraDBF=F KetDBF=F FulRan=T
         wScrn=  0.000000 ICntrl=      2127 IOpCl=  0 I1Cent=           0 NGrid=           0
         NMat0=    1 NMatS0=      1 NMatT0=    0 NMatD0=    1 NMtDS0=    0 NMtDT0=    0
 Symmetry not used in FoFCou.
 Leave Link  703 at Tue Jan  7 23:45:11 2020, MaxMem=  4294967296 cpu:              34.6 elap:               2.4
 (Enter /home/cwagen/sw/g16/g16/l716.exe)
 Dipole        =-4.10665657D+00 8.57168614D-01-1.20462046D+00
 ***** Axes restored to original set *****
 -------------------------------------------------------------------
 Center     Atomic                   Forces (Hartrees/Bohr)
 Number     Number              X              Y              Z
 -------------------------------------------------------------------
      1        6          -0.051417975   -0.082518151   -0.093311563
      2        8           0.025224597    0.045396232    0.090724048
      3        6           0.022942953    0.016533564    0.004465166
      4        1           0.000137165    0.000172085   -0.002816014
      5        1           0.000858721    0.004610518   -0.002690317
      6        1          -0.000000449    0.001482488   -0.000268805
      7       17           0.008497003    0.016366572    0.003579630
      8        6          -0.025916430   -0.007020367   -0.000123679
      9        7           0.019674415    0.004977060    0.000441534
 -------------------------------------------------------------------
 Cartesian Forces:  Max     0.093311563 RMS     0.034120210
 Leave Link  716 at Tue Jan  7 23:45:12 2020, MaxMem=  4294967296 cpu:               1.0 elap:               0.7
 (Enter /home/cwagen/sw/g16/g16/l103.exe)

 GradGradGradGradGradGradGradGradGradGradGradGradGradGradGradGradGradGrad
 Berny optimization.
 FormGI is forming the generalized inverse of G from B-inverse, IUseBI=4.
 Internal  Forces:  Max     0.101000342 RMS     0.021710642
 Search for a local minimum.
 Step number   1 out of a maximum of   41
 All quantities printed in internal units (Hartrees-Bohrs-Radians)
 RMS Force = .22363D-01 SwitMx=.10000D-02 MixMth= 1
 Mixed Optimization -- RFO/linear search
 Second derivative matrix not updated -- first step.
 ITU=  0
     Eigenvalues ---    0.00230   0.04746   0.04746   0.05330   0.05908
     Eigenvalues ---    0.07453   0.10176   0.16000   0.16000   0.16000
     Eigenvalues ---    0.25000   0.25000   0.25000   0.26946   0.33918
     Eigenvalues ---    0.33999   0.34275   0.67840   1.220341000.00000
     Eigenvalues --- 1000.000001000.000001000.000001000.000001000.00000
     Eigenvalues --- 1000.000001000.000001000.000001000.000001000.00000
     Eigenvalues --- 1000.00000
 RFO step:  Lambda=-3.70999486D-02 EMin= 2.30000000D-03
 Linear search not attempted -- first point.
 Iteration  1 RMS(Cart)=  0.08846486 RMS(Int)=  0.00971016
 Iteration  2 RMS(Cart)=  0.00883971 RMS(Int)=  0.00628734
 Iteration  3 RMS(Cart)=  0.00006105 RMS(Int)=  0.00628709
 Iteration  4 RMS(Cart)=  0.00000131 RMS(Int)=  0.00628709
 Iteration  5 RMS(Cart)=  0.00000002 RMS(Int)=  0.00628709
 Iteration  1 RMS(Cart)=  0.00000000 RMS(Int)=  0.00000000
 ITry= 1 IFail=0 DXMaxC= 1.81D-01 DCOld= 1.00D+10 DXMaxT= 3.00D-01 DXLimC= 3.00D+00 Rises=F
 Variable       Old X    -DE/DX   Delta X   Delta X   Delta X     New X
                                 (Linear)    (Quad)   (Total)
    R1        2.45227  -0.10100   0.00000  -0.14116  -0.14116   2.31111
    R2        2.94503  -0.01995   0.00000  -0.06509  -0.06509   2.87994
    R3        3.40151   0.00822   0.00000   0.00000   0.00000   3.40151
    R4        5.10226  -0.00639   0.00000   0.00000   0.00000   5.10226
    R5        2.07331  -0.00258   0.00000  -0.00685  -0.00685   2.06646
    R6        2.07468  -0.00230   0.00000  -0.00613  -0.00613   2.06856
    R7        2.06868  -0.00098   0.00000  -0.00259  -0.00259   2.06609
    R8        2.20923   0.02029   0.00000   0.01613   0.01613   2.22536
    A1        1.99667   0.03457   0.00000   0.14814   0.13303   2.12970
    A2        2.01908  -0.01299   0.00000   0.02420   0.00340   2.02248
    A3        1.89239  -0.01348   0.00000  -0.09069  -0.08249   1.80990
    A4        1.92419   0.01541   0.00000   0.08044   0.06322   1.98741
    A5        1.77194  -0.01706   0.00000  -0.10741  -0.10119   1.67075
    A6        1.83479  -0.01287   0.00000  -0.10562  -0.10207   1.73271
    A7        1.97398  -0.00029   0.00000  -0.00157  -0.00166   1.97232
    A8        1.87942  -0.00674   0.00000  -0.03575  -0.03588   1.84354
    A9        1.90140  -0.00012   0.00000   0.00111   0.00108   1.90248
   A10        1.90356   0.00312   0.00000   0.01265   0.01247   1.91603
   A11        1.90837   0.00082   0.00000   0.00697   0.00697   1.91535
   A12        1.89554   0.00328   0.00000   0.01698   0.01691   1.91245
   A13        3.09180   0.00043   0.00000   0.00504   0.00504   3.09684
   A14        2.86498  -0.00001   0.00000  -0.00006  -0.00006   2.86492
    D1        3.04510  -0.01238   0.00000  -0.11455  -0.12007   2.92503
    D2       -1.13357  -0.01325   0.00000  -0.12412  -0.12957  -1.26314
    D3        0.91915  -0.01315   0.00000  -0.12319  -0.12864   0.79050
    D4       -0.92685   0.01533   0.00000   0.13203   0.13628  -0.79057
    D5        1.17766   0.01446   0.00000   0.12245   0.12678   1.30445
    D6       -3.05280   0.01456   0.00000   0.12338   0.12771  -2.92510
    D7        1.01121  -0.00168   0.00000  -0.00869  -0.00757   1.00363
    D8        3.11572  -0.00255   0.00000  -0.01827  -0.01707   3.09865
    D9       -1.11475  -0.00246   0.00000  -0.01733  -0.01615  -1.13089
         Item               Value     Threshold  Converged?
 Maximum Force            0.101000     0.000450     NO 
 RMS     Force            0.022363     0.000300     NO 
 Maximum Displacement     0.181350     0.001800     NO 
 RMS     Displacement     0.088209     0.001200     NO 
 Predicted change in Energy=-2.280807D-02
 Lowest energy point so far.  Saving SCF results.
 GradGradGradGradGradGradGradGradGradGradGradGradGradGradGradGradGradGrad

 Leave Link  103 at Tue Jan  7 23:45:18 2020, MaxMem=  4294967296 cpu:              84.6 elap:               6.1
 (Enter /home/cwagen/sw/g16/g16/l202.exe)
                          Input orientation:                          
 ---------------------------------------------------------------------
 Center     Atomic      Atomic             Coordinates (Angstroms)
 Number     Number       Type             X           Y           Z
 ---------------------------------------------------------------------
      1          6           0       -0.281251   -0.350512   -0.245158
      2          8           0       -0.239618   -0.602087   -1.441266
      3          6           0       -0.298794   -1.448605    0.811464
      4          1           0       -0.119959   -1.071883    1.822350
      5          1           0       -1.295730   -1.897009    0.754206
      6          1           0        0.455308   -2.198594    0.558067
      7         17           0       -1.211669    1.119565    0.216574
      8          6           0        2.213000    0.520045    0.312376
      9          7           0        3.354703    0.804830    0.359082
 ---------------------------------------------------------------------
                    Distance matrix (angstroms):
                    1          2          3          4          5
     1  C    0.000000
     2  O    1.222988   0.000000
     3  C    1.523997   2.407258   0.000000
     4  H    2.195672   3.299426   1.093522   0.000000
     5  H    2.102272   2.759038   1.094635   1.790028   0.000000
     6  H    2.145482   2.651243   1.093327   1.788525   1.787613
     7  Cl   1.800000   2.580194   2.789755   2.927932   3.065261
     8  C    2.700000   3.217106   3.230136   3.202648   4.283520
     9  N    3.862652   4.259086   4.316325   4.211470   5.392827
                    6          7          8          9
     6  H    0.000000
     7  Cl   3.729022   0.000000
     8  C    3.246666   3.478068   0.000000
     9  N    4.179311   4.579423   1.177612   0.000000
 Stoichiometry    C3H3ClNO(1-)
 Framework group  C1[X(C3H3ClNO)]
 Deg. of freedom    21
 Full point group                 C1      NOp   1
 RotChk:  IX=0 Diff= 7.02D-02
 Largest Abelian subgroup         C1      NOp   1
 Largest concise Abelian subgroup C1      NOp   1
                         Standard orientation:                         
 ---------------------------------------------------------------------
 Center     Atomic      Atomic             Coordinates (Angstroms)
 Number     Number       Type             X           Y           Z
 ---------------------------------------------------------------------
      1          6           0       -0.530002    0.455849    0.231523
      2          8           0       -0.604719    0.792173    1.404980
      3          6           0       -0.563574    1.471736   -0.904000
      4          1           0       -0.273179    1.044931   -1.868001
      5          1           0       -1.598192    1.825940   -0.952270
      6          1           0        0.097955    2.305884   -0.655121
      7         17           0       -1.285593   -1.124565   -0.182448
      8          6           0        2.068303   -0.209360   -0.078819
      9          7           0        3.231127   -0.386554   -0.022149
 ---------------------------------------------------------------------
 Rotational constants (GHZ):           3.5410635           1.5867972           1.3789559
 Leave Link  202 at Tue Jan  7 23:45:18 2020, MaxMem=  4294967296 cpu:               1.3 elap:               0.1
 (Enter /home/cwagen/sw/g16/g16/l301.exe)
 Standard basis: 6-31+G(d) (6D, 7F)
 Ernie: Thresh=  0.10000D-02 Tol=  0.10000D-05 Strict=F.
 There are   124 symmetry adapted cartesian basis functions of A   symmetry.
 There are   124 symmetry adapted basis functions of A   symmetry.
   124 basis functions,   228 primitive gaussians,   124 cartesian basis functions
    27 alpha electrons       27 beta electrons
       nuclear repulsion energy       239.9306559857 Hartrees.
 IExCor=  402 DFT=T Ex+Corr=B3LYP ExCW=0 ScaHFX=  0.200000
 ScaDFX=  0.800000  0.720000  1.000000  0.810000 ScalE2=  1.000000  1.000000
 IRadAn=      5 IRanWt=     -1 IRanGd=            0 ICorTp=0 IEmpDi=  4
 NAtoms=    9 NActive=    9 NUniq=    9 SFac= 1.00D+00 NAtFMM=   60 NAOKFM=F Big=F
 Integral buffers will be    131072 words long.
 Raffenetti 2 integral format.
 Two-electron integral symmetry is turned on.
 ------------------------------------------------------------------------------
 Polarizable Continuum Model (PCM)
 =================================
 Model                : PCM.
 Atomic radii         : SMD-Coulomb.
 Polarization charges : Total charges.
 Charge compensation  : None.
 Solution method      : On-the-fly selection.
 Cavity type          : VdW (van der Waals Surface) (Alpha=1.000).
 Cavity algorithm     : GePol (No added spheres)
                        Default sphere list used, NSphG=    9.
                        Lebedev-Laikov grids with approx.  5.0 points / Ang**2.
                        Smoothing algorithm: York/Karplus (Gamma=1.0000).
                        Polarization charges: spherical gaussians, with
                                              point-specific exponents (IZeta= 3).
                        Self-potential: point-specific (ISelfS= 7).
                        Self-field    : sphere-specific E.n sum rule (ISelfD= 2).
 1st derivatives      : Analytical E(r).r(x)/FMM algorithm (CHGder, D1EAlg=3).
                        Cavity 1st derivative terms included.
 Solvent              : TetraHydroFuran, Eps=   7.425700 Eps(inf)=   1.974025
 ------------------------------------------------------------------------------
 Spheres list:
 ISph  on   Nord     Re0    Alpha      Xe            Ye            Ze
    1   C      1    1.8500  1.000     -0.530002      0.455849      0.231523
    2   O      2    2.2940  1.000     -0.604719      0.792173      1.404980
    3   C      3    1.8500  1.000     -0.563574      1.471736     -0.904000
    4   H      4    1.2000  1.000     -0.273179      1.044931     -1.868001
    5   H      5    1.2000  1.000     -1.598192      1.825940     -0.952270
    6   H      6    1.2000  1.000      0.097955      2.305884     -0.655121
    7  Cl      7    2.3800  1.000     -1.285593     -1.124565     -0.182448
    8   C      8    1.8500  1.000      2.068303     -0.209360     -0.078819
    9   N      9    1.8900  1.000      3.231127     -0.386554     -0.022149
 ------------------------------------------------------------------------------
 GePol: Number of generator spheres                  =       9
 GePol: Total number of spheres                      =       9
 GePol: Number of exposed spheres                    =       9 (100.00%)
 GePol: Number of points                             =    1217
 GePol: Average weight of points                     =       0.14
 GePol: Minimum weight of points                     =   0.15D-07
 GePol: Maximum weight of points                     =    0.18138
 GePol: Number of points with low weight             =      36
 GePol: Fraction of low-weight points (<1% of avg)   =       2.96%
 GePol: Cavity surface area                          =    164.506 Ang**2
 GePol: Cavity volume                                =    148.292 Ang**3
 ------------------------------------------------------------------------------
 Atomic radii for non-electrostatic terms: SMD-CDS.
 ------------------------------------------------------------------------------
 PCM non-electrostatic energy =         0.0009241040 Hartrees.
 Nuclear repulsion after PCM non-electrostatic terms =      239.9315800897 Hartrees.
 Leave Link  301 at Tue Jan  7 23:45:18 2020, MaxMem=  4294967296 cpu:               2.5 elap:               0.2
 (Enter /home/cwagen/sw/g16/g16/l302.exe)
 NPDir=0 NMtPBC=     1 NCelOv=     1 NCel=       1 NClECP=     1 NCelD=      1
         NCelK=      1 NCelE2=     1 NClLst=     1 CellRange=     0.0.
 One-electron integrals computed using PRISM.
 One-electron integral symmetry used in STVInt
 NBasis=   124 RedAO= T EigKep=  8.13D-05  NBF=   124
 NBsUse=   124 1.00D-06 EigRej= -1.00D+00 NBFU=   124
 Precomputing XC quadrature grid using
 IXCGrd= 4 IRadAn=           5 IRanWt=          -1 IRanGd=           0 AccXCQ= 0.00D+00.
 Generated NRdTot=       0 NPtTot=           0 NUsed=           0 NTot=          32
 NSgBfM=   124   124   124   124   124 MxSgAt=     9 MxSgA2=     9.
 Leave Link  302 at Tue Jan  7 23:45:21 2020, MaxMem=  4294967296 cpu:              29.9 elap:               2.2
 (Enter /home/cwagen/sw/g16/g16/l303.exe)
 DipDrv:  MaxL=1.
 Leave Link  303 at Tue Jan  7 23:45:21 2020, MaxMem=  4294967296 cpu:               2.4 elap:               0.2
 (Enter /home/cwagen/sw/g16/g16/l401.exe)
 Initial guess from the checkpoint file:  "/scratch/users/cwagen/cwagen_scan_180_270/Gau-46567.chk"
 B after Tr=     0.000000    0.000000    0.000000
         Rot=    0.999806   -0.018141    0.005803    0.005014 Ang=  -2.26 deg.
 Guess basis will be translated and rotated to current coordinates.
 JPrj=2 DoOrth=T DoCkMO=T.
 Generating alternative initial guess.
 ExpMin= 4.38D-02 ExpMax= 2.52D+04 ExpMxC= 3.78D+03 IAcc=2 IRadAn=         4 AccDes= 0.00D+00
 Harris functional with IExCor=  402 and IRadAn=       4 diagonalized for initial guess.
 HarFok:  IExCor=  402 AccDes= 0.00D+00 IRadAn=         4 IDoV= 1 UseB2=F ITyADJ=14
 ICtDFT=  3500011 ScaDFX=  1.000000  1.000000  1.000000  1.000000
 FoFCou: FMM=F IPFlag=           0 FMFlag=      100000 FMFlg1=           0
         NFxFlg=           0 DoJE=T BraDBF=F KetDBF=T FulRan=T
         wScrn=  0.000000 ICntrl=       500 IOpCl=  0 I1Cent=   200000004 NGrid=           0
         NMat0=    1 NMatS0=      1 NMatT0=    0 NMatD0=    1 NMtDS0=    0 NMtDT0=    0
 Petite list used in FoFCou.
 Harris En= -706.423623543557    
 Leave Link  401 at Tue Jan  7 23:45:24 2020, MaxMem=  4294967296 cpu:              49.3 elap:               3.6
 (Enter /home/cwagen/sw/g16/g16/l502.exe)
 Keep R1 ints in memory in canonical form, NReq=45236517.
 FoFCou: FMM=F IPFlag=           0 FMFlag=           0 FMFlg1=           0
         NFxFlg=           0 DoJE=F BraDBF=F KetDBF=F FulRan=T
         wScrn=  0.000000 ICntrl=       600 IOpCl=  0 I1Cent=           0 NGrid=           0
         NMat0=    1 NMatS0=   7750 NMatT0=    0 NMatD0=    1 NMtDS0=    0 NMtDT0=    0
 Symmetry not used in FoFCou.
 Two-electron integral symmetry not used.
 Closed shell SCF:
 Using DIIS extrapolation, IDIIS=  1040.
 NGot=  4294967296 LenX=  4264898079 LenY=  4264882262
 Requested convergence on RMS density matrix=1.00D-08 within 128 cycles.
 Requested convergence on MAX density matrix=1.00D-06.
 Requested convergence on             energy=1.00D-06.
 No special actions if energy rises.

 Cycle   1  Pass 1  IDiag  1:
 Inv3:  Mode=1 IEnd=     4443267.
 Iteration    1 A*A^-1 deviation from unit magnitude is 3.33D-15 for   1213.
 Iteration    1 A*A^-1 deviation from orthogonality  is 1.74D-15 for    378     20.
 Iteration    1 A^-1*A deviation from unit magnitude is 2.66D-15 for   1213.
 Iteration    1 A^-1*A deviation from orthogonality  is 1.51D-15 for   1211   1074.
 E= -706.387733711311    
 DIIS: error= 5.61D-03 at cycle   1 NSaved=   1.
 NSaved= 1 IEnMin= 1 EnMin= -706.387733711311     IErMin= 1 ErrMin= 5.61D-03
 ErrMax= 5.61D-03  0.00D+00 EMaxC= 1.00D-01 BMatC= 1.12D-02 BMatP= 1.12D-02
 IDIUse=3 WtCom= 9.44D-01 WtEn= 5.61D-02
 Coeff-Com:  0.100D+01
 Coeff-En:   0.100D+01
 Coeff:      0.100D+01
 Gap=     0.594 Goal=   None    Shift=    0.000
 GapD=    0.594 DampG=2.000 DampE=1.000 DampFc=2.0000 IDamp=-1.
 RMSDP=5.67D-03 MaxDP=3.79D-01              OVMax= 4.81D-02

 Cycle   2  Pass 1  IDiag  1:
 E= -706.406458368043     Delta-E=       -0.018724656732 Rises=F Damp=F
 DIIS: error= 1.36D-03 at cycle   2 NSaved=   2.
 NSaved= 2 IEnMin= 2 EnMin= -706.406458368043     IErMin= 2 ErrMin= 1.36D-03
 ErrMax= 1.36D-03  0.00D+00 EMaxC= 1.00D-01 BMatC= 9.06D-04 BMatP= 1.12D-02
 IDIUse=3 WtCom= 9.86D-01 WtEn= 1.36D-02
 Coeff-Com:  0.871D-01 0.913D+00
 Coeff-En:   0.000D+00 0.100D+01
 Coeff:      0.860D-01 0.914D+00
 Gap=     0.213 Goal=   None    Shift=    0.000
 RMSDP=8.84D-04 MaxDP=3.67D-02 DE=-1.87D-02 OVMax= 2.43D-02

 Cycle   3  Pass 1  IDiag  1:
 E= -706.405968140701     Delta-E=        0.000490227341 Rises=F Damp=F
 DIIS: error= 2.81D-03 at cycle   3 NSaved=   3.
 NSaved= 3 IEnMin= 2 EnMin= -706.406458368043     IErMin= 2 ErrMin= 1.36D-03
 ErrMax= 2.81D-03  0.00D+00 EMaxC= 1.00D-01 BMatC= 1.57D-03 BMatP= 9.06D-04
 IDIUse=3 WtCom= 1.59D-01 WtEn= 8.41D-01
 Coeff-Com: -0.242D-01 0.581D+00 0.443D+00
 Coeff-En:   0.000D+00 0.595D+00 0.405D+00
 Coeff:     -0.384D-02 0.593D+00 0.411D+00
 Gap=     0.205 Goal=   None    Shift=    0.000
 RMSDP=6.04D-04 MaxDP=2.83D-02 DE= 4.90D-04 OVMax= 1.04D-02

 Cycle   4  Pass 1  IDiag  1:
 E= -706.407340448347     Delta-E=       -0.001372307645 Rises=F Damp=F
 DIIS: error= 7.95D-04 at cycle   4 NSaved=   4.
 NSaved= 4 IEnMin= 4 EnMin= -706.407340448347     IErMin= 4 ErrMin= 7.95D-04
 ErrMax= 7.95D-04  0.00D+00 EMaxC= 1.00D-01 BMatC= 1.11D-04 BMatP= 9.06D-04
 IDIUse=3 WtCom= 9.92D-01 WtEn= 7.95D-03
 Coeff-Com: -0.237D-01 0.280D+00 0.265D+00 0.479D+00
 Coeff-En:   0.000D+00 0.000D+00 0.000D+00 0.100D+01
 Coeff:     -0.235D-01 0.278D+00 0.262D+00 0.483D+00
 Gap=     0.203 Goal=   None    Shift=    0.000
 RMSDP=1.23D-04 MaxDP=2.37D-03 DE=-1.37D-03 OVMax= 2.75D-03

 Cycle   5  Pass 1  IDiag  1:
 E= -706.407426488176     Delta-E=       -0.000086039829 Rises=F Damp=F
 DIIS: error= 1.79D-04 at cycle   5 NSaved=   5.
 NSaved= 5 IEnMin= 5 EnMin= -706.407426488176     IErMin= 5 ErrMin= 1.79D-04
 ErrMax= 1.79D-04  0.00D+00 EMaxC= 1.00D-01 BMatC= 1.14D-05 BMatP= 1.11D-04
 IDIUse=3 WtCom= 9.98D-01 WtEn= 1.79D-03
 Coeff-Com: -0.778D-02 0.732D-01 0.884D-01 0.279D+00 0.568D+00
 Coeff-En:   0.000D+00 0.000D+00 0.000D+00 0.776D-01 0.922D+00
 Coeff:     -0.776D-02 0.731D-01 0.882D-01 0.278D+00 0.568D+00
 Gap=     0.203 Goal=   None    Shift=    0.000
 RMSDP=4.67D-05 MaxDP=9.05D-04 DE=-8.60D-05 OVMax= 8.14D-04

 Cycle   6  Pass 1  IDiag  1:
 E= -706.407437666969     Delta-E=       -0.000011178793 Rises=F Damp=F
 DIIS: error= 3.83D-05 at cycle   6 NSaved=   6.
 NSaved= 6 IEnMin= 6 EnMin= -706.407437666969     IErMin= 6 ErrMin= 3.83D-05
 ErrMax= 3.83D-05  0.00D+00 EMaxC= 1.00D-01 BMatC= 3.29D-07 BMatP= 1.14D-05
 IDIUse=1 WtCom= 1.00D+00 WtEn= 0.00D+00
 Coeff-Com: -0.116D-02 0.472D-02 0.118D-01 0.705D-01 0.213D+00 0.701D+00
 Coeff:     -0.116D-02 0.472D-02 0.118D-01 0.705D-01 0.213D+00 0.701D+00
 Gap=     0.204 Goal=   None    Shift=    0.000
 RMSDP=1.69D-05 MaxDP=9.49D-04 DE=-1.12D-05 OVMax= 3.22D-04

 Cycle   7  Pass 1  IDiag  1:
 E= -706.407438014512     Delta-E=       -0.000000347543 Rises=F Damp=F
 DIIS: error= 1.59D-05 at cycle   7 NSaved=   7.
 NSaved= 7 IEnMin= 7 EnMin= -706.407438014512     IErMin= 7 ErrMin= 1.59D-05
 ErrMax= 1.59D-05  0.00D+00 EMaxC= 1.00D-01 BMatC= 5.46D-08 BMatP= 3.29D-07
 IDIUse=1 WtCom= 1.00D+00 WtEn= 0.00D+00
 Coeff-Com:  0.174D-03-0.536D-02-0.325D-02 0.104D-01 0.590D-01 0.345D+00
 Coeff-Com:  0.594D+00
 Coeff:      0.174D-03-0.536D-02-0.325D-02 0.104D-01 0.590D-01 0.345D+00
 Coeff:      0.594D+00
 Gap=     0.204 Goal=   None    Shift=    0.000
 RMSDP=8.14D-06 MaxDP=4.88D-04 DE=-3.48D-07 OVMax= 8.88D-05

 Cycle   8  Pass 1  IDiag  1:
 E= -706.407438063236     Delta-E=       -0.000000048724 Rises=F Damp=F
 DIIS: error= 9.54D-06 at cycle   8 NSaved=   8.
 NSaved= 8 IEnMin= 8 EnMin= -706.407438063236     IErMin= 8 ErrMin= 9.54D-06
 ErrMax= 9.54D-06  0.00D+00 EMaxC= 1.00D-01 BMatC= 1.48D-08 BMatP= 5.46D-08
 IDIUse=1 WtCom= 1.00D+00 WtEn= 0.00D+00
 Coeff-Com:  0.186D-03-0.362D-02-0.305D-02 0.125D-02 0.219D-01 0.169D+00
 Coeff-Com:  0.399D+00 0.415D+00
 Coeff:      0.186D-03-0.362D-02-0.305D-02 0.125D-02 0.219D-01 0.169D+00
 Coeff:      0.399D+00 0.415D+00
 Gap=     0.204 Goal=   None    Shift=    0.000
 RMSDP=1.34D-06 MaxDP=6.04D-05 DE=-4.87D-08 OVMax= 3.53D-05

 Cycle   9  Pass 1  IDiag  1:
 E= -706.407438075048     Delta-E=       -0.000000011812 Rises=F Damp=F
 DIIS: error= 1.81D-06 at cycle   9 NSaved=   9.
 NSaved= 9 IEnMin= 9 EnMin= -706.407438075048     IErMin= 9 ErrMin= 1.81D-06
 ErrMax= 1.81D-06  0.00D+00 EMaxC= 1.00D-01 BMatC= 8.87D-10 BMatP= 1.48D-08
 IDIUse=1 WtCom= 1.00D+00 WtEn= 0.00D+00
 Coeff-Com:  0.705D-04-0.892D-03-0.116D-02-0.165D-02-0.741D-04 0.173D-01
 Coeff-Com:  0.918D-01 0.212D+00 0.683D+00
 Coeff:      0.705D-04-0.892D-03-0.116D-02-0.165D-02-0.741D-04 0.173D-01
 Coeff:      0.918D-01 0.212D+00 0.683D+00
 Gap=     0.204 Goal=   None    Shift=    0.000
 RMSDP=8.38D-07 MaxDP=5.38D-05 DE=-1.18D-08 OVMax= 1.33D-05

 Cycle  10  Pass 1  IDiag  1:
 E= -706.407438075939     Delta-E=       -0.000000000891 Rises=F Damp=F
 DIIS: error= 3.54D-07 at cycle  10 NSaved=  10.
 NSaved=10 IEnMin=10 EnMin= -706.407438075939     IErMin=10 ErrMin= 3.54D-07
 ErrMax= 3.54D-07  0.00D+00 EMaxC= 1.00D-01 BMatC= 2.71D-11 BMatP= 8.87D-10
 IDIUse=1 WtCom= 1.00D+00 WtEn= 0.00D+00
 Coeff-Com:  0.899D-05-0.354D-05-0.156D-03-0.572D-03-0.168D-02-0.712D-02
 Coeff-Com: -0.419D-02 0.265D-01 0.193D+00 0.795D+00
 Coeff:      0.899D-05-0.354D-05-0.156D-03-0.572D-03-0.168D-02-0.712D-02
 Coeff:     -0.419D-02 0.265D-01 0.193D+00 0.795D+00
 Gap=     0.204 Goal=   None    Shift=    0.000
 RMSDP=1.86D-07 MaxDP=1.04D-05 DE=-8.91D-10 OVMax= 2.38D-06

 Cycle  11  Pass 1  IDiag  1:
 E= -706.407438075970     Delta-E=       -0.000000000031 Rises=F Damp=F
 DIIS: error= 6.87D-08 at cycle  11 NSaved=  11.
 NSaved=11 IEnMin=11 EnMin= -706.407438075970     IErMin=11 ErrMin= 6.87D-08
 ErrMax= 6.87D-08  0.00D+00 EMaxC= 1.00D-01 BMatC= 1.70D-12 BMatP= 2.71D-11
 IDIUse=1 WtCom= 1.00D+00 WtEn= 0.00D+00
 Coeff-Com:  0.341D-07 0.377D-04 0.232D-06-0.125D-03-0.579D-03-0.295D-02
 Coeff-Com: -0.554D-02 0.232D-02 0.357D-01 0.273D+00 0.698D+00
 Coeff:      0.341D-07 0.377D-04 0.232D-06-0.125D-03-0.579D-03-0.295D-02
 Coeff:     -0.554D-02 0.232D-02 0.357D-01 0.273D+00 0.698D+00
 Gap=     0.204 Goal=   None    Shift=    0.000
 RMSDP=3.44D-08 MaxDP=1.94D-06 DE=-3.12D-11 OVMax= 5.15D-07

 Cycle  12  Pass 1  IDiag  1:
 E= -706.407438075976     Delta-E=       -0.000000000006 Rises=F Damp=F
 DIIS: error= 1.70D-08 at cycle  12 NSaved=  12.
 NSaved=12 IEnMin=12 EnMin= -706.407438075976     IErMin=12 ErrMin= 1.70D-08
 ErrMax= 1.70D-08  0.00D+00 EMaxC= 1.00D-01 BMatC= 1.03D-13 BMatP= 1.70D-12
 IDIUse=1 WtCom= 1.00D+00 WtEn= 0.00D+00
 Coeff-Com: -0.641D-06 0.947D-05 0.129D-04 0.102D-04-0.429D-04-0.169D-03
 Coeff-Com: -0.127D-02-0.111D-02-0.672D-02 0.121D-01 0.200D+00 0.797D+00
 Coeff:     -0.641D-06 0.947D-05 0.129D-04 0.102D-04-0.429D-04-0.169D-03
 Coeff:     -0.127D-02-0.111D-02-0.672D-02 0.121D-01 0.200D+00 0.797D+00
 Gap=     0.204 Goal=   None    Shift=    0.000
 RMSDP=8.10D-09 MaxDP=3.43D-07 DE=-6.14D-12 OVMax= 2.03D-07

 Error on total polarization charges =  0.02542
 SCF Done:  E(RB3LYP) =  -706.407438076     A.U. after   12 cycles
            NFock= 12  Conv=0.81D-08     -V/T= 2.0055
 KE= 7.025639865360D+02 PE=-2.157368541052D+03 EE= 5.084655363505D+02
 SMD-CDS (non-electrostatic) energy       (kcal/mol) =       0.58
 (included in total energy above)
 Leave Link  502 at Tue Jan  7 23:46:00 2020, MaxMem=  4294967296 cpu:             480.3 elap:              35.5
 (Enter /home/cwagen/sw/g16/g16/l701.exe)
 ... and contract with generalized density number  0.
 Compute integral first derivatives.
 D1PCM: PCM CHGder 1st derivatives, ID1Alg=3 FixD1E=F DoIter=F DoCFld=F I1PDM=0.
 GePol: Maximum number of non-zero 1st derivatives   =     348
 Leave Link  701 at Tue Jan  7 23:46:02 2020, MaxMem=  4294967296 cpu:              24.6 elap:               1.7
 (Enter /home/cwagen/sw/g16/g16/l702.exe)
 L702 exits ... SP integral derivatives will be done elsewhere.
 Leave Link  702 at Tue Jan  7 23:46:02 2020, MaxMem=  4294967296 cpu:               0.8 elap:               0.5
 (Enter /home/cwagen/sw/g16/g16/l703.exe)
 Integral derivatives from FoFJK, PRISM(SPDF).
 Compute integral first derivatives, UseDBF=F ICtDFT=           0.
 Calling FoFJK, ICntrl=      2127 FMM=F ISym2X=0 I1Cent= 0 IOpClX= 0 NMat=1 NMatS=1 NMatT=0.
 FoFJK:  IHMeth= 1 ICntrl=    2127 DoSepK=F KAlg= 0 I1Cent=           0 FoldK=F
 IRaf=         0 NMat=       1 IRICut=       1 DoRegI=T DoRafI=F ISym2E= 0 IDoP0=0 IntGTp=1.
 FoFCou: FMM=F IPFlag=           0 FMFlag=      100000 FMFlg1=         800
         NFxFlg=           0 DoJE=F BraDBF=F KetDBF=F FulRan=T
         wScrn=  0.000000 ICntrl=      2127 IOpCl=  0 I1Cent=           0 NGrid=           0
         NMat0=    1 NMatS0=      1 NMatT0=    0 NMatD0=    1 NMtDS0=    0 NMtDT0=    0
 Symmetry not used in FoFCou.
 Leave Link  703 at Tue Jan  7 23:46:05 2020, MaxMem=  4294967296 cpu:              38.8 elap:               2.7
 (Enter /home/cwagen/sw/g16/g16/l716.exe)
 Dipole        =-4.17426790D+00 1.17220479D+00-1.08677431D+00
 ***** Axes restored to original set *****
 -------------------------------------------------------------------
 Center     Atomic                   Forces (Hartrees/Bohr)
 Number     Number              X              Y              Z
 -------------------------------------------------------------------
      1        6          -0.022868605   -0.038136285   -0.040373149
      2        8           0.012668140    0.010877252    0.029544094
      3        6           0.012701618    0.013156246    0.001678309
      4        1          -0.000701830   -0.000068276   -0.001488504
      5        1          -0.001537319   -0.000504972    0.000539586
      6        1          -0.000670016    0.000345750   -0.000580059
      7       17          -0.000383868    0.014717188    0.009395824
      8        6          -0.003164734   -0.001561909    0.001342979
      9        7           0.003956613    0.001175006   -0.000059081
 -------------------------------------------------------------------
 Cartesian Forces:  Max     0.040373149 RMS     0.014193210
 Leave Link  716 at Tue Jan  7 23:46:05 2020, MaxMem=  4294967296 cpu:               1.2 elap:               0.1
 (Enter /home/cwagen/sw/g16/g16/l103.exe)

 GradGradGradGradGradGradGradGradGradGradGradGradGradGradGradGradGradGrad
 Berny optimization.
 Using GEDIIS/GDIIS optimizer.
 FormGI is forming the generalized inverse of G from B-inverse, IUseBI=4.
 Internal  Forces:  Max     0.030678727 RMS     0.007882470
 Search for a local minimum.
 Step number   2 out of a maximum of   41
 All quantities printed in internal units (Hartrees-Bohrs-Radians)
 RMS Force = .76835D-02 SwitMx=.10000D-02 MixMth= 1
 Mixed Optimization -- RFO/linear search
 Update second derivatives using D2CorX and points    1    2
 DE= -2.59D-02 DEPred=-2.28D-02 R= 1.14D+00
 TightC=F SS=  1.41D+00  RLast= 4.18D-01 DXNew= 5.0454D-01 1.2543D+00
 Trust test= 1.14D+00 RLast= 4.18D-01 DXMaxT set to 5.05D-01
 ITU=  1  0
 Use linear search instead of GDIIS.
     Eigenvalues ---    0.00230   0.04743   0.04746   0.05198   0.05384
     Eigenvalues ---    0.06096   0.10354   0.15991   0.16000   0.16138
     Eigenvalues ---    0.23384   0.25000   0.26451   0.27673   0.33974
     Eigenvalues ---    0.33987   0.34273   0.57372   1.218481000.00000
     Eigenvalues --- 1000.000001000.000001000.000001000.000001000.00000
     Eigenvalues --- 1000.000001000.000001000.000001000.000001000.00000
     Eigenvalues --- 1000.00000
 RFO step:  Lambda=-2.63021371D-03 EMin= 2.29998477D-03
 Quartic linear search produced a step of  0.49165.
 Iteration  1 RMS(Cart)=  0.07361799 RMS(Int)=  0.00669360
 Iteration  2 RMS(Cart)=  0.00471366 RMS(Int)=  0.00541242
 Iteration  3 RMS(Cart)=  0.00001499 RMS(Int)=  0.00541241
 Iteration  4 RMS(Cart)=  0.00000023 RMS(Int)=  0.00541241
 Iteration  1 RMS(Cart)=  0.00000000 RMS(Int)=  0.00000000
 ITry= 1 IFail=0 DXMaxC= 1.52D-01 DCOld= 1.00D+10 DXMaxT= 5.05D-01 DXLimC= 3.00D+00 Rises=F
 Variable       Old X    -DE/DX   Delta X   Delta X   Delta X     New X
                                 (Linear)    (Quad)   (Total)
    R1        2.31111  -0.03068  -0.06940   0.00257  -0.06684   2.24428
    R2        2.87994  -0.00936  -0.03200  -0.01454  -0.04655   2.83339
    R3        3.40151   0.01460   0.00000   0.00000   0.00000   3.40151
    R4        5.10226   0.00089   0.00000   0.00000   0.00000   5.10226
    R5        2.06646  -0.00154  -0.00337  -0.00300  -0.00637   2.06008
    R6        2.06856   0.00158  -0.00301   0.01033   0.00731   2.07587
    R7        2.06609  -0.00053  -0.00127  -0.00090  -0.00217   2.06392
    R8        2.22536   0.00411   0.00793  -0.00264   0.00529   2.23066
    A1        2.12970   0.01141   0.06541   0.01440   0.06524   2.19494
    A2        2.02248   0.00245   0.00167   0.06871   0.05347   2.07595
    A3        1.80990  -0.00334  -0.04056  -0.01767  -0.05024   1.75966
    A4        1.98741  -0.00523   0.03108  -0.04233  -0.02735   1.96006
    A5        1.67075  -0.00936  -0.04975  -0.04487  -0.09031   1.58044
    A6        1.73271  -0.00324  -0.05018  -0.01478  -0.06618   1.66653
    A7        1.97232  -0.00055  -0.00082  -0.00416  -0.00502   1.96730
    A8        1.84354   0.00055  -0.01764   0.02834   0.01065   1.85419
    A9        1.90248  -0.00058   0.00053  -0.00558  -0.00507   1.89741
   A10        1.91603  -0.00027   0.00613  -0.01153  -0.00548   1.91056
   A11        1.91535   0.00080   0.00343   0.00346   0.00688   1.92222
   A12        1.91245   0.00004   0.00831  -0.01025  -0.00196   1.91049
   A13        3.09684   0.00060   0.00248   0.01239   0.01487   3.11171
   A14        2.86492  -0.00012  -0.00003  -0.00349  -0.00352   2.86139
    D1        2.92503  -0.00756  -0.05903  -0.06318  -0.12602   2.79902
    D2       -1.26314  -0.00785  -0.06370  -0.06120  -0.12867  -1.39181
    D3        0.79050  -0.00779  -0.06325  -0.06077  -0.12780   0.66271
    D4       -0.79057   0.00843   0.06700   0.03162   0.09988  -0.69069
    D5        1.30445   0.00814   0.06233   0.03360   0.09722   1.40167
    D6       -2.92510   0.00819   0.06279   0.03403   0.09809  -2.82700
    D7        1.00363  -0.00071  -0.00372  -0.01481  -0.01604   0.98759
    D8        3.09865  -0.00100  -0.00839  -0.01283  -0.01870   3.07995
    D9       -1.13089  -0.00094  -0.00794  -0.01240  -0.01783  -1.14872
         Item               Value     Threshold  Converged?
 Maximum Force            0.030679     0.000450     NO 
 RMS     Force            0.007683     0.000300     NO 
 Maximum Displacement     0.152260     0.001800     NO 
 RMS     Displacement     0.075087     0.001200     NO 
 Predicted change in Energy=-6.371798D-03
 Lowest energy point so far.  Saving SCF results.
 GradGradGradGradGradGradGradGradGradGradGradGradGradGradGradGradGradGrad

 Leave Link  103 at Tue Jan  7 23:46:11 2020, MaxMem=  4294967296 cpu:              89.5 elap:               6.4
 (Enter /home/cwagen/sw/g16/g16/l202.exe)
                          Input orientation:                          
 ---------------------------------------------------------------------
 Center     Atomic      Atomic             Coordinates (Angstroms)
 Number     Number       Type             X           Y           Z
 ---------------------------------------------------------------------
      1          6           0       -0.341732   -0.385849   -0.290231
      2          8           0       -0.221622   -0.590629   -1.453880
      3          6           0       -0.277300   -1.420717    0.792816
      4          1           0       -0.073208   -0.991310    1.773827
      5          1           0       -1.259116   -1.913242    0.805844
      6          1           0        0.492727   -2.150887    0.534431
      7         17           0       -1.175284    1.115803    0.248503
      8          6           0        2.144753    0.460771    0.334771
      9          7           0        3.286770    0.751809    0.401615
 ---------------------------------------------------------------------
                    Distance matrix (angstroms):
                    1          2          3          4          5
     1  C    0.000000
     2  O    1.187620   0.000000
     3  C    1.499365   2.395786   0.000000
     4  H    2.167723   3.255866   1.090149   0.000000
     5  H    2.091866   2.816390   1.098505   1.786988   0.000000
     6  H    2.119374   2.626420   1.092178   1.789134   1.788601
     7  Cl   1.800000   2.592197   2.745284   2.825086   3.081034
     8  C    2.700000   3.147133   3.100990   3.016417   4.176622
     9  N    3.865093   4.189728   4.192315   4.026274   5.284976
                    6          7          8          9
     6  H    0.000000
     7  Cl   3.679032   0.000000
     8  C    3.096742   3.385137   0.000000
     9  N    4.031124   4.479493   1.180413   0.000000
 Stoichiometry    C3H3ClNO(1-)
 Framework group  C1[X(C3H3ClNO)]
 Deg. of freedom    21
 Full point group                 C1      NOp   1
 RotChk:  IX=0 Diff= 8.48D-02
 Largest Abelian subgroup         C1      NOp   1
 Largest concise Abelian subgroup C1      NOp   1
                         Standard orientation:                         
 ---------------------------------------------------------------------
 Center     Atomic      Atomic             Coordinates (Angstroms)
 Number     Number       Type             X           Y           Z
 ---------------------------------------------------------------------
      1          6           0       -0.587410    0.501847    0.244086
      2          8           0       -0.587279    0.860915    1.376124
      3          6           0       -0.501019    1.393730   -0.958069
      4          1           0       -0.179260    0.862626   -1.854074
      5          1           0       -1.510716    1.797199   -1.114396
      6          1           0        0.187951    2.212208   -0.738375
      7         17           0       -1.258595   -1.119879   -0.155304
      8          6           0        1.999759   -0.206750   -0.063241
      9          7           0        3.161199   -0.407767    0.000196
 ---------------------------------------------------------------------
 Rotational constants (GHZ):           3.5730661           1.6525442           1.4335845
 Leave Link  202 at Tue Jan  7 23:46:12 2020, MaxMem=  4294967296 cpu:               1.2 elap:               0.8
 (Enter /home/cwagen/sw/g16/g16/l301.exe)
 Standard basis: 6-31+G(d) (6D, 7F)
 Ernie: Thresh=  0.10000D-02 Tol=  0.10000D-05 Strict=F.
 There are   124 symmetry adapted cartesian basis functions of A   symmetry.
 There are   124 symmetry adapted basis functions of A   symmetry.
   124 basis functions,   228 primitive gaussians,   124 cartesian basis functions
    27 alpha electrons       27 beta electrons
       nuclear repulsion energy       242.7540124949 Hartrees.
 IExCor=  402 DFT=T Ex+Corr=B3LYP ExCW=0 ScaHFX=  0.200000
 ScaDFX=  0.800000  0.720000  1.000000  0.810000 ScalE2=  1.000000  1.000000
 IRadAn=      5 IRanWt=     -1 IRanGd=            0 ICorTp=0 IEmpDi=  4
 NAtoms=    9 NActive=    9 NUniq=    9 SFac= 1.00D+00 NAtFMM=   60 NAOKFM=F Big=F
 Integral buffers will be    131072 words long.
 Raffenetti 2 integral format.
 Two-electron integral symmetry is turned on.
 ------------------------------------------------------------------------------
 Polarizable Continuum Model (PCM)
 =================================
 Model                : PCM.
 Atomic radii         : SMD-Coulomb.
 Polarization charges : Total charges.
 Charge compensation  : None.
 Solution method      : On-the-fly selection.
 Cavity type          : VdW (van der Waals Surface) (Alpha=1.000).
 Cavity algorithm     : GePol (No added spheres)
                        Default sphere list used, NSphG=    9.
                        Lebedev-Laikov grids with approx.  5.0 points / Ang**2.
                        Smoothing algorithm: York/Karplus (Gamma=1.0000).
                        Polarization charges: spherical gaussians, with
                                              point-specific exponents (IZeta= 3).
                        Self-potential: point-specific (ISelfS= 7).
                        Self-field    : sphere-specific E.n sum rule (ISelfD= 2).
 1st derivatives      : Analytical E(r).r(x)/FMM algorithm (CHGder, D1EAlg=3).
                        Cavity 1st derivative terms included.
 Solvent              : TetraHydroFuran, Eps=   7.425700 Eps(inf)=   1.974025
 ------------------------------------------------------------------------------
 Spheres list:
 ISph  on   Nord     Re0    Alpha      Xe            Ye            Ze
    1   C      1    1.8500  1.000     -0.587410      0.501847      0.244086
    2   O      2    2.2940  1.000     -0.587279      0.860915      1.376124
    3   C      3    1.8500  1.000     -0.501019      1.393730     -0.958069
    4   H      4    1.2000  1.000     -0.179260      0.862626     -1.854074
    5   H      5    1.2000  1.000     -1.510716      1.797199     -1.114396
    6   H      6    1.2000  1.000      0.187951      2.212208     -0.738375
    7  Cl      7    2.3800  1.000     -1.258595     -1.119879     -0.155304
    8   C      8    1.8500  1.000      1.999759     -0.206750     -0.063241
    9   N      9    1.8900  1.000      3.161199     -0.407767      0.000196
 ------------------------------------------------------------------------------
 GePol: Number of generator spheres                  =       9
 GePol: Total number of spheres                      =       9
 GePol: Number of exposed spheres                    =       9 (100.00%)
 GePol: Number of points                             =    1207
 GePol: Average weight of points                     =       0.13
 GePol: Minimum weight of points                     =   0.31D-08
 GePol: Maximum weight of points                     =    0.18138
 GePol: Number of points with low weight             =      32
 GePol: Fraction of low-weight points (<1% of avg)   =       2.65%
 GePol: Cavity surface area                          =    162.412 Ang**2
 GePol: Cavity volume                                =    147.294 Ang**3
 ------------------------------------------------------------------------------
 Atomic radii for non-electrostatic terms: SMD-CDS.
 ------------------------------------------------------------------------------
 PCM non-electrostatic energy =         0.0008971452 Hartrees.
 Nuclear repulsion after PCM non-electrostatic terms =      242.7549096401 Hartrees.
 Leave Link  301 at Tue Jan  7 23:46:12 2020, MaxMem=  4294967296 cpu:               2.5 elap:               0.2
 (Enter /home/cwagen/sw/g16/g16/l302.exe)
 NPDir=0 NMtPBC=     1 NCelOv=     1 NCel=       1 NClECP=     1 NCelD=      1
         NCelK=      1 NCelE2=     1 NClLst=     1 CellRange=     0.0.
 One-electron integrals computed using PRISM.
 One-electron integral symmetry used in STVInt
 NBasis=   124 RedAO= T EigKep=  6.73D-05  NBF=   124
 NBsUse=   124 1.00D-06 EigRej= -1.00D+00 NBFU=   124
 Precomputing XC quadrature grid using
 IXCGrd= 4 IRadAn=           5 IRanWt=          -1 IRanGd=           0 AccXCQ= 0.00D+00.
 Generated NRdTot=       0 NPtTot=           0 NUsed=           0 NTot=          32
 NSgBfM=   124   124   124   124   124 MxSgAt=     9 MxSgA2=     9.
[...]
 -------------------------------------------------------------------
 Cartesian Forces:  Max     0.015698696 RMS     0.004761188
 Leave Link  716 at Wed Jan  8 00:13:27 2020, MaxMem=  4294967296 cpu:               1.2 elap:               0.1
 (Enter /home/cwagen/sw/g16/g16/l103.exe)

 GradGradGradGradGradGradGradGradGradGradGradGradGradGradGradGradGradGrad
 Berny optimization.
 Using GEDIIS/GDIIS optimizer.
 FormGI is forming the generalized inverse of G from B-inverse, IUseBI=4.
 Internal  Forces:  Max     0.015995678 RMS     0.003226676
 Search for a local minimum.
 Step number  41 out of a maximum of   41
 All quantities printed in internal units (Hartrees-Bohrs-Radians)
 RMS Force = .15507D-03 SwitMx=.10000D-02 MixMth= 2
 Mixed Optimization -- En-DIIS/RFO-DIIS
 Swapping is turned off.
 Update second derivatives using D2CorX and points   10   11   12   13   14
                                                     15   16   18   19   17
                                                     20   21   23   25   26
                                                     27   28   29   30   31
                                                     32   33   34   35   24
                                                     36   37   38   39   40
                                                     41
 DE= -1.36D-06 DEPred=-3.50D-06 R= 3.87D-01
 Trust test= 3.87D-01 RLast= 2.18D-02 DXMaxT set to 8.60D-02
 ITU=  0  1  1 -1  0 -1  0 -1 -1  1  1 -1 -1  1  1  1 -1  0 -1 -1
 ITU=  0 -1 -1 -1  1  1  1 -1  0  1 -1 -1
     Eigenvalues ---    0.00171   0.00283   0.00385   0.02074   0.03455
     Eigenvalues ---    0.04876   0.05410   0.08800   0.10820   0.13892
     Eigenvalues ---    0.17100   0.20918   0.24031   0.32206   0.33679
     Eigenvalues ---    0.34252   0.35423   0.71219   1.217501000.00000
     Eigenvalues --- 1000.000001000.000001000.000001000.000001000.00000
     Eigenvalues --- 1000.000001000.000001000.000001000.000001000.00000
     Eigenvalues --- 1000.00000
 En-DIIS/RFO-DIIS/Sim-DIIS IScMMF=       -3 using points:    41   40   39   38   37   36
 RFO step:  Lambda=-2.04401407D-05.
 NNeg= 0 NGDIIS= 6 SimSw=  2.50D-03 Rises=F DC= -1.36D-06 SmlDif=  1.00D-05
 NRisDI= 0 DoIntr=F SqrtH=F CThrHd= 10.0 CDAdj=  3.0
 RMS Error=  0.1205189019D-01 NUsed= 6 OKEnD=F EnDIS=F
 InvSVX:  RCond= 3.20D-10 Info=           0 Equed=N FErr=  4.26D-09 BErr=  1.06D-16
 DIIS inversion failure, remove point   6.
 InvSVX:  RCond= 9.91D-10 Info=           0 Equed=N FErr=  1.55D-09 BErr=  9.44D-17
 DIIS inversion failure, remove point   5.
 InvSVX:  RCond= 2.93D-06 Info=           0 Equed=N FErr=  4.44D-14 BErr=  6.70D-17
 RFO-DIIS uses    4 points instead of    6
 DidBck=T Rises=F RFO-DIIS coefs:    0.10155   -0.04075    0.85485    0.08435    0.00000
                  RFO-DIIS coefs:    0.00000
 Iteration  1 RMS(Cart)=  0.02629765 RMS(Int)=  0.00131512
 Iteration  2 RMS(Cart)=  0.00153520 RMS(Int)=  0.00000314
 Iteration  3 RMS(Cart)=  0.00000397 RMS(Int)=  0.00000010
 Iteration  4 RMS(Cart)=  0.00000000 RMS(Int)=  0.00000010
 Iteration  1 RMS(Cart)=  0.00000000 RMS(Int)=  0.00000000
 ITry= 1 IFail=0 DXMaxC= 9.83D-02 DCOld= 1.00D+10 DXMaxT= 8.60D-02 DXLimC= 3.00D+00 Rises=F
 Variable       Old X    -DE/DX   Delta X   Delta X   Delta X     New X
                                 (Linear)    (Quad)   (Total)
    R1        2.26154  -0.00012  -0.00010  -0.00007  -0.00016   2.26138
    R2        2.83713   0.00014   0.00044  -0.00006   0.00038   2.83751
    R3        3.40151   0.01600   0.00000   0.00000   0.00000   3.40151
    R4        5.10226   0.00814   0.00000   0.00000   0.00000   5.10226
    R5        2.05843   0.00008   0.00015   0.00002   0.00017   2.05861
    R6        2.07786   0.00012   0.00024   0.00006   0.00030   2.07815
    R7        2.06384   0.00005   0.00002   0.00004   0.00006   2.06390
    R8        2.23087   0.00014   0.00004   0.00002   0.00006   2.23094
    A1        2.21924  -0.00013   0.00067  -0.00015   0.00052   2.21976
    A2        2.07327  -0.00029  -0.00233   0.00005  -0.00229   2.07098
    A3        1.70075  -0.00002  -0.00429   0.00021  -0.00408   1.69667
    A4        1.96299   0.00037   0.00138   0.00003   0.00141   1.96440
    A5        1.55487   0.00038   0.00380   0.00044   0.00424   1.55912
    A6        1.67415  -0.00017   0.00226  -0.00040   0.00186   1.67600
    A7        1.95395   0.00001  -0.00082   0.00022  -0.00060   1.95336
    A8        1.87083  -0.00009  -0.00030  -0.00048  -0.00078   1.87005
    A9        1.90355   0.00016   0.00124   0.00016   0.00140   1.90495
   A10        1.89967   0.00005   0.00078   0.00030   0.00107   1.90074
   A11        1.92734  -0.00007  -0.00065  -0.00010  -0.00075   1.92659
   A12        1.90724  -0.00006  -0.00024  -0.00012  -0.00036   1.90689
   A13        3.17269  -0.00010   0.01902   0.00125   0.02027   3.19296
   A14        2.66992  -0.00021  -0.12609   0.00010  -0.12599   2.54394
    D1        2.64539   0.00017   0.00328   0.00003   0.00331   2.64869
    D2       -1.55581   0.00018   0.00356   0.00021   0.00378  -1.55204
    D3        0.50716   0.00014   0.00378  -0.00011   0.00367   0.51083
    D4       -0.75259  -0.00006   0.00164  -0.00031   0.00133  -0.75126
    D5        1.32940  -0.00004   0.00192  -0.00012   0.00180   1.33120
    D6       -2.89081  -0.00008   0.00214  -0.00045   0.00169  -2.88912
    D7        0.92347  -0.00008   0.00570  -0.00056   0.00515   0.92862
    D8        3.00546  -0.00006   0.00599  -0.00037   0.00562   3.01108
    D9       -1.21475  -0.00010   0.00621  -0.00069   0.00551  -1.20924
         Item               Value     Threshold  Converged?
 Maximum Force            0.000376     0.000450     YES
 RMS     Force            0.000155     0.000300     YES
 Maximum Displacement     0.098326     0.001800     NO 
 RMS     Displacement     0.026485     0.001200     NO 
 Predicted change in Energy=-2.472180D-06
 Optimization stopped.
    -- Number of steps exceeded,  NStep=  41
    -- Flag reset to prevent archiving.
                           ----------------------------
                           ! Non-Optimized Parameters !
                           ! (Angstroms and Degrees)  !
 --------------------------                            --------------------------
 ! Name  Definition              Value          Derivative Info.                !
 --------------------------------------------------------------------------------
 ! R1    R(1,2)                  1.1967         -DE/DX =   -0.0001              !
 ! R2    R(1,3)                  1.5015         -DE/DX =    0.0001              !
 ! R3    R(1,7)                  1.8            -DE/DX =    0.016               !
 ! R4    R(1,8)                  2.7            -DE/DX =    0.0081              !
 ! R5    R(3,4)                  1.0894         -DE/DX =    0.0001              !
 ! R6    R(3,5)                  1.0997         -DE/DX =    0.0001              !
 ! R7    R(3,6)                  1.0922         -DE/DX =    0.0                 !
 ! R8    R(8,9)                  1.1806         -DE/DX =    0.0001              !
 ! A1    A(2,1,3)              127.1827         -DE/DX =   -0.0001              !
 ! A2    A(2,1,7)              118.6584         -DE/DX =   -0.0003              !
 ! A3    A(2,1,8)               97.2119         -DE/DX =    0.0                 !
 ! A4    A(3,1,7)              112.5519         -DE/DX =    0.0004              !
 ! A5    A(3,1,8)               89.3308         -DE/DX =    0.0004              !
 ! A6    A(7,1,8)               96.0279         -DE/DX =   -0.0002              !
 ! A7    A(1,3,4)              111.9191         -DE/DX =    0.0                 !
 ! A8    A(1,3,5)              107.1461         -DE/DX =   -0.0001              !
 ! A9    A(1,3,6)              109.1456         -DE/DX =    0.0002              !
 ! A10   A(4,3,5)              108.9044         -DE/DX =    0.0001              !
 ! A11   A(4,3,6)              110.3855         -DE/DX =   -0.0001              !
 ! A12   A(5,3,6)              109.2565         -DE/DX =   -0.0001              !
 ! A13   L(1,8,9,6,-1)         182.9429         -DE/DX =   -0.0001              !
 ! A14   L(1,8,9,6,-2)         145.7569         -DE/DX =   -0.0002              !
 ! D1    D(2,1,3,4)            151.759          -DE/DX =    0.0002              !
 ! D2    D(2,1,3,5)            -88.9251         -DE/DX =    0.0002              !
 ! D3    D(2,1,3,6)             29.2686         -DE/DX =    0.0001              !
 ! D4    D(7,1,3,4)            -43.0438         -DE/DX =   -0.0001              !
 ! D5    D(7,1,3,5)             76.2721         -DE/DX =    0.0                 !
 ! D6    D(7,1,3,6)           -165.5342         -DE/DX =   -0.0001              !
 ! D7    D(8,1,3,4)             53.2061         -DE/DX =   -0.0001              !
 ! D8    D(8,1,3,5)            172.522          -DE/DX =   -0.0001              !
 ! D9    D(8,1,3,6)            -69.2842         -DE/DX =   -0.0001              !
 --------------------------------------------------------------------------------
 Largest change from initial coordinates is atom    4       0.230 Angstoms.
 GradGradGradGradGradGradGradGradGradGradGradGradGradGradGradGradGradGrad

 Leave Link  103 at Wed Jan  8 00:13:32 2020, MaxMem=  4294967296 cpu:              77.8 elap:               5.6
 (Enter /home/cwagen/sw/g16/g16/l202.exe)
                          Input orientation:                          
 ---------------------------------------------------------------------
 Center     Atomic      Atomic             Coordinates (Angstroms)
 Number     Number       Type             X           Y           Z
 ---------------------------------------------------------------------
      1          6           0       -0.347542   -0.388449   -0.291895
      2          8           0       -0.137351   -0.544580   -1.459655
      3          6           0       -0.280324   -1.428733    0.788537
      4          1           0       -0.023332   -0.996357    1.754730
      5          1           0       -1.276472   -1.888882    0.859044
      6          1           0        0.449446   -2.190372    0.505516
      7         17           0       -1.194972    1.106399    0.244101
      8          6           0        2.129429    0.431199    0.402935
      9          7           0        3.257106    0.775524    0.344382
 ---------------------------------------------------------------------
                    Distance matrix (angstroms):
                    1          2          3          4          5
     1  C    0.000000
     2  O    1.196754   0.000000
     3  C    1.501346   2.420027   0.000000
     4  H    2.159476   3.247980   1.089276   0.000000
     5  H    2.106862   2.912234   1.099554   1.780229   0.000000
     6  H    2.125554   2.629612   1.092136   1.791571   1.787365
     7  Cl   1.800000   2.597514   2.749524   2.841887   3.058840
     8  C    2.700000   3.091873   3.068378   2.915416   4.146200
     9  N    3.840986   4.064427   4.191591   3.986216   5.283679
                    6          7          8          9
     6  H    0.000000
     7  Cl   3.693393   0.000000
     8  C    3.115366   3.395993   0.000000
     9  N    4.087231   4.465483   1.180527   0.000000
 Stoichiometry    C3H3ClNO(1-)
 Framework group  C1[X(C3H3ClNO)]
 Deg. of freedom    21
 Full point group                 C1      NOp   1
 RotChk:  IX=0 Diff= 1.72D-15
 Largest Abelian subgroup         C1      NOp   1
 Largest concise Abelian subgroup C1      NOp   1
                         Standard orientation:                         
 ---------------------------------------------------------------------
 Center     Atomic      Atomic             Coordinates (Angstroms)
 Number     Number       Type             X           Y           Z
 ---------------------------------------------------------------------
      1          6           0       -0.584736    0.506105    0.261006
      2          8           0       -0.473721    0.798638    1.416134
      3          6           0       -0.503167    1.429397   -0.920061
      4          1           0       -0.146759    0.917654   -1.813154
      5          1           0       -1.518657    1.806684   -1.108358
      6          1           0        0.152720    2.267086   -0.673384
      7         17           0       -1.291508   -1.093848   -0.163993
      8          6           0        1.985131   -0.201447   -0.169285
      9          7           0        3.124962   -0.455636    0.003391
 ---------------------------------------------------------------------
 Rotational constants (GHZ):           3.5809837           1.6620075           1.4514809
 Leave Link  202 at Wed Jan  8 00:13:36 2020, MaxMem=  4294967296 cpu:               1.2 elap:               3.3
 (Enter /home/cwagen/sw/g16/g16/l601.exe)
 Copying SCF densities to generalized density rwf, IOpCl= 0 IROHF=0.

 **********************************************************************

            Population analysis using the SCF density.

 **********************************************************************

 Orbital symmetries:
       Occupied  (A) (A) (A) (A) (A) (A) (A) (A) (A) (A) (A) (A)
                 (A) (A) (A) (A) (A) (A) (A) (A) (A) (A) (A) (A)
                 (A) (A) (A)
       Virtual   (A) (A) (A) (A) (A) (A) (A) (A) (A) (A) (A) (A)
                 (A) (A) (A) (A) (A) (A) (A) (A) (A) (A) (A) (A)
                 (A) (A) (A) (A) (A) (A) (A) (A) (A) (A) (A) (A)
                 (A) (A) (A) (A) (A) (A) (A) (A) (A) (A) (A) (A)
                 (A) (A) (A) (A) (A) (A) (A) (A) (A) (A) (A) (A)
                 (A) (A) (A) (A) (A) (A) (A) (A) (A) (A) (A) (A)
                 (A) (A) (A) (A) (A) (A) (A) (A) (A) (A) (A) (A)
                 (A) (A) (A) (A) (A) (A) (A) (A) (A) (A) (A) (A)
                 (A)
 The electronic state is 1-A.
 Alpha  occ. eigenvalues -- -101.52745 -19.15789 -14.25853 -10.32209 -10.18304
 Alpha  occ. eigenvalues --  -10.12209  -9.44462  -7.20746  -7.19962  -7.19875
 Alpha  occ. eigenvalues --   -1.06652  -0.83045  -0.81448  -0.73086  -0.53685
 Alpha  occ. eigenvalues --   -0.46474  -0.44818  -0.44590  -0.38738  -0.36926
 Alpha  occ. eigenvalues --   -0.34857  -0.30504  -0.30165  -0.27306  -0.26446
 Alpha  occ. eigenvalues --   -0.26404  -0.22934
 Alpha virt. eigenvalues --   -0.01507   0.02293   0.04012   0.04939   0.05513
 Alpha virt. eigenvalues --    0.06064   0.08457   0.08852   0.09110   0.09557
 Alpha virt. eigenvalues --    0.10944   0.11360   0.11618   0.13404   0.13605
 Alpha virt. eigenvalues --    0.14350   0.14638   0.16473   0.19434   0.21651
 Alpha virt. eigenvalues --    0.22529   0.23551   0.24636   0.25670   0.26514
 Alpha virt. eigenvalues --    0.28378   0.28873   0.30175   0.32803   0.35207
 Alpha virt. eigenvalues --    0.36095   0.40143   0.44679   0.53091   0.57786
 Alpha virt. eigenvalues --    0.63032   0.64114   0.65826   0.67714   0.72279
 Alpha virt. eigenvalues --    0.73468   0.74801   0.76427   0.79109   0.82412
 Alpha virt. eigenvalues --    0.84409   0.86811   0.89848   0.91257   0.93905
 Alpha virt. eigenvalues --    0.98444   1.01450   1.03088   1.04251   1.05397
 Alpha virt. eigenvalues --    1.07051   1.12196   1.15455   1.21032   1.27114
 Alpha virt. eigenvalues --    1.28271   1.32688   1.34715   1.39288   1.46383
 Alpha virt. eigenvalues --    1.55982   1.58133   1.61558   1.62045   1.63484
 Alpha virt. eigenvalues --    1.64306   1.73081   1.78008   1.83185   1.85442
 Alpha virt. eigenvalues --    1.92237   2.03736   2.04146   2.07295   2.17844
 Alpha virt. eigenvalues --    2.23646   2.32113   2.42056   2.52029   2.55975
 Alpha virt. eigenvalues --    2.63794   2.66929   2.68233   2.87891   3.07973
 Alpha virt. eigenvalues --    3.12878   4.01929   4.19136   4.31081   4.32556
 Alpha virt. eigenvalues --    4.37652   4.48569
          Condensed to atoms (all electrons):
               1          2          3          4          5          6
     1  C    7.666334   0.283110  -1.379960  -0.102848   0.056368  -0.129811
     2  O    0.283110   8.144061   0.014098   0.007827  -0.009370   0.005316
     3  C   -1.379960   0.014098   6.797863   0.416244   0.294376   0.442056
     4  H   -0.102848   0.007827   0.416244   0.446902  -0.025917  -0.019864
     5  H    0.056368  -0.009370   0.294376  -0.025917   0.467462  -0.022734
     6  H   -0.129811   0.005316   0.442056  -0.019864  -0.022734   0.453805
     7  Cl  -0.784731  -0.065997   0.318901   0.020132  -0.018188   0.016720
     8  C    0.687859  -0.114146  -0.467279  -0.005880   0.006162  -0.001495
     9  N   -0.055374   0.002409   0.025721  -0.000075  -0.000075  -0.000166
               7          8          9
     1  C   -0.784731   0.687859  -0.055374
     2  O   -0.065997  -0.114146   0.002409
     3  C    0.318901  -0.467279   0.025721
     4  H    0.020132  -0.005880  -0.000075
     5  H   -0.018188   0.006162  -0.000075
     6  H    0.016720  -0.001495  -0.000166
     7  Cl  17.596267  -0.173841   0.006060
     8  C   -0.173841   5.664971   0.624467
     9  N    0.006060   0.624467   7.062186
 Mulliken charges:
               1
     1  C   -0.240948
     2  O   -0.267308
     3  C   -0.462019
     4  H    0.263479
     5  H    0.251916
     6  H    0.256174
     7  Cl   0.084677
     8  C   -0.220818
     9  N   -0.665153
 Sum of Mulliken charges =  -1.00000
 Mulliken charges with hydrogens summed into heavy atoms:
               1
     1  C   -0.240948
     2  O   -0.267308
     3  C    0.309550
     7  Cl   0.084677
     8  C   -0.220818
     9  N   -0.665153
 Electronic spatial extent (au):  <R**2>=            864.6433
 Charge=             -1.0000 electrons
 Dipole moment (field-independent basis, Debye):
    X=            -10.8007    Y=              3.2901    Z=             -2.5460  Tot=             11.5742
 Quadrupole moment (field-independent basis, Debye-Ang):
   XX=            -81.8172   YY=            -45.7469   ZZ=            -48.8966
   XY=              3.1727   XZ=              1.7338   YZ=             -3.2799
 Traceless Quadrupole moment (field-independent basis, Debye-Ang):
   XX=            -22.9969   YY=             13.0734   ZZ=              9.9236
   XY=              3.1727   XZ=              1.7338   YZ=             -3.2799
 Octapole moment (field-independent basis, Debye-Ang**2):
  XXX=           -141.2671  YYY=              6.3199  ZZZ=             -3.9198  XYY=            -12.9214
  XXY=             20.6731  XXZ=              0.7180  XZZ=             -8.3710  YZZ=             -0.9872
  YYZ=             -2.6709  XYZ=              1.5448
 Hexadecapole moment (field-independent basis, Debye-Ang**3):
 XXXX=          -1186.1586 YYYY=           -282.9705 ZZZZ=           -185.3716 XXXY=             59.8209
 XXXZ=              0.6527 YYYX=             15.8011 YYYZ=             -0.8400 ZZZX=              4.1605
 ZZZY=             -3.1907 XXYY=           -190.0887 XXZZ=           -168.4018 YYZZ=            -82.0314
 XXYZ=             -0.0626 YYXZ=              3.4108 ZZXY=              4.2224
 N-N= 2.428058505485D+02 E-N=-2.163261133029D+03  KE= 7.026936499001D+02
 No NMR shielding tensors so no spin-rotation constants.
 Leave Link  601 at Wed Jan  8 00:13:37 2020, MaxMem=  4294967296 cpu:              15.7 elap:               1.1
 (Enter /home/cwagen/sw/g16/g16/l9999.exe)


 I DO NOT KNOW WHAT I MAY APPEAR TO THE WORLD; BUT TO MYSELF
 I SEEM TO HAVE BEEN ONLY LIKE A BOY PLAYING ON THE SEASHORE,
 AND DIVERTING MYSELF IN NOW AND THEN FINDING A SMOOTHER PEBBLE
 OR A PRETTIER SHELL THAN ORDINARY, WHILST THE GREAT OCEAN OF
 TRUTH LAY ALL UNDISCOVERED BEFORE ME.
                                          -- NEWTON (1642-1726)
 Error termination request processed by link 9999.
 Error termination via Lnk1e in /home/cwagen/sw/g16/g16/l9999.exe at Wed Jan  8 00:13:37 2020.
 Job cpu time:       0 days  6 hours 35 minutes  4.5 seconds.
 Elapsed time:       0 days  0 hours 28 minutes 50.7 seconds.
 File lengths (MBytes):  RWF=     63 Int=      0 D2E=      0 Chk=      4 Scr=      1
