 Entering Gaussian System, Link 0=g16
 Input=scan_260_170.gjf
 Output=scan_260_170.out
 Initial command:
 /home/cwagen/sw/g16/g16/l1.exe "/scratch/users/cwagen/cwagen_scan_260_170/Gau-37682.inp" -scrdir="/scratch/users/cwagen/cwagen_scan_260_170/"
 Entering Link 1 = /home/cwagen/sw/g16/g16/l1.exe PID=     37683.
  
 Copyright (c) 1988,1990,1992,1993,1995,1998,2003,2009,2016,
            Gaussian, Inc.  All Rights Reserved.
  
 This is part of the Gaussian(R) 16 program.  It is based on
 the Gaussian(R) 09 system (copyright 2009, Gaussian, Inc.),
 the Gaussian(R) 03 system (copyright 2003, Gaussian, Inc.),
 the Gaussian(R) 98 system (copyright 1998, Gaussian, Inc.),
 the Gaussian(R) 94 system (copyright 1995, Gaussian, Inc.),
 the Gaussian 92(TM) system (copyright 1992, Gaussian, Inc.),
 the Gaussian 90(TM) system (copyright 1990, Gaussian, Inc.),
 the Gaussian 88(TM) system (copyright 1988, Gaussian, Inc.),
 the Gaussian 86(TM) system (copyright 1986, Carnegie Mellon
 University), and the Gaussian 82(TM) system (copyright 1983,
 Carnegie Mellon University). Gaussian is a federally registered
 trademark of Gaussian, Inc.
  
 This software contains proprietary and confidential information,
 including trade secrets, belonging to Gaussian, Inc.
  
 This software is provided under written license and may be
 used, copied, transmitted, or stored only in accord with that
 written license.
  
 The following legend is applicable only to US Government
 contracts under FAR:
  
                    RESTRICTED RIGHTS LEGEND
  
 Use, reproduction and disclosure by the US Government is
 subject to restrictions as set forth in subparagraphs (a)
 and (c) of the Commercial Computer Software - Restricted
 Rights clause in FAR 52.227-19.
  
 Gaussian, Inc.
 340 Quinnipiac St., Bldg. 40, Wallingford CT 06492
  
  
 ---------------------------------------------------------------
 Warning -- This program may not be used in any manner that
 competes with the business of Gaussian, Inc. or will provide
 assistance to any competitor of Gaussian, Inc.  The licensee
 of this program is prohibited from giving any competitor of
 Gaussian, Inc. access to this program.  By using this program,
 the user acknowledges that Gaussian, Inc. is engaged in the
 business of creating and licensing software in the field of
 computational chemistry and represents and warrants to the
 licensee that it is not a competitor of Gaussian, Inc. and that
 it will not use this program in any manner prohibited above.
 ---------------------------------------------------------------
  

 Cite this work as:
 Gaussian 16, Revision A.03,
 M. J. Frisch, G. W. Trucks, H. B. Schlegel, G. E. Scuseria, 
 M. A. Robb, J. R. Cheeseman, G. Scalmani, V. Barone, 
 G. A. Petersson, H. Nakatsuji, X. Li, M. Caricato, A. V. Marenich, 
 J. Bloino, B. G. Janesko, R. Gomperts, B. Mennucci, H. P. Hratchian, 
 J. V. Ortiz, A. F. Izmaylov, J. L. Sonnenberg, D. Williams-Young, 
 F. Ding, F. Lipparini, F. Egidi, J. Goings, B. Peng, A. Petrone, 
 T. Henderson, D. Ranasinghe, V. G. Zakrzewski, J. Gao, N. Rega, 
 G. Zheng, W. Liang, M. Hada, M. Ehara, K. Toyota, R. Fukuda, 
 J. Hasegawa, M. Ishida, T. Nakajima, Y. Honda, O. Kitao, H. Nakai, 
 T. Vreven, K. Throssell, J. A. Montgomery, Jr., J. E. Peralta, 
 F. Ogliaro, M. J. Bearpark, J. J. Heyd, E. N. Brothers, K. N. Kudin, 
 V. N. Staroverov, T. A. Keith, R. Kobayashi, J. Normand, 
 K. Raghavachari, A. P. Rendell, J. C. Burant, S. S. Iyengar, 
 J. Tomasi, M. Cossi, J. M. Millam, M. Klene, C. Adamo, R. Cammi, 
 J. W. Ochterski, R. L. Martin, K. Morokuma, O. Farkas, 
 J. B. Foresman, and D. J. Fox, Gaussian, Inc., Wallingford CT, 2016.
 
 ******************************************
 Gaussian 16:  AS64L-G16RevA.03 25-Dec-2016
                 8-Jan-2020 
 ******************************************
 %nprocshared=16
 Will use up to   16 processors via shared memory.
 %mem=32GB
 ----------------------------------------------------------------------
 #p opt=modredundant b3lyp/6-31+g(d) scrf=(smd, solvent=tetrahydrofuran
 )
 ----------------------------------------------------------------------
 1/18=120,19=15,26=3,38=1/1,3;
 2/9=110,12=2,17=6,18=5,40=1/2;
 3/5=1,6=6,7=11,11=2,25=1,30=1,70=32201,71=1,72=20,74=-5/1,2,3;
 4//1;
 5/5=2,38=5,53=20/2;
 6/7=2,8=2,9=2,10=2,28=1/1;
 7//1,2,3,16;
 1/18=20,19=15,26=3/3(2);
 2/9=110/2;
 99//99;
 2/9=110/2;
 3/5=1,6=6,7=11,11=2,25=1,30=1,70=32205,71=1,72=20,74=-5/1,2,3;
 4/5=5,16=3,69=1/1;
 5/5=2,38=5,53=20/2;
 7//1,2,3,16;
 1/18=20,19=15,26=3/3(-5);
 2/9=110/2;
 6/7=2,8=2,9=2,10=2,19=2,28=1/1;
 99/9=1/99;
 Leave Link    1 at Wed Jan  8 01:25:31 2020, MaxMem=  4294967296 cpu:               1.3 elap:               0.1
 (Enter /home/cwagen/sw/g16/g16/l101.exe)
 -----
 title
 -----
 Symbolic Z-matrix:
 Charge = -1 Multiplicity = 1
 6                    -0.19426  -0.292    -0.21291 
 8                    -0.25532  -0.66526  -1.45426 
 6                    -0.33095  -1.45422   0.81632 
 1                    -0.18039  -1.13044   1.85373 
 1                    -1.34067  -1.87301   0.71427 
 1                     0.39707  -2.23395   0.57058 
 17                   -1.75098   1.68284   0.44789 
 6                     1.38184   0.25991   0.10534 
 7                     2.51642   0.54021   0.13564 
 
 Add virtual bond connecting atoms Cl7        and C1         Dist= 4.91D+00.
 The following ModRedundant input section has been read:
 B       1       7 F                                                           
 B       1       8 F                                                           
 
 ITRead=  0  0  0  0  0  0  0  0  0
 MicOpt= -1 -1 -1 -1 -1 -1 -1 -1 -1
 NAtoms=      9 NQM=        9 NQMF=       0 NMMI=      0 NMMIF=      0
                NMic=       0 NMicF=      0.
                    Isotopes and Nuclear Properties:
 (Nuclear quadrupole moments (NQMom) in fm**2, nuclear magnetic moments (NMagM)
  in nuclear magnetons)

  Atom         1           2           3           4           5           6           7           8           9
 IAtWgt=          12          16          12           1           1           1          35          12          14
 AtmWgt=  12.0000000  15.9949146  12.0000000   1.0078250   1.0078250   1.0078250  34.9688527  12.0000000  14.0030740
 NucSpn=           0           0           0           1           1           1           3           0           2
 AtZEff=   0.0000000   0.0000000   0.0000000   0.0000000   0.0000000   0.0000000   0.0000000   0.0000000   0.0000000
 NQMom=    0.0000000   0.0000000   0.0000000   0.0000000   0.0000000   0.0000000  -8.1650000   0.0000000   2.0440000
 NMagM=    0.0000000   0.0000000   0.0000000   2.7928460   2.7928460   2.7928460   0.8218740   0.0000000   0.4037610
 AtZNuc=   6.0000000   8.0000000   6.0000000   1.0000000   1.0000000   1.0000000  17.0000000   6.0000000   7.0000000
 Leave Link  101 at Wed Jan  8 01:25:31 2020, MaxMem=  4294967296 cpu:               7.2 elap:               0.6
 (Enter /home/cwagen/sw/g16/g16/l103.exe)

 GradGradGradGradGradGradGradGradGradGradGradGradGradGradGradGradGradGrad
 Berny optimization.
 Initialization pass.
                           ----------------------------
                           !    Initial Parameters    !
                           ! (Angstroms and Degrees)  !
 --------------------------                            --------------------------
 ! Name  Definition              Value          Derivative Info.                !
 --------------------------------------------------------------------------------
 ! R1    R(1,2)                  1.2977         estimate D2E/DX2                !
 ! R2    R(1,3)                  1.5584         estimate D2E/DX2                !
 ! R3    R(1,7)                  2.6            Frozen                          !
 ! R4    R(1,8)                  1.7            Frozen                          !
 ! R5    R(3,4)                  1.0971         estimate D2E/DX2                !
 ! R6    R(3,5)                  1.0979         estimate D2E/DX2                !
 ! R7    R(3,6)                  1.0947         estimate D2E/DX2                !
 ! R8    R(8,9)                  1.1691         estimate D2E/DX2                !
 ! A1    A(2,1,3)              114.4006         estimate D2E/DX2                !
 ! A2    A(2,1,7)              115.6846         estimate D2E/DX2                !
 ! A3    A(2,1,8)              108.426          estimate D2E/DX2                !
 ! A4    A(3,1,7)              110.248          estimate D2E/DX2                !
 ! A5    A(3,1,8)              101.5248         estimate D2E/DX2                !
 ! A6    A(7,1,8)              105.1256         estimate D2E/DX2                !
 ! A7    A(1,3,4)              113.1005         estimate D2E/DX2                !
 ! A8    A(1,3,5)              107.683          estimate D2E/DX2                !
 ! A9    A(1,3,6)              108.9421         estimate D2E/DX2                !
 ! A10   A(4,3,5)              109.0662         estimate D2E/DX2                !
 ! A11   A(4,3,6)              109.3417         estimate D2E/DX2                !
 ! A12   A(5,3,6)              108.6067         estimate D2E/DX2                !
 ! A13   L(1,8,9,6,-1)         177.5628         estimate D2E/DX2                !
 ! A14   L(1,8,9,6,-2)         167.0914         estimate D2E/DX2                !
 ! D1    D(2,1,3,4)            174.4714         estimate D2E/DX2                !
 ! D2    D(2,1,3,5)            -64.9488         estimate D2E/DX2                !
 ! D3    D(2,1,3,6)             52.6633         estimate D2E/DX2                !
 ! D4    D(7,1,3,4)            -53.1046         estimate D2E/DX2                !
 ! D5    D(7,1,3,5)             67.4752         estimate D2E/DX2                !
 ! D6    D(7,1,3,6)           -174.9127         estimate D2E/DX2                !
 ! D7    D(8,1,3,4)             57.938          estimate D2E/DX2                !
 ! D8    D(8,1,3,5)            178.5177         estimate D2E/DX2                !
 ! D9    D(8,1,3,6)            -63.8702         estimate D2E/DX2                !
 --------------------------------------------------------------------------------
 Trust Radius=3.00D-01 FncErr=1.00D-07 GrdErr=1.00D-06 EigMax=2.50D+02 EigMin=1.00D-04
 Number of steps in this run=     41 maximum allowed number of steps=    100.
 GradGradGradGradGradGradGradGradGradGradGradGradGradGradGradGradGradGrad

 Leave Link  103 at Wed Jan  8 01:25:31 2020, MaxMem=  4294967296 cpu:               0.6 elap:               0.1
 (Enter /home/cwagen/sw/g16/g16/l202.exe)
                          Input orientation:                          
 ---------------------------------------------------------------------
 Center     Atomic      Atomic             Coordinates (Angstroms)
 Number     Number       Type             X           Y           Z
 ---------------------------------------------------------------------
      1          6           0       -0.194263   -0.291999   -0.212908
      2          8           0       -0.255321   -0.665256   -1.454255
      3          6           0       -0.330945   -1.454221    0.816316
      4          1           0       -0.180394   -1.130438    1.853734
      5          1           0       -1.340665   -1.873010    0.714272
      6          1           0        0.397068   -2.233949    0.570583
      7         17           0       -1.750985    1.682835    0.447885
      8          6           0        1.381844    0.259912    0.105339
      9          7           0        2.516415    0.540210    0.135642
 ---------------------------------------------------------------------
                    Distance matrix (angstroms):
                    1          2          3          4          5
     1  C    0.000000
     2  O    1.297687   0.000000
     3  C    1.558443   2.404928   0.000000
     4  H    2.230287   3.341377   1.097150   0.000000
     5  H    2.161827   2.709087   1.097876   1.787740   0.000000
     6  H    2.175937   2.643176   1.094698   1.788205   1.780629
     7  Cl   2.600000   3.371747   3.463145   3.515348   3.589340
     8  C    1.700000   2.443067   2.525349   2.725903   3.511725
     9  N    2.856892   3.415178   3.542391   3.607726   4.586448
                    6          7          8          9
     6  H    0.000000
     7  Cl   4.468824   0.000000
     8  C    2.721319   3.457841   0.000000
     9  N    3.518062   4.428746   1.169075   0.000000
 Stoichiometry    C3H3ClNO(1-)
 Framework group  C1[X(C3H3ClNO)]
 Deg. of freedom    21
 Full point group                 C1      NOp   1
 Largest Abelian subgroup         C1      NOp   1
 Largest concise Abelian subgroup C1      NOp   1
                         Standard orientation:                         
 ---------------------------------------------------------------------
 Center     Atomic      Atomic             Coordinates (Angstroms)
 Number     Number       Type             X           Y           Z
 ---------------------------------------------------------------------
      1          6           0        0.298055    0.490768    0.209524
      2          8           0        0.578362    0.972604    1.381383
      3          6           0        0.631857    1.445761   -0.975933
      4          1           0        0.477437    0.982574   -1.958454
      5          1           0       -0.018326    2.326050   -0.888264
      6          1           0        1.673499    1.770740   -0.887985
      7         17           0       -2.097497   -0.481700   -0.065496
      8          6           0        1.344266   -0.813009   -0.099681
      9          7           0        2.178982   -1.630347   -0.143772
 ---------------------------------------------------------------------
 Rotational constants (GHZ):           3.2827232           1.6627396           1.3945990
 Leave Link  202 at Wed Jan  8 01:25:32 2020, MaxMem=  4294967296 cpu:               1.1 elap:               0.1
 (Enter /home/cwagen/sw/g16/g16/l301.exe)
 Standard basis: 6-31+G(d) (6D, 7F)
 Ernie: Thresh=  0.10000D-02 Tol=  0.10000D-05 Strict=F.
 There are   124 symmetry adapted cartesian basis functions of A   symmetry.
 There are   124 symmetry adapted basis functions of A   symmetry.
   124 basis functions,   228 primitive gaussians,   124 cartesian basis functions
    27 alpha electrons       27 beta electrons
       nuclear repulsion energy       232.3268956584 Hartrees.
 IExCor=  402 DFT=T Ex+Corr=B3LYP ExCW=0 ScaHFX=  0.200000
 ScaDFX=  0.800000  0.720000  1.000000  0.810000 ScalE2=  1.000000  1.000000
 IRadAn=      5 IRanWt=     -1 IRanGd=            0 ICorTp=0 IEmpDi=  4
 NAtoms=    9 NActive=    9 NUniq=    9 SFac= 1.00D+00 NAtFMM=   60 NAOKFM=F Big=F
 Integral buffers will be    131072 words long.
 Raffenetti 2 integral format.
 Two-electron integral symmetry is turned on.
 ------------------------------------------------------------------------------
 Polarizable Continuum Model (PCM)
 =================================
 Model                : PCM.
 Atomic radii         : SMD-Coulomb.
 Polarization charges : Total charges.
 Charge compensation  : None.
 Solution method      : On-the-fly selection.
 Cavity type          : VdW (van der Waals Surface) (Alpha=1.000).
 Cavity algorithm     : GePol (No added spheres)
                        Default sphere list used, NSphG=    9.
                        Lebedev-Laikov grids with approx.  5.0 points / Ang**2.
                        Smoothing algorithm: York/Karplus (Gamma=1.0000).
                        Polarization charges: spherical gaussians, with
                                              point-specific exponents (IZeta= 3).
                        Self-potential: point-specific (ISelfS= 7).
                        Self-field    : sphere-specific E.n sum rule (ISelfD= 2).
 1st derivatives      : Analytical E(r).r(x)/FMM algorithm (CHGder, D1EAlg=3).
                        Cavity 1st derivative terms included.
 Solvent              : TetraHydroFuran, Eps=   7.425700 Eps(inf)=   1.974025
 ------------------------------------------------------------------------------
 Spheres list:
 ISph  on   Nord     Re0    Alpha      Xe            Ye            Ze
    1   C      1    1.8500  1.000      0.298055      0.490768      0.209524
    2   O      2    2.2940  1.000      0.578362      0.972604      1.381383
    3   C      3    1.8500  1.000      0.631857      1.445761     -0.975933
    4   H      4    1.2000  1.000      0.477437      0.982574     -1.958454
    5   H      5    1.2000  1.000     -0.018326      2.326050     -0.888264
    6   H      6    1.2000  1.000      1.673499      1.770740     -0.887985
    7  Cl      7    2.3800  1.000     -2.097497     -0.481700     -0.065496
    8   C      8    1.8500  1.000      1.344266     -0.813009     -0.099681
    9   N      9    1.8900  1.000      2.178982     -1.630347     -0.143772
 ------------------------------------------------------------------------------
 GePol: Number of generator spheres                  =       9
 GePol: Total number of spheres                      =       9
 GePol: Number of exposed spheres                    =       9 (100.00%)
 GePol: Number of points                             =    1226
 GePol: Average weight of points                     =       0.14
 GePol: Minimum weight of points                     =   0.10D-06
 GePol: Maximum weight of points                     =    0.18138
 GePol: Number of points with low weight             =      38
 GePol: Fraction of low-weight points (<1% of avg)   =       3.10%
 GePol: Cavity surface area                          =    166.855 Ang**2
 GePol: Cavity volume                                =    151.476 Ang**3
 ------------------------------------------------------------------------------
 Atomic radii for non-electrostatic terms: SMD-CDS.
 ------------------------------------------------------------------------------
 PCM non-electrostatic energy =        -0.0010235650 Hartrees.
 Nuclear repulsion after PCM non-electrostatic terms =      232.3258720933 Hartrees.
 Leave Link  301 at Wed Jan  8 01:25:32 2020, MaxMem=  4294967296 cpu:               2.2 elap:               0.2
 (Enter /home/cwagen/sw/g16/g16/l302.exe)
 NPDir=0 NMtPBC=     1 NCelOv=     1 NCel=       1 NClECP=     1 NCelD=      1
         NCelK=      1 NCelE2=     1 NClLst=     1 CellRange=     0.0.
 One-electron integrals computed using PRISM.
 One-electron integral symmetry used in STVInt
 NBasis=   124 RedAO= T EigKep=  7.85D-05  NBF=   124
 NBsUse=   124 1.00D-06 EigRej= -1.00D+00 NBFU=   124
 Precomputing XC quadrature grid using
 IXCGrd= 4 IRadAn=           5 IRanWt=          -1 IRanGd=           0 AccXCQ= 0.00D+00.
 Generated NRdTot=       0 NPtTot=           0 NUsed=           0 NTot=          32
 NSgBfM=   124   124   124   124   124 MxSgAt=     9 MxSgA2=     9.
 Leave Link  302 at Wed Jan  8 01:25:33 2020, MaxMem=  4294967296 cpu:              22.6 elap:               1.6
 (Enter /home/cwagen/sw/g16/g16/l303.exe)
 DipDrv:  MaxL=1.
 Leave Link  303 at Wed Jan  8 01:25:34 2020, MaxMem=  4294967296 cpu:               2.4 elap:               0.2
 (Enter /home/cwagen/sw/g16/g16/l401.exe)
 ExpMin= 4.38D-02 ExpMax= 2.52D+04 ExpMxC= 3.78D+03 IAcc=3 IRadAn=         5 AccDes= 0.00D+00
 Harris functional with IExCor=  402 and IRadAn=       5 diagonalized for initial guess.
 HarFok:  IExCor=  402 AccDes= 0.00D+00 IRadAn=         5 IDoV= 1 UseB2=F ITyADJ=14
 ICtDFT=  3500011 ScaDFX=  1.000000  1.000000  1.000000  1.000000
 FoFCou: FMM=F IPFlag=           0 FMFlag=      100000 FMFlg1=           0
         NFxFlg=           0 DoJE=T BraDBF=F KetDBF=T FulRan=T
         wScrn=  0.000000 ICntrl=       500 IOpCl=  0 I1Cent=   200000004 NGrid=           0
         NMat0=    1 NMatS0=      1 NMatT0=    0 NMatD0=    1 NMtDS0=    0 NMtDT0=    0
 Petite list used in FoFCou.
 Harris En= -706.382529477322    
 JPrj=0 DoOrth=F DoCkMO=F.
 Leave Link  401 at Wed Jan  8 01:25:34 2020, MaxMem=  4294967296 cpu:              10.2 elap:               0.7
 (Enter /home/cwagen/sw/g16/g16/l502.exe)
 Keep R1 ints in memory in canonical form, NReq=45236517.
 FoFCou: FMM=F IPFlag=           0 FMFlag=           0 FMFlg1=           0
         NFxFlg=           0 DoJE=F BraDBF=F KetDBF=F FulRan=T
         wScrn=  0.000000 ICntrl=       600 IOpCl=  0 I1Cent=           0 NGrid=           0
         NMat0=    1 NMatS0=   7750 NMatT0=    0 NMatD0=    1 NMtDS0=    0 NMtDT0=    0
 Symmetry not used in FoFCou.
 Two-electron integral symmetry not used.
 Closed shell SCF:
 Using DIIS extrapolation, IDIIS=  1040.
 NGot=  4294967296 LenX=  4264898079 LenY=  4264882262
 Requested convergence on RMS density matrix=1.00D-08 within 128 cycles.
 Requested convergence on MAX density matrix=1.00D-06.
 Requested convergence on             energy=1.00D-06.
 No special actions if energy rises.

 Cycle   1  Pass 1  IDiag  1:
 Inv3:  Mode=1 IEnd=     4509228.
 Iteration    1 A*A^-1 deviation from unit magnitude is 4.44D-15 for   1226.
 Iteration    1 A*A^-1 deviation from orthogonality  is 1.57D-15 for   1218    917.
 Iteration    1 A^-1*A deviation from unit magnitude is 4.22D-15 for   1226.
 Iteration    1 A^-1*A deviation from orthogonality  is 1.73D-15 for   1225   1068.
 E= -706.215777160425    
 DIIS: error= 2.28D-02 at cycle   1 NSaved=   1.
 NSaved= 1 IEnMin= 1 EnMin= -706.215777160425     IErMin= 1 ErrMin= 2.28D-02
 ErrMax= 2.28D-02  0.00D+00 EMaxC= 1.00D-01 BMatC= 2.10D-01 BMatP= 2.10D-01
 IDIUse=3 WtCom= 7.72D-01 WtEn= 2.28D-01
 Coeff-Com:  0.100D+01
 Coeff-En:   0.100D+01
 Coeff:      0.100D+01
 Gap=     0.175 Goal=   None    Shift=    0.000
 GapD=    0.175 DampG=1.000 DampE=0.500 DampFc=0.5000 IDamp=-1.
 Damping current iteration by 5.00D-01
 RMSDP=1.51D-02 MaxDP=4.43D-01              OVMax= 4.82D-01

 Cycle   2  Pass 1  IDiag  1:
 E= -706.162056893621     Delta-E=        0.053720266804 Rises=F Damp=T
 DIIS: error= 1.88D-02 at cycle   2 NSaved=   2.
 NSaved= 2 IEnMin= 1 EnMin= -706.215777160425     IErMin= 2 ErrMin= 1.88D-02
 ErrMax= 1.88D-02  0.00D+00 EMaxC= 1.00D-01 BMatC= 1.12D-01 BMatP= 2.10D-01
 IDIUse=3 WtCom= 8.12D-01 WtEn= 1.88D-01
 Coeff-Com:  0.404D+00 0.596D+00
 Coeff-En:   0.585D+00 0.415D+00
 Coeff:      0.438D+00 0.562D+00
 Gap=     0.144 Goal=   None    Shift=    0.000
 RMSDP=5.90D-03 MaxDP=2.02D-01 DE= 5.37D-02 OVMax= 2.66D-01

 Cycle   3  Pass 1  IDiag  1:
 E= -706.358996653995     Delta-E=       -0.196939760374 Rises=F Damp=F
 DIIS: error= 1.42D-02 at cycle   3 NSaved=   3.
 NSaved= 3 IEnMin= 3 EnMin= -706.358996653995     IErMin= 3 ErrMin= 1.42D-02
 ErrMax= 1.42D-02  0.00D+00 EMaxC= 1.00D-01 BMatC= 4.10D-02 BMatP= 1.12D-01
 IDIUse=3 WtCom= 8.58D-01 WtEn= 1.42D-01
 Coeff-Com:  0.171D+00 0.366D+00 0.464D+00
 Coeff-En:   0.000D+00 0.000D+00 0.100D+01
 Coeff:      0.146D+00 0.314D+00 0.540D+00
 Gap=     0.171 Goal=   None    Shift=    0.000
 RMSDP=2.50D-03 MaxDP=5.27D-02 DE=-1.97D-01 OVMax= 7.46D-02

 Cycle   4  Pass 1  IDiag  1:
 E= -706.392575217441     Delta-E=       -0.033578563446 Rises=F Damp=F
 DIIS: error= 6.62D-03 at cycle   4 NSaved=   4.
 NSaved= 4 IEnMin= 4 EnMin= -706.392575217441     IErMin= 4 ErrMin= 6.62D-03
 ErrMax= 6.62D-03  0.00D+00 EMaxC= 1.00D-01 BMatC= 8.20D-03 BMatP= 4.10D-02
 IDIUse=3 WtCom= 9.34D-01 WtEn= 6.62D-02
 Coeff-Com:  0.485D-01 0.933D-01 0.315D+00 0.543D+00
 Coeff-En:   0.000D+00 0.000D+00 0.160D+00 0.840D+00
 Coeff:      0.453D-01 0.871D-01 0.305D+00 0.563D+00
 Gap=     0.168 Goal=   None    Shift=    0.000
 RMSDP=1.08D-03 MaxDP=2.36D-02 DE=-3.36D-02 OVMax= 3.53D-02

 Cycle   5  Pass 1  IDiag  1:
 E= -706.397605987109     Delta-E=       -0.005030769668 Rises=F Damp=F
 DIIS: error= 3.03D-03 at cycle   5 NSaved=   5.
 NSaved= 5 IEnMin= 5 EnMin= -706.397605987109     IErMin= 5 ErrMin= 3.03D-03
 ErrMax= 3.03D-03  0.00D+00 EMaxC= 1.00D-01 BMatC= 2.17D-03 BMatP= 8.20D-03
 IDIUse=3 WtCom= 9.70D-01 WtEn= 3.03D-02
 Coeff-Com:  0.776D-02 0.644D-02 0.149D+00 0.423D+00 0.415D+00
 Coeff-En:   0.000D+00 0.000D+00 0.000D+00 0.241D+00 0.759D+00
 Coeff:      0.752D-02 0.624D-02 0.144D+00 0.417D+00 0.425D+00
 Gap=     0.164 Goal=   None    Shift=    0.000
 RMSDP=4.95D-04 MaxDP=1.17D-02 DE=-5.03D-03 OVMax= 1.54D-02

 Cycle   6  Pass 1  IDiag  1:
 E= -706.399531818078     Delta-E=       -0.001925830969 Rises=F Damp=F
 DIIS: error= 5.14D-04 at cycle   6 NSaved=   6.
 NSaved= 6 IEnMin= 6 EnMin= -706.399531818078     IErMin= 6 ErrMin= 5.14D-04
 ErrMax= 5.14D-04  0.00D+00 EMaxC= 1.00D-01 BMatC= 9.60D-05 BMatP= 2.17D-03
 IDIUse=3 WtCom= 9.95D-01 WtEn= 5.14D-03
 Coeff-Com:  0.145D-02-0.371D-02 0.537D-01 0.170D+00 0.246D+00 0.532D+00
 Coeff-En:   0.000D+00 0.000D+00 0.000D+00 0.000D+00 0.000D+00 0.100D+01
 Coeff:      0.144D-02-0.370D-02 0.534D-01 0.170D+00 0.245D+00 0.535D+00
 Gap=     0.165 Goal=   None    Shift=    0.000
 RMSDP=8.69D-05 MaxDP=1.78D-03 DE=-1.93D-03 OVMax= 2.65D-03

 Cycle   7  Pass 1  IDiag  1:
 E= -706.399617903952     Delta-E=       -0.000086085874 Rises=F Damp=F
 DIIS: error= 1.45D-04 at cycle   7 NSaved=   7.
 NSaved= 7 IEnMin= 7 EnMin= -706.399617903952     IErMin= 7 ErrMin= 1.45D-04
 ErrMax= 1.45D-04  0.00D+00 EMaxC= 1.00D-01 BMatC= 4.03D-06 BMatP= 9.60D-05
 IDIUse=3 WtCom= 9.99D-01 WtEn= 1.45D-03
 Coeff-Com:  0.540D-03-0.282D-02 0.992D-02 0.280D-01 0.672D-01 0.202D+00
 Coeff-Com:  0.695D+00
 Coeff-En:   0.000D+00 0.000D+00 0.000D+00 0.000D+00 0.000D+00 0.000D+00
 Coeff-En:   0.100D+01
 Coeff:      0.539D-03-0.282D-02 0.991D-02 0.279D-01 0.671D-01 0.202D+00
 Coeff:      0.696D+00
 Gap=     0.164 Goal=   None    Shift=    0.000
 RMSDP=4.59D-05 MaxDP=1.31D-03 DE=-8.61D-05 OVMax= 8.15D-04

 Cycle   8  Pass 1  IDiag  1:
 E= -706.399621432143     Delta-E=       -0.000003528191 Rises=F Damp=F
 DIIS: error= 3.10D-05 at cycle   8 NSaved=   8.
 NSaved= 8 IEnMin= 8 EnMin= -706.399621432143     IErMin= 8 ErrMin= 3.10D-05
 ErrMax= 3.10D-05  0.00D+00 EMaxC= 1.00D-01 BMatC= 4.63D-07 BMatP= 4.03D-06
 IDIUse=1 WtCom= 1.00D+00 WtEn= 0.00D+00
 Coeff-Com:  0.303D-03-0.145D-02 0.261D-02 0.531D-02 0.231D-01 0.756D-01
 Coeff-Com:  0.356D+00 0.539D+00
 Coeff:      0.303D-03-0.145D-02 0.261D-02 0.531D-02 0.231D-01 0.756D-01
 Coeff:      0.356D+00 0.539D+00
 Gap=     0.164 Goal=   None    Shift=    0.000
 RMSDP=1.10D-05 MaxDP=3.19D-04 DE=-3.53D-06 OVMax= 3.84D-04

 Cycle   9  Pass 1  IDiag  1:
 E= -706.399621833260     Delta-E=       -0.000000401117 Rises=F Damp=F
 DIIS: error= 1.67D-05 at cycle   9 NSaved=   9.
 NSaved= 9 IEnMin= 9 EnMin= -706.399621833260     IErMin= 9 ErrMin= 1.67D-05
 ErrMax= 1.67D-05  0.00D+00 EMaxC= 1.00D-01 BMatC= 7.41D-08 BMatP= 4.63D-07
 IDIUse=1 WtCom= 1.00D+00 WtEn= 0.00D+00
 Coeff-Com:  0.122D-03-0.298D-03-0.531D-03-0.307D-02-0.856D-03-0.157D-02
 Coeff-Com:  0.343D-01 0.277D+00 0.695D+00
 Coeff:      0.122D-03-0.298D-03-0.531D-03-0.307D-02-0.856D-03-0.157D-02
 Coeff:      0.343D-01 0.277D+00 0.695D+00
 Gap=     0.164 Goal=   None    Shift=    0.000
 RMSDP=4.90D-06 MaxDP=1.17D-04 DE=-4.01D-07 OVMax= 1.43D-04

 Cycle  10  Pass 1  IDiag  1:
 E= -706.399621923220     Delta-E=       -0.000000089961 Rises=F Damp=F
 DIIS: error= 1.76D-06 at cycle  10 NSaved=  10.
 NSaved=10 IEnMin=10 EnMin= -706.399621923220     IErMin=10 ErrMin= 1.76D-06
 ErrMax= 1.76D-06  0.00D+00 EMaxC= 1.00D-01 BMatC= 7.58D-10 BMatP= 7.41D-08
 IDIUse=1 WtCom= 1.00D+00 WtEn= 0.00D+00
 Coeff-Com:  0.198D-04-0.262D-04-0.148D-03-0.637D-03-0.915D-03-0.332D-02
 Coeff-Com: -0.101D-01 0.328D-01 0.168D+00 0.814D+00
 Coeff:      0.198D-04-0.262D-04-0.148D-03-0.637D-03-0.915D-03-0.332D-02
 Coeff:     -0.101D-01 0.328D-01 0.168D+00 0.814D+00
 Gap=     0.164 Goal=   None    Shift=    0.000
 RMSDP=7.14D-07 MaxDP=1.77D-05 DE=-9.00D-08 OVMax= 2.33D-05

 Cycle  11  Pass 1  IDiag  1:
 E= -706.399621924178     Delta-E=       -0.000000000958 Rises=F Damp=F
 DIIS: error= 6.92D-07 at cycle  11 NSaved=  11.
 NSaved=11 IEnMin=11 EnMin= -706.399621924178     IErMin=11 ErrMin= 6.92D-07
 ErrMax= 6.92D-07  0.00D+00 EMaxC= 1.00D-01 BMatC= 1.54D-10 BMatP= 7.58D-10
 IDIUse=1 WtCom= 1.00D+00 WtEn= 0.00D+00
 Coeff-Com:  0.282D-05 0.100D-04-0.508D-04-0.164D-03-0.481D-03-0.173D-02
 Coeff-Com: -0.774D-02-0.321D-02 0.367D-01 0.399D+00 0.578D+00
 Coeff:      0.282D-05 0.100D-04-0.508D-04-0.164D-03-0.481D-03-0.173D-02
 Coeff:     -0.774D-02-0.321D-02 0.367D-01 0.399D+00 0.578D+00
 Gap=     0.164 Goal=   None    Shift=    0.000
 RMSDP=1.94D-07 MaxDP=4.96D-06 DE=-9.58D-10 OVMax= 4.42D-06

 Cycle  12  Pass 1  IDiag  1:
 E= -706.399621924361     Delta-E=       -0.000000000183 Rises=F Damp=F
 DIIS: error= 1.57D-07 at cycle  12 NSaved=  12.
 NSaved=12 IEnMin=12 EnMin= -706.399621924361     IErMin=12 ErrMin= 1.57D-07
 ErrMax= 1.57D-07  0.00D+00 EMaxC= 1.00D-01 BMatC= 4.69D-12 BMatP= 1.54D-10
 IDIUse=1 WtCom= 1.00D+00 WtEn= 0.00D+00
 Coeff-Com: -0.174D-05 0.519D-05 0.106D-05 0.199D-04-0.423D-04-0.154D-03
 Coeff-Com: -0.138D-02-0.454D-02-0.477D-02 0.538D-01 0.173D+00 0.784D+00
 Coeff:     -0.174D-05 0.519D-05 0.106D-05 0.199D-04-0.423D-04-0.154D-03
 Coeff:     -0.138D-02-0.454D-02-0.477D-02 0.538D-01 0.173D+00 0.784D+00
 Gap=     0.164 Goal=   None    Shift=    0.000
 RMSDP=6.37D-08 MaxDP=2.07D-06 DE=-1.83D-10 OVMax= 2.38D-06

 Cycle  13  Pass 1  IDiag  1:
 E= -706.399621924373     Delta-E=       -0.000000000011 Rises=F Damp=F
 DIIS: error= 2.82D-08 at cycle  13 NSaved=  13.
 NSaved=13 IEnMin=13 EnMin= -706.399621924373     IErMin=13 ErrMin= 2.82D-08
 ErrMax= 2.82D-08  0.00D+00 EMaxC= 1.00D-01 BMatC= 2.29D-13 BMatP= 4.69D-12
 IDIUse=1 WtCom= 1.00D+00 WtEn= 0.00D+00
 Coeff-Com: -0.448D-06 0.145D-06 0.175D-05 0.614D-05 0.197D-04 0.733D-04
 Coeff-Com:  0.261D-03-0.324D-03-0.286D-02-0.145D-01-0.238D-01 0.728D-01
 Coeff-Com:  0.968D+00
 Coeff:     -0.448D-06 0.145D-06 0.175D-05 0.614D-05 0.197D-04 0.733D-04
 Coeff:      0.261D-03-0.324D-03-0.286D-02-0.145D-01-0.238D-01 0.728D-01
 Coeff:      0.968D+00
 Gap=     0.164 Goal=   None    Shift=    0.000
 RMSDP=1.45D-08 MaxDP=2.80D-07 DE=-1.13D-11 OVMax= 7.36D-07

 Cycle  14  Pass 1  IDiag  1:
 E= -706.399621924371     Delta-E=        0.000000000002 Rises=F Damp=F
 DIIS: error= 5.09D-09 at cycle  14 NSaved=  14.
 NSaved=14 IEnMin=13 EnMin= -706.399621924373     IErMin=14 ErrMin= 5.09D-09
 ErrMax= 5.09D-09  0.00D+00 EMaxC= 1.00D-01 BMatC= 4.80D-15 BMatP= 2.29D-13
 IDIUse=1 WtCom= 1.00D+00 WtEn= 0.00D+00
 Coeff-Com:  0.438D-07-0.159D-06 0.953D-07-0.272D-06 0.272D-05 0.103D-04
 Coeff-Com:  0.616D-04 0.113D-03 0.924D-04-0.242D-02-0.753D-02-0.241D-01
 Coeff-Com:  0.470D-01 0.987D+00
 Coeff:      0.438D-07-0.159D-06 0.953D-07-0.272D-06 0.272D-05 0.103D-04
 Coeff:      0.616D-04 0.113D-03 0.924D-04-0.242D-02-0.753D-02-0.241D-01
 Coeff:      0.470D-01 0.987D+00
 Gap=     0.164 Goal=   None    Shift=    0.000
 RMSDP=3.19D-09 MaxDP=7.68D-08 DE= 1.93D-12 OVMax= 1.79D-07

 Error on total polarization charges =  0.02261
 SCF Done:  E(RB3LYP) =  -706.399621924     A.U. after   14 cycles
            NFock= 14  Conv=0.32D-08     -V/T= 2.0062
 KE= 7.020650525412D+02 PE=-2.142358268946D+03 EE= 5.015677223871D+02
 SMD-CDS (non-electrostatic) energy       (kcal/mol) =      -0.64
 (included in total energy above)
 Leave Link  502 at Wed Jan  8 01:26:06 2020, MaxMem=  4294967296 cpu:             456.3 elap:              31.9
 (Enter /home/cwagen/sw/g16/g16/l601.exe)
 Copying SCF densities to generalized density rwf, IOpCl= 0 IROHF=0.

 **********************************************************************

            Population analysis using the SCF density.

 **********************************************************************

 Orbital symmetries:
       Occupied  (A) (A) (A) (A) (A) (A) (A) (A) (A) (A) (A) (A)
                 (A) (A) (A) (A) (A) (A) (A) (A) (A) (A) (A) (A)
                 (A) (A) (A)
       Virtual   (A) (A) (A) (A) (A) (A) (A) (A) (A) (A) (A) (A)
                 (A) (A) (A) (A) (A) (A) (A) (A) (A) (A) (A) (A)
                 (A) (A) (A) (A) (A) (A) (A) (A) (A) (A) (A) (A)
                 (A) (A) (A) (A) (A) (A) (A) (A) (A) (A) (A) (A)
                 (A) (A) (A) (A) (A) (A) (A) (A) (A) (A) (A) (A)
                 (A) (A) (A) (A) (A) (A) (A) (A) (A) (A) (A) (A)
                 (A) (A) (A) (A) (A) (A) (A) (A) (A) (A) (A) (A)
                 (A) (A) (A) (A) (A) (A) (A) (A) (A) (A) (A) (A)
                 (A)
 The electronic state is 1-A.
 Alpha  occ. eigenvalues -- -101.45406 -19.14341 -14.33172 -10.32519 -10.22419
 Alpha  occ. eigenvalues --  -10.18472  -9.36694  -7.12727  -7.12348  -7.12344
 Alpha  occ. eigenvalues --   -1.00208  -0.89070  -0.73008  -0.70134  -0.58217
 Alpha  occ. eigenvalues --   -0.46699  -0.42456  -0.41426  -0.38815  -0.36363
 Alpha  occ. eigenvalues --   -0.34985  -0.32484  -0.32001  -0.25414  -0.24414
 Alpha  occ. eigenvalues --   -0.24032  -0.23860
 Alpha virt. eigenvalues --   -0.07445   0.01945   0.03466   0.04009   0.05161
 Alpha virt. eigenvalues --    0.06267   0.07014   0.08816   0.09284   0.09764
 Alpha virt. eigenvalues --    0.09956   0.10878   0.11353   0.13031   0.13485
 Alpha virt. eigenvalues --    0.14180   0.15049   0.16781   0.17075   0.20948
 Alpha virt. eigenvalues --    0.23292   0.24448   0.24544   0.26004   0.26355
 Alpha virt. eigenvalues --    0.27300   0.28762   0.29923   0.33535   0.34201
 Alpha virt. eigenvalues --    0.36057   0.37378   0.41921   0.61352   0.63887
 Alpha virt. eigenvalues --    0.65083   0.66863   0.67779   0.69106   0.72768
 Alpha virt. eigenvalues --    0.74489   0.75623   0.77405   0.79319   0.80939
 Alpha virt. eigenvalues --    0.82823   0.89094   0.93964   0.95584   0.96544
 Alpha virt. eigenvalues --    0.97254   0.98878   0.99148   1.00265   1.01855
 Alpha virt. eigenvalues --    1.06155   1.11305   1.13209   1.15425   1.24078
 Alpha virt. eigenvalues --    1.30904   1.32043   1.33558   1.39042   1.45564
 Alpha virt. eigenvalues --    1.46916   1.54577   1.56363   1.57450   1.63861
 Alpha virt. eigenvalues --    1.68877   1.70316   1.79440   1.85306   1.90557
 Alpha virt. eigenvalues --    1.94119   1.97578   2.01355   2.02222   2.12443
 Alpha virt. eigenvalues --    2.18496   2.25030   2.30797   2.42844   2.49401
 Alpha virt. eigenvalues --    2.66708   2.71438   2.74014   2.82565   2.98381
 Alpha virt. eigenvalues --    3.14597   4.07605   4.13890   4.30937   4.31564
 Alpha virt. eigenvalues --    4.39057   4.57149
          Condensed to atoms (all electrons):
               1          2          3          4          5          6
     1  C    5.498562   0.565830   0.118094  -0.083351  -0.082453   0.017474
     2  O    0.565830   8.182118  -0.153971   0.008964   0.002390  -0.013494
     3  C    0.118094  -0.153971   5.776729   0.374002   0.388180   0.368520
     4  H   -0.083351   0.008964   0.374002   0.475692  -0.020932  -0.029809
     5  H   -0.082453   0.002390   0.388180  -0.020932   0.466109  -0.023283
     6  H    0.017474  -0.013494   0.368520  -0.029809  -0.023283   0.458374
     7  Cl   0.127834  -0.037187  -0.087432   0.005006  -0.000809   0.000800
     8  C   -0.516670  -0.159672  -0.075487   0.032643   0.030973  -0.035445
     9  N   -0.066540  -0.010695   0.009915  -0.001358   0.000003  -0.000417
               7          8          9
     1  C    0.127834  -0.516670  -0.066540
     2  O   -0.037187  -0.159672  -0.010695
     3  C   -0.087432  -0.075487   0.009915
     4  H    0.005006   0.032643  -0.001358
     5  H   -0.000809   0.030973   0.000003
     6  H    0.000800  -0.035445  -0.000417
     7  Cl  17.686257  -0.019036  -0.012475
     8  C   -0.019036   5.965926   0.598645
     9  N   -0.012475   0.598645   7.052722
 Mulliken charges:
               1
     1  C    0.421220
     2  O   -0.384282
     3  C   -0.718550
     4  H    0.239144
     5  H    0.239823
     6  H    0.257280
     7  Cl  -0.662958
     8  C    0.178123
     9  N   -0.569800
 Sum of Mulliken charges =  -1.00000
 Mulliken charges with hydrogens summed into heavy atoms:
               1
     1  C    0.421220
     2  O   -0.384282
     3  C    0.017697
     7  Cl  -0.662958
     8  C    0.178123
     9  N   -0.569800
 Electronic spatial extent (au):  <R**2>=            885.4440
 Charge=             -1.0000 electrons
 Dipole moment (field-independent basis, Debye):
    X=              2.8872    Y=              4.3700    Z=             -2.9247  Tot=              5.9989
 Quadrupole moment (field-independent basis, Debye-Ang):
   XX=            -69.9913   YY=            -52.8216   ZZ=            -49.7675
   XY=              4.6840   XZ=             -1.9919   YZ=             -4.8202
 Traceless Quadrupole moment (field-independent basis, Debye-Ang):
   XX=            -12.4645   YY=              4.7052   ZZ=              7.7593
   XY=              4.6840   XZ=             -1.9919   YZ=             -4.8202
 Octapole moment (field-independent basis, Debye-Ang**2):
  XXX=             10.9145  YYY=             21.6131  ZZZ=             -5.5516  XYY=            -11.4655
  XXY=             29.9999  XXZ=              2.5019  XZZ=             -0.2064  YZZ=             -0.8937
  YYZ=             -2.5490  XYZ=             -3.7491
 Hexadecapole moment (field-independent basis, Debye-Ang**3):
 XXXX=           -862.8086 YYYY=           -370.7947 ZZZZ=           -189.6076 XXXY=             47.5118
 XXXZ=              2.7978 YYYX=             32.4506 YYYZ=             -7.8854 ZZZX=             -2.8610
 ZZZY=             -5.5455 XXYY=           -219.7252 XXZZ=           -158.6937 YYZZ=            -94.4126
 XXYZ=             -5.6611 YYXZ=              0.6124 ZZXY=              0.4968
 N-N= 2.323258720933D+02 E-N=-2.142358269001D+03  KE= 7.020650525412D+02
 No NMR shielding tensors so no spin-rotation constants.
 Leave Link  601 at Wed Jan  8 01:26:08 2020, MaxMem=  4294967296 cpu:              14.4 elap:               1.9
 (Enter /home/cwagen/sw/g16/g16/l701.exe)
 ... and contract with generalized density number  0.
 Compute integral first derivatives.
 D1PCM: PCM CHGder 1st derivatives, ID1Alg=3 FixD1E=F DoIter=F DoCFld=F I1PDM=0.
 GePol: Maximum number of non-zero 1st derivatives   =     382
 Leave Link  701 at Wed Jan  8 01:26:12 2020, MaxMem=  4294967296 cpu:              54.0 elap:               3.9
 (Enter /home/cwagen/sw/g16/g16/l702.exe)
 L702 exits ... SP integral derivatives will be done elsewhere.
 Leave Link  702 at Wed Jan  8 01:26:12 2020, MaxMem=  4294967296 cpu:               0.9 elap:               0.1
 (Enter /home/cwagen/sw/g16/g16/l703.exe)
 Integral derivatives from FoFJK, PRISM(SPDF).
 Compute integral first derivatives, UseDBF=F ICtDFT=           0.
 Calling FoFJK, ICntrl=      2127 FMM=F ISym2X=0 I1Cent= 0 IOpClX= 0 NMat=1 NMatS=1 NMatT=0.
 FoFJK:  IHMeth= 1 ICntrl=    2127 DoSepK=F KAlg= 0 I1Cent=           0 FoldK=F
 IRaf=         0 NMat=       1 IRICut=       1 DoRegI=T DoRafI=F ISym2E= 0 IDoP0=0 IntGTp=1.
 FoFCou: FMM=F IPFlag=           0 FMFlag=      100000 FMFlg1=         800
         NFxFlg=           0 DoJE=F BraDBF=F KetDBF=F FulRan=T
         wScrn=  0.000000 ICntrl=      2127 IOpCl=  0 I1Cent=           0 NGrid=           0
         NMat0=    1 NMatS0=      1 NMatT0=    0 NMatD0=    1 NMtDS0=    0 NMtDT0=    0
 Symmetry not used in FoFCou.
 Leave Link  703 at Wed Jan  8 01:26:15 2020, MaxMem=  4294967296 cpu:              30.3 elap:               2.4
 (Enter /home/cwagen/sw/g16/g16/l716.exe)
 Dipole        = 1.13591055D+00 1.71928367D+00-1.15065264D+00
 ***** Axes restored to original set *****
 -------------------------------------------------------------------
 Center     Atomic                   Forces (Hartrees/Bohr)
 Number     Number              X              Y              Z
 -------------------------------------------------------------------
      1        6           0.078372298   -0.070397403   -0.063741243
      2        8          -0.015361223    0.047025892    0.073487469
      3        6          -0.030893290    0.021389223    0.006287262
      4        1          -0.000722019    0.001280729   -0.002589339
      5        1           0.001328916   -0.001728968    0.002225653
      6        1           0.001899355    0.004662277   -0.004114927
      7       17           0.010520384   -0.012446838   -0.002243986
      8        6          -0.036922359    0.014209641   -0.011677645
      9        7          -0.008222062   -0.003994553    0.002366757
 -------------------------------------------------------------------
 Cartesian Forces:  Max     0.078372298 RMS     0.031377264
 Leave Link  716 at Wed Jan  8 01:26:15 2020, MaxMem=  4294967296 cpu:               1.0 elap:               0.1
 (Enter /home/cwagen/sw/g16/g16/l103.exe)

 GradGradGradGradGradGradGradGradGradGradGradGradGradGradGradGradGradGrad
 Berny optimization.
 FormGI is forming the generalized inverse of G from B-inverse, IUseBI=4.
 Internal  Forces:  Max     0.083109065 RMS     0.021967551
 Search for a local minimum.
 Step number   1 out of a maximum of   41
 All quantities printed in internal units (Hartrees-Bohrs-Radians)
 RMS Force = .21234D-01 SwitMx=.10000D-02 MixMth= 1
 Mixed Optimization -- RFO/linear search
 Second derivative matrix not updated -- first step.
 ITU=  0
     Eigenvalues ---    0.00230   0.04746   0.04746   0.05330   0.05908
     Eigenvalues ---    0.07453   0.10176   0.16000   0.16000   0.16000
     Eigenvalues ---    0.25000   0.25000   0.25000   0.26946   0.33918
     Eigenvalues ---    0.33999   0.34275   0.67840   1.220341000.00000
     Eigenvalues --- 1000.000001000.000001000.000001000.000001000.00000
     Eigenvalues --- 1000.000001000.000001000.000001000.000001000.00000
     Eigenvalues --- 1000.00000
 RFO step:  Lambda=-3.97236433D-02 EMin= 2.30000000D-03
 Linear search not attempted -- first point.
 Maximum step size (   0.300) exceeded in Quadratic search.
    -- Step size scaled by   0.897
 Iteration  1 RMS(Cart)=  0.09314833 RMS(Int)=  0.00864615
 Iteration  2 RMS(Cart)=  0.00835482 RMS(Int)=  0.00593585
 Iteration  3 RMS(Cart)=  0.00002427 RMS(Int)=  0.00593580
 Iteration  4 RMS(Cart)=  0.00000065 RMS(Int)=  0.00593580
 Iteration  1 RMS(Cart)=  0.00000000 RMS(Int)=  0.00000000
 ITry= 1 IFail=0 DXMaxC= 2.07D-01 DCOld= 1.00D+10 DXMaxT= 3.00D-01 DXLimC= 3.00D+00 Rises=F
 Variable       Old X    -DE/DX   Delta X   Delta X   Delta X     New X
                                 (Linear)    (Quad)   (Total)
    R1        2.45227  -0.08311   0.00000  -0.10385  -0.10385   2.34843
    R2        2.94503  -0.01532   0.00000  -0.04446  -0.04446   2.90057
    R3        4.91329  -0.01631   0.00000   0.00000   0.00000   4.91329
    R4        3.21253  -0.04022   0.00000   0.00000   0.00000   3.21253
    R5        2.07331  -0.00218   0.00000  -0.00514  -0.00514   2.06817
    R6        2.07468  -0.00077   0.00000  -0.00183  -0.00183   2.07285
    R7        2.06868  -0.00136   0.00000  -0.00318  -0.00318   2.06549
    R8        2.20923  -0.00888   0.00000  -0.00632  -0.00632   2.20291
    A1        1.99667   0.03770   0.00000   0.12430   0.11299   2.10966
    A2        2.01908  -0.01760   0.00000  -0.08885  -0.08485   1.93423
    A3        1.89239  -0.00954   0.00000   0.04764   0.02599   1.91838
    A4        1.92419  -0.02513   0.00000  -0.11122  -0.10616   1.81803
    A5        1.77194   0.03831   0.00000   0.14434   0.13116   1.90310
    A6        1.83479  -0.02099   0.00000  -0.09787  -0.09161   1.74318
    A7        1.97398  -0.00207   0.00000  -0.01021  -0.01053   1.96345
    A8        1.87942   0.00650   0.00000   0.03325   0.03343   1.91286
    A9        1.90140  -0.00947   0.00000  -0.04575  -0.04587   1.85553
   A10        1.90356  -0.00107   0.00000   0.00101   0.00097   1.90453
   A11        1.90837   0.00453   0.00000   0.01314   0.01250   1.92087
   A12        1.89554   0.00172   0.00000   0.00957   0.01003   1.90558
   A13        3.09905  -0.00537   0.00000  -0.05522  -0.05522   3.04384
   A14        2.91629   0.00379   0.00000   0.03897   0.03897   2.95526
    D1        3.04510   0.01355   0.00000   0.10122   0.10721  -3.13088
    D2       -1.13357   0.01537   0.00000   0.11886   0.12483  -1.00874
    D3        0.91915   0.01592   0.00000   0.12397   0.12949   1.04864
    D4       -0.92685  -0.00105   0.00000  -0.01793  -0.01687  -0.94371
    D5        1.17766   0.00077   0.00000  -0.00029   0.00075   1.17842
    D6       -3.05280   0.00132   0.00000   0.00482   0.00542  -3.04739
    D7        1.01121  -0.01557   0.00000  -0.09976  -0.10632   0.90489
    D8        3.11572  -0.01375   0.00000  -0.08212  -0.08870   3.02702
    D9       -1.11475  -0.01321   0.00000  -0.07701  -0.08403  -1.19878
         Item               Value     Threshold  Converged?
 Maximum Force            0.083109     0.000450     NO 
 RMS     Force            0.021234     0.000300     NO 
 Maximum Displacement     0.206943     0.001800     NO 
 RMS     Displacement     0.091222     0.001200     NO 
 Predicted change in Energy=-2.351735D-02
 Lowest energy point so far.  Saving SCF results.
 GradGradGradGradGradGradGradGradGradGradGradGradGradGradGradGradGradGrad

 Leave Link  103 at Wed Jan  8 01:26:19 2020, MaxMem=  4294967296 cpu:              52.0 elap:               4.0
 (Enter /home/cwagen/sw/g16/g16/l202.exe)
                          Input orientation:                          
 ---------------------------------------------------------------------
 Center     Atomic      Atomic             Coordinates (Angstroms)
 Number     Number       Type             X           Y           Z
 ---------------------------------------------------------------------
      1          6           0       -0.116805   -0.384734   -0.234293
      2          8           0       -0.252075   -0.628656   -1.445323
      3          6           0       -0.370968   -1.470001    0.820965
      4          1           0       -0.222389   -1.104473    1.841791
      5          1           0       -1.395659   -1.848260    0.720322
      6          1           0        0.332889   -2.278113    0.605983
      7         17           0       -1.657111    1.580544    0.490374
      8          6           0        1.405093    0.318059    0.048386
      9          7           0        2.519778    0.649719    0.128401
 ---------------------------------------------------------------------
                    Distance matrix (angstroms):
                    1          2          3          4          5
     1  C    0.000000
     2  O    1.242734   0.000000
     3  C    1.534918   2.420343   0.000000
     4  H    2.199840   3.321506   1.094428   0.000000
     5  H    2.165333   2.735916   1.096905   1.785350   0.000000
     6  H    2.119710   2.696432   1.093012   1.792481   1.784860
     7  Cl   2.600000   3.256011   3.327053   3.330776   3.446437
     8  C    1.700000   2.423559   2.635987   2.808665   3.603977
     9  N    2.855383   3.434242   3.650928   3.678638   4.681978
                    6          7          8          9
     6  H    0.000000
     7  Cl   4.343120   0.000000
     8  C    2.863676   3.341603   0.000000
     9  N    3.685481   4.294631   1.165729   0.000000
 Stoichiometry    C3H3ClNO(1-)
 Framework group  C1[X(C3H3ClNO)]
 Deg. of freedom    21
 Full point group                 C1      NOp   1
 RotChk:  IX=0 Diff= 1.05D-01
 Largest Abelian subgroup         C1      NOp   1
 Largest concise Abelian subgroup C1      NOp   1
                         Standard orientation:                         
 ---------------------------------------------------------------------
 Center     Atomic      Atomic             Coordinates (Angstroms)
 Number     Number       Type             X           Y           Z
 ---------------------------------------------------------------------
      1          6           0        0.347684    0.554802    0.220705
      2          8           0        0.511021    0.949496    1.387720
      3          6           0        0.437393    1.530664   -0.960658
      4          1           0        0.261083    1.040406   -1.923121
      5          1           0       -0.294792    2.336668   -0.828505
      6          1           0        1.445149    1.953039   -0.934144
      7         17           0       -1.980345   -0.568946   -0.057630
      8          6           0        1.354445   -0.780421   -0.085257
      9          7           0        2.189875   -1.583466   -0.212146
 ---------------------------------------------------------------------
 Rotational constants (GHZ):           3.1882661           1.7776263           1.4562126
 Leave Link  202 at Wed Jan  8 01:26:19 2020, MaxMem=  4294967296 cpu:               1.1 elap:               0.1
 (Enter /home/cwagen/sw/g16/g16/l301.exe)
 Standard basis: 6-31+G(d) (6D, 7F)
 Ernie: Thresh=  0.10000D-02 Tol=  0.10000D-05 Strict=F.
 There are   124 symmetry adapted cartesian basis functions of A   symmetry.
 There are   124 symmetry adapted basis functions of A   symmetry.
   124 basis functions,   228 primitive gaussians,   124 cartesian basis functions
    27 alpha electrons       27 beta electrons
       nuclear repulsion energy       235.4211172738 Hartrees.
 IExCor=  402 DFT=T Ex+Corr=B3LYP ExCW=0 ScaHFX=  0.200000
 ScaDFX=  0.800000  0.720000  1.000000  0.810000 ScalE2=  1.000000  1.000000
 IRadAn=      5 IRanWt=     -1 IRanGd=            0 ICorTp=0 IEmpDi=  4
 NAtoms=    9 NActive=    9 NUniq=    9 SFac= 1.00D+00 NAtFMM=   60 NAOKFM=F Big=F
 Integral buffers will be    131072 words long.
 Raffenetti 2 integral format.
 Two-electron integral symmetry is turned on.
 ------------------------------------------------------------------------------
 Polarizable Continuum Model (PCM)
 =================================
 Model                : PCM.
 Atomic radii         : SMD-Coulomb.
 Polarization charges : Total charges.
 Charge compensation  : None.
 Solution method      : On-the-fly selection.
 Cavity type          : VdW (van der Waals Surface) (Alpha=1.000).
 Cavity algorithm     : GePol (No added spheres)
                        Default sphere list used, NSphG=    9.
                        Lebedev-Laikov grids with approx.  5.0 points / Ang**2.
                        Smoothing algorithm: York/Karplus (Gamma=1.0000).
                        Polarization charges: spherical gaussians, with
                                              point-specific exponents (IZeta= 3).
                        Self-potential: point-specific (ISelfS= 7).
                        Self-field    : sphere-specific E.n sum rule (ISelfD= 2).
 1st derivatives      : Analytical E(r).r(x)/FMM algorithm (CHGder, D1EAlg=3).
                        Cavity 1st derivative terms included.
 Solvent              : TetraHydroFuran, Eps=   7.425700 Eps(inf)=   1.974025
 ------------------------------------------------------------------------------
 Spheres list:
 ISph  on   Nord     Re0    Alpha      Xe            Ye            Ze
    1   C      1    1.8500  1.000      0.347684      0.554802      0.220705
    2   O      2    2.2940  1.000      0.511021      0.949496      1.387720
    3   C      3    1.8500  1.000      0.437393      1.530664     -0.960658
    4   H      4    1.2000  1.000      0.261083      1.040406     -1.923121
    5   H      5    1.2000  1.000     -0.294792      2.336668     -0.828505
    6   H      6    1.2000  1.000      1.445149      1.953039     -0.934144
    7  Cl      7    2.3800  1.000     -1.980345     -0.568946     -0.057630
    8   C      8    1.8500  1.000      1.354445     -0.780421     -0.085257
    9   N      9    1.8900  1.000      2.189875     -1.583466     -0.212146
 ------------------------------------------------------------------------------
 GePol: Number of generator spheres                  =       9
 GePol: Total number of spheres                      =       9
 GePol: Number of exposed spheres                    =       9 (100.00%)
 GePol: Number of points                             =    1201
 GePol: Average weight of points                     =       0.14
 GePol: Minimum weight of points                     =   0.13D-10
 GePol: Maximum weight of points                     =    0.18138
 GePol: Number of points with low weight             =      24
 GePol: Fraction of low-weight points (<1% of avg)   =       2.00%
 GePol: Cavity surface area                          =    165.054 Ang**2
 GePol: Cavity volume                                =    150.065 Ang**3
 ------------------------------------------------------------------------------
 Atomic radii for non-electrostatic terms: SMD-CDS.
 ------------------------------------------------------------------------------
 PCM non-electrostatic energy =        -0.0011109703 Hartrees.
 Nuclear repulsion after PCM non-electrostatic terms =      235.4200063035 Hartrees.
 Leave Link  301 at Wed Jan  8 01:26:19 2020, MaxMem=  4294967296 cpu:               2.0 elap:               0.2
 (Enter /home/cwagen/sw/g16/g16/l302.exe)
 NPDir=0 NMtPBC=     1 NCelOv=     1 NCel=       1 NClECP=     1 NCelD=      1
         NCelK=      1 NCelE2=     1 NClLst=     1 CellRange=     0.0.
 One-electron integrals computed using PRISM.
 One-electron integral symmetry used in STVInt
 NBasis=   124 RedAO= T EigKep=  7.21D-05  NBF=   124
 NBsUse=   124 1.00D-06 EigRej= -1.00D+00 NBFU=   124
 Precomputing XC quadrature grid using
 IXCGrd= 4 IRadAn=           5 IRanWt=          -1 IRanGd=           0 AccXCQ= 0.00D+00.
 Generated NRdTot=       0 NPtTot=           0 NUsed=           0 NTot=          32
 NSgBfM=   124   124   124   124   124 MxSgAt=     9 MxSgA2=     9.
 Leave Link  302 at Wed Jan  8 01:26:21 2020, MaxMem=  4294967296 cpu:              24.0 elap:               1.8
 (Enter /home/cwagen/sw/g16/g16/l303.exe)
 DipDrv:  MaxL=1.
 Leave Link  303 at Wed Jan  8 01:26:23 2020, MaxMem=  4294967296 cpu:               2.8 elap:               1.5
 (Enter /home/cwagen/sw/g16/g16/l401.exe)
 Initial guess from the checkpoint file:  "/scratch/users/cwagen/cwagen_scan_260_170/Gau-37683.chk"
 B after Tr=     0.000000    0.000000    0.000000
         Rot=    0.999586   -0.010960   -0.007862   -0.025427 Ang=  -3.30 deg.
 Guess basis will be translated and rotated to current coordinates.
 JPrj=2 DoOrth=T DoCkMO=T.
 Generating alternative initial guess.
 ExpMin= 4.38D-02 ExpMax= 2.52D+04 ExpMxC= 3.78D+03 IAcc=2 IRadAn=         4 AccDes= 0.00D+00
 Harris functional with IExCor=  402 and IRadAn=       4 diagonalized for initial guess.
 HarFok:  IExCor=  402 AccDes= 0.00D+00 IRadAn=         4 IDoV= 1 UseB2=F ITyADJ=14
 ICtDFT=  3500011 ScaDFX=  1.000000  1.000000  1.000000  1.000000
 FoFCou: FMM=F IPFlag=           0 FMFlag=      100000 FMFlg1=           0
         NFxFlg=           0 DoJE=T BraDBF=F KetDBF=T FulRan=T
         wScrn=  0.000000 ICntrl=       500 IOpCl=  0 I1Cent=   200000004 NGrid=           0
         NMat0=    1 NMatS0=      1 NMatT0=    0 NMatD0=    1 NMtDS0=    0 NMtDT0=    0
 Petite list used in FoFCou.
 Harris En= -706.406747106546    
 Leave Link  401 at Wed Jan  8 01:26:24 2020, MaxMem=  4294967296 cpu:              18.8 elap:               1.4
 (Enter /home/cwagen/sw/g16/g16/l502.exe)
 Keep R1 ints in memory in canonical form, NReq=45236517.
 FoFCou: FMM=F IPFlag=           0 FMFlag=           0 FMFlg1=           0
         NFxFlg=           0 DoJE=F BraDBF=F KetDBF=F FulRan=T
         wScrn=  0.000000 ICntrl=       600 IOpCl=  0 I1Cent=           0 NGrid=           0
         NMat0=    1 NMatS0=   7750 NMatT0=    0 NMatD0=    1 NMtDS0=    0 NMtDT0=    0
 Symmetry not used in FoFCou.
 Two-electron integral symmetry not used.
 Closed shell SCF:
 Using DIIS extrapolation, IDIIS=  1040.
 NGot=  4294967296 LenX=  4264898079 LenY=  4264882262
 Requested convergence on RMS density matrix=1.00D-08 within 128 cycles.
 Requested convergence on MAX density matrix=1.00D-06.
 Requested convergence on             energy=1.00D-06.
 No special actions if energy rises.

 Cycle   1  Pass 1  IDiag  1:
 Inv3:  Mode=1 IEnd=     4327203.
 Iteration    1 A*A^-1 deviation from unit magnitude is 4.77D-15 for   1191.
 Iteration    1 A*A^-1 deviation from orthogonality  is 2.31D-15 for   1191   1049.
 Iteration    1 A^-1*A deviation from unit magnitude is 4.33D-15 for   1191.
 Iteration    1 A^-1*A deviation from orthogonality  is 1.49D-15 for   1191   1049.
 E= -706.409184443580    
 DIIS: error= 4.51D-03 at cycle   1 NSaved=   1.
 NSaved= 1 IEnMin= 1 EnMin= -706.409184443580     IErMin= 1 ErrMin= 4.51D-03
 ErrMax= 4.51D-03  0.00D+00 EMaxC= 1.00D-01 BMatC= 9.86D-03 BMatP= 9.86D-03
 IDIUse=3 WtCom= 9.55D-01 WtEn= 4.51D-02
 Coeff-Com:  0.100D+01
 Coeff-En:   0.100D+01
 Coeff:      0.100D+01
 Gap=     0.561 Goal=   None    Shift=    0.000
 GapD=    0.561 DampG=2.000 DampE=1.000 DampFc=2.0000 IDamp=-1.
 RMSDP=2.40D-03 MaxDP=5.57D-02              OVMax= 4.48D-02

 Cycle   2  Pass 1  IDiag  1:
 E= -706.425403277256     Delta-E=       -0.016218833676 Rises=F Damp=F
 DIIS: error= 1.43D-03 at cycle   2 NSaved=   2.
 NSaved= 2 IEnMin= 2 EnMin= -706.425403277256     IErMin= 2 ErrMin= 1.43D-03
 ErrMax= 1.43D-03  0.00D+00 EMaxC= 1.00D-01 BMatC= 5.43D-04 BMatP= 9.86D-03
 IDIUse=3 WtCom= 9.86D-01 WtEn= 1.43D-02
 Coeff-Com:  0.360D-01 0.964D+00
 Coeff-En:   0.000D+00 0.100D+01
 Coeff:      0.355D-01 0.964D+00
 Gap=     0.187 Goal=   None    Shift=    0.000
 RMSDP=6.12D-04 MaxDP=1.09D-02 DE=-1.62D-02 OVMax= 1.85D-02

 Cycle   3  Pass 1  IDiag  1:
 E= -706.424855053919     Delta-E=        0.000548223337 Rises=F Damp=F
 DIIS: error= 2.42D-03 at cycle   3 NSaved=   3.
 NSaved= 3 IEnMin= 2 EnMin= -706.425403277256     IErMin= 2 ErrMin= 1.43D-03
 ErrMax= 2.42D-03  0.00D+00 EMaxC= 1.00D-01 BMatC= 1.24D-03 BMatP= 5.43D-04
 IDIUse=3 WtCom= 1.69D-01 WtEn= 8.31D-01
 Coeff-Com: -0.324D-01 0.626D+00 0.406D+00
 Coeff-En:   0.000D+00 0.653D+00 0.347D+00
 Coeff:     -0.547D-02 0.649D+00 0.357D+00
 Gap=     0.181 Goal=   None    Shift=    0.000
 RMSDP=4.32D-04 MaxDP=1.05D-02 DE= 5.48D-04 OVMax= 1.28D-02

 Cycle   4  Pass 1  IDiag  1:
 E= -706.425954805095     Delta-E=       -0.001099751177 Rises=F Damp=F
 DIIS: error= 4.73D-04 at cycle   4 NSaved=   4.
 NSaved= 4 IEnMin= 4 EnMin= -706.425954805095     IErMin= 4 ErrMin= 4.73D-04
 ErrMax= 4.73D-04  0.00D+00 EMaxC= 1.00D-01 BMatC= 5.07D-05 BMatP= 5.43D-04
 IDIUse=3 WtCom= 9.95D-01 WtEn= 4.73D-03
 Coeff-Com: -0.232D-01 0.277D+00 0.213D+00 0.533D+00
 Coeff-En:   0.000D+00 0.000D+00 0.000D+00 0.100D+01
 Coeff:     -0.231D-01 0.276D+00 0.212D+00 0.535D+00
 Gap=     0.180 Goal=   None    Shift=    0.000
 RMSDP=9.53D-05 MaxDP=1.67D-03 DE=-1.10D-03 OVMax= 2.22D-03

 Cycle   5  Pass 1  IDiag  1:
 E= -706.425993289441     Delta-E=       -0.000038484345 Rises=F Damp=F
 DIIS: error= 1.39D-04 at cycle   5 NSaved=   5.
 NSaved= 5 IEnMin= 5 EnMin= -706.425993289441     IErMin= 5 ErrMin= 1.39D-04
 ErrMax= 1.39D-04  0.00D+00 EMaxC= 1.00D-01 BMatC= 6.86D-06 BMatP= 5.07D-05
 IDIUse=3 WtCom= 9.99D-01 WtEn= 1.39D-03
 Coeff-Com: -0.638D-02 0.632D-01 0.664D-01 0.290D+00 0.587D+00
 Coeff-En:   0.000D+00 0.000D+00 0.000D+00 0.937D-01 0.906D+00
 Coeff:     -0.637D-02 0.631D-01 0.663D-01 0.290D+00 0.587D+00
 Gap=     0.181 Goal=   None    Shift=    0.000
 RMSDP=6.39D-05 MaxDP=2.74D-03 DE=-3.85D-05 OVMax= 1.08D-03

 Cycle   6  Pass 1  IDiag  1:
 E= -706.426000195697     Delta-E=       -0.000006906256 Rises=F Damp=F
 DIIS: error= 3.67D-05 at cycle   6 NSaved=   6.
 NSaved= 6 IEnMin= 6 EnMin= -706.426000195697     IErMin= 6 ErrMin= 3.67D-05
 ErrMax= 3.67D-05  0.00D+00 EMaxC= 1.00D-01 BMatC= 5.05D-07 BMatP= 6.86D-06
 IDIUse=1 WtCom= 1.00D+00 WtEn= 0.00D+00
 Coeff-Com: -0.129D-02 0.528D-02 0.126D-01 0.969D-01 0.289D+00 0.597D+00
 Coeff:     -0.129D-02 0.528D-02 0.126D-01 0.969D-01 0.289D+00 0.597D+00
 Gap=     0.181 Goal=   None    Shift=    0.000
 RMSDP=1.66D-05 MaxDP=7.32D-04 DE=-6.91D-06 OVMax= 2.81D-04

 Cycle   7  Pass 1  IDiag  1:
 E= -706.426000619992     Delta-E=       -0.000000424295 Rises=F Damp=F
 DIIS: error= 2.05D-05 at cycle   7 NSaved=   7.
 NSaved= 7 IEnMin= 7 EnMin= -706.426000619992     IErMin= 7 ErrMin= 2.05D-05
 ErrMax= 2.05D-05  0.00D+00 EMaxC= 1.00D-01 BMatC= 1.42D-07 BMatP= 5.05D-07
 IDIUse=1 WtCom= 1.00D+00 WtEn= 0.00D+00
 Coeff-Com:  0.866D-04-0.610D-02-0.159D-02 0.247D-01 0.119D+00 0.390D+00
 Coeff-Com:  0.474D+00
 Coeff:      0.866D-04-0.610D-02-0.159D-02 0.247D-01 0.119D+00 0.390D+00
 Coeff:      0.474D+00
 Gap=     0.181 Goal=   None    Shift=    0.000
 RMSDP=3.63D-06 MaxDP=8.51D-05 DE=-4.24D-07 OVMax= 1.51D-04

 Cycle   8  Pass 1  IDiag  1:
 E= -706.426000724534     Delta-E=       -0.000000104542 Rises=F Damp=F
 DIIS: error= 8.67D-06 at cycle   8 NSaved=   8.
 NSaved= 8 IEnMin= 8 EnMin= -706.426000724534     IErMin= 8 ErrMin= 8.67D-06
 ErrMax= 8.67D-06  0.00D+00 EMaxC= 1.00D-01 BMatC= 2.38D-08 BMatP= 1.42D-07
 IDIUse=1 WtCom= 1.00D+00 WtEn= 0.00D+00
 Coeff-Com:  0.246D-03-0.494D-02-0.315D-02 0.245D-02 0.390D-01 0.166D+00
 Coeff-Com:  0.327D+00 0.474D+00
 Coeff:      0.246D-03-0.494D-02-0.315D-02 0.245D-02 0.390D-01 0.166D+00
 Coeff:      0.327D+00 0.474D+00
 Gap=     0.181 Goal=   None    Shift=    0.000
 RMSDP=1.75D-06 MaxDP=4.08D-05 DE=-1.05D-07 OVMax= 4.78D-05

 Cycle   9  Pass 1  IDiag  1:
 E= -706.426000746597     Delta-E=       -0.000000022063 Rises=F Damp=F
 DIIS: error= 1.58D-06 at cycle   9 NSaved=   9.
 NSaved= 9 IEnMin= 9 EnMin= -706.426000746597     IErMin= 9 ErrMin= 1.58D-06
 ErrMax= 1.58D-06  0.00D+00 EMaxC= 1.00D-01 BMatC= 8.07D-10 BMatP= 2.38D-08
 IDIUse=1 WtCom= 1.00D+00 WtEn= 0.00D+00
 Coeff-Com:  0.871D-04-0.133D-02-0.134D-02-0.159D-02 0.356D-02 0.213D-01
 Coeff-Com:  0.817D-01 0.192D+00 0.706D+00
 Coeff:      0.871D-04-0.133D-02-0.134D-02-0.159D-02 0.356D-02 0.213D-01
 Coeff:      0.817D-01 0.192D+00 0.706D+00
 Gap=     0.181 Goal=   None    Shift=    0.000
 RMSDP=5.00D-07 MaxDP=1.47D-05 DE=-2.21D-08 OVMax= 1.54D-05

 Cycle  10  Pass 1  IDiag  1:
 E= -706.426000747604     Delta-E=       -0.000000001007 Rises=F Damp=F
 DIIS: error= 3.86D-07 at cycle  10 NSaved=  10.
 NSaved=10 IEnMin=10 EnMin= -706.426000747604     IErMin=10 ErrMin= 3.86D-07
 ErrMax= 3.86D-07  0.00D+00 EMaxC= 1.00D-01 BMatC= 5.65D-11 BMatP= 8.07D-10
 IDIUse=1 WtCom= 1.00D+00 WtEn= 0.00D+00
 Coeff-Com:  0.113D-04-0.227D-04-0.229D-03-0.750D-03-0.206D-02-0.780D-02
 Coeff-Com: -0.175D-02 0.310D-01 0.275D+00 0.707D+00
 Coeff:      0.113D-04-0.227D-04-0.229D-03-0.750D-03-0.206D-02-0.780D-02
 Coeff:     -0.175D-02 0.310D-01 0.275D+00 0.707D+00
 Gap=     0.181 Goal=   None    Shift=    0.000
 RMSDP=1.39D-07 MaxDP=4.34D-06 DE=-1.01D-09 OVMax= 3.91D-06

 Cycle  11  Pass 1  IDiag  1:
 E= -706.426000747679     Delta-E=       -0.000000000074 Rises=F Damp=F
 DIIS: error= 9.67D-08 at cycle  11 NSaved=  11.
 NSaved=11 IEnMin=11 EnMin= -706.426000747679     IErMin=11 ErrMin= 9.67D-08
 ErrMax= 9.67D-08  0.00D+00 EMaxC= 1.00D-01 BMatC= 1.75D-12 BMatP= 5.65D-11
 IDIUse=1 WtCom= 1.00D+00 WtEn= 0.00D+00
 Coeff-Com: -0.184D-05 0.712D-04 0.259D-04-0.127D-03-0.744D-03-0.316D-02
 Coeff-Com: -0.543D-02-0.196D-02 0.328D-01 0.176D+00 0.803D+00
 Coeff:     -0.184D-05 0.712D-04 0.259D-04-0.127D-03-0.744D-03-0.316D-02
 Coeff:     -0.543D-02-0.196D-02 0.328D-01 0.176D+00 0.803D+00
 Gap=     0.181 Goal=   None    Shift=    0.000
 RMSDP=6.06D-08 MaxDP=2.97D-06 DE=-7.42D-11 OVMax= 1.25D-06

 Cycle  12  Pass 1  IDiag  1:
 E= -706.426000747680     Delta-E=       -0.000000000002 Rises=F Damp=F
 DIIS: error= 2.36D-08 at cycle  12 NSaved=  12.
 NSaved=12 IEnMin=12 EnMin= -706.426000747680     IErMin=12 ErrMin= 2.36D-08
 ErrMax= 2.36D-08  0.00D+00 EMaxC= 1.00D-01 BMatC= 8.72D-14 BMatP= 1.75D-12
 IDIUse=1 WtCom= 1.00D+00 WtEn= 0.00D+00
 Coeff-Com: -0.752D-06 0.106D-04 0.162D-04 0.820D-05-0.255D-04-0.669D-04
 Coeff-Com: -0.850D-03-0.164D-02-0.766D-02-0.102D-01 0.140D+00 0.880D+00
 Coeff:     -0.752D-06 0.106D-04 0.162D-04 0.820D-05-0.255D-04-0.669D-04
 Coeff:     -0.850D-03-0.164D-02-0.766D-02-0.102D-01 0.140D+00 0.880D+00
 Gap=     0.181 Goal=   None    Shift=    0.000
 RMSDP=1.40D-08 MaxDP=5.03D-07 DE=-1.82D-12 OVMax= 4.13D-07

 Cycle  13  Pass 1  IDiag  1:
 E= -706.426000747679     Delta-E=        0.000000000002 Rises=F Damp=F
 DIIS: error= 8.20D-09 at cycle  13 NSaved=  13.
 NSaved=13 IEnMin=12 EnMin= -706.426000747680     IErMin=13 ErrMin= 8.20D-09
 ErrMax= 8.20D-09  0.00D+00 EMaxC= 1.00D-01 BMatC= 1.44D-14 BMatP= 8.72D-14
 IDIUse=1 WtCom= 1.00D+00 WtEn= 0.00D+00
 Coeff-Com: -0.152D-06-0.121D-05 0.393D-05 0.150D-04 0.518D-04 0.226D-03
 Coeff-Com:  0.103D-03-0.489D-03-0.557D-02-0.183D-01-0.809D-02 0.331D+00
 Coeff-Com:  0.701D+00
 Coeff:     -0.152D-06-0.121D-05 0.393D-05 0.150D-04 0.518D-04 0.226D-03
 Coeff:      0.103D-03-0.489D-03-0.557D-02-0.183D-01-0.809D-02 0.331D+00
 Coeff:      0.701D+00
 Gap=     0.181 Goal=   None    Shift=    0.000
 RMSDP=1.96D-09 MaxDP=3.30D-08 DE= 1.71D-12 OVMax= 9.71D-08

 Error on total polarization charges =  0.02317
 SCF Done:  E(RB3LYP) =  -706.426000748     A.U. after   13 cycles
            NFock= 13  Conv=0.20D-08     -V/T= 2.0059
 KE= 7.022486695755D+02 PE=-2.148785447646D+03 EE= 5.046907710198D+02
 SMD-CDS (non-electrostatic) energy       (kcal/mol) =      -0.70
 (included in total energy above)
 Leave Link  502 at Wed Jan  8 01:27:01 2020, MaxMem=  4294967296 cpu:             532.4 elap:              37.0
 (Enter /home/cwagen/sw/g16/g16/l701.exe)
 ... and contract with generalized density number  0.
 Compute integral first derivatives.
 D1PCM: PCM CHGder 1st derivatives, ID1Alg=3 FixD1E=F DoIter=F DoCFld=F I1PDM=0.
 GePol: Maximum number of non-zero 1st derivatives   =     377
 Leave Link  701 at Wed Jan  8 01:27:03 2020, MaxMem=  4294967296 cpu:              26.9 elap:               2.0
 (Enter /home/cwagen/sw/g16/g16/l702.exe)
 L702 exits ... SP integral derivatives will be done elsewhere.
 Leave Link  702 at Wed Jan  8 01:27:03 2020, MaxMem=  4294967296 cpu:               1.2 elap:               0.1
 (Enter /home/cwagen/sw/g16/g16/l703.exe)
 Integral derivatives from FoFJK, PRISM(SPDF).
 Compute integral first derivatives, UseDBF=F ICtDFT=           0.
 Calling FoFJK, ICntrl=      2127 FMM=F ISym2X=0 I1Cent= 0 IOpClX= 0 NMat=1 NMatS=1 NMatT=0.
 FoFJK:  IHMeth= 1 ICntrl=    2127 DoSepK=F KAlg= 0 I1Cent=           0 FoldK=F
 IRaf=         0 NMat=       1 IRICut=       1 DoRegI=T DoRafI=F ISym2E= 0 IDoP0=0 IntGTp=1.
 FoFCou: FMM=F IPFlag=           0 FMFlag=      100000 FMFlg1=         800
         NFxFlg=           0 DoJE=F BraDBF=F KetDBF=F FulRan=T
         wScrn=  0.000000 ICntrl=      2127 IOpCl=  0 I1Cent=           0 NGrid=           0
         NMat0=    1 NMatS0=      1 NMatT0=    0 NMatD0=    1 NMtDS0=    0 NMtDT0=    0
 Symmetry not used in FoFCou.
 Leave Link  703 at Wed Jan  8 01:27:06 2020, MaxMem=  4294967296 cpu:              34.3 elap:               2.3
 (Enter /home/cwagen/sw/g16/g16/l716.exe)
 Dipole        = 1.28601978D+00 2.06344798D+00-1.05633812D+00
 ***** Axes restored to original set *****
 -------------------------------------------------------------------
 Center     Atomic                   Forces (Hartrees/Bohr)
 Number     Number              X              Y              Z
 -------------------------------------------------------------------
      1        6           0.059187573   -0.028585317   -0.037231211
      2        8          -0.011819276    0.020066635    0.037081144
      3        6          -0.014383606    0.020490516    0.002957975
      4        1           0.000565465   -0.000063857   -0.001437964
      5        1           0.001735332    0.000597861   -0.000764209
      6        1           0.002236596   -0.000222760   -0.000830325
      7       17           0.005654847   -0.006061792   -0.000227649
      8        6          -0.040929805   -0.006135398    0.000949769
      9        7          -0.002247128   -0.000085887   -0.000497530
 -------------------------------------------------------------------
 Cartesian Forces:  Max     0.059187573 RMS     0.019301973
 Leave Link  716 at Wed Jan  8 01:27:06 2020, MaxMem=  4294967296 cpu:               1.3 elap:               0.1
 (Enter /home/cwagen/sw/g16/g16/l103.exe)

 GradGradGradGradGradGradGradGradGradGradGradGradGradGradGradGradGradGrad
 Berny optimization.
 Using GEDIIS/GDIIS optimizer.
 FormGI is forming the generalized inverse of G from B-inverse, IUseBI=4.
 Internal  Forces:  Max     0.041144014 RMS     0.012474837
 Search for a local minimum.
 Step number   2 out of a maximum of   41
 All quantities printed in internal units (Hartrees-Bohrs-Radians)
 RMS Force = .10285D-01 SwitMx=.10000D-02 MixMth= 1
 Mixed Optimization -- RFO/linear search
 Update second derivatives using D2CorX and points    1    2
 DE= -2.64D-02 DEPred=-2.35D-02 R= 1.12D+00
 TightC=F SS=  1.41D+00  RLast= 3.86D-01 DXNew= 5.0454D-01 1.1576D+00
 Trust test= 1.12D+00 RLast= 3.86D-01 DXMaxT set to 5.05D-01
 ITU=  1  0
 Use linear search instead of GDIIS.
     Eigenvalues ---    0.00230   0.04655   0.04749   0.05409   0.05782
     Eigenvalues ---    0.06005   0.09097   0.15973   0.16000   0.16253
     Eigenvalues ---    0.23990   0.25000   0.26080   0.29567   0.33931
     Eigenvalues ---    0.33991   0.34391   0.58125   1.220361000.00000
     Eigenvalues --- 1000.000001000.000001000.000001000.000001000.00000
     Eigenvalues --- 1000.000001000.000001000.000001000.000001000.00000
     Eigenvalues --- 1000.00000
 RFO step:  Lambda=-7.98368697D-03 EMin= 2.30248359D-03
 Quartic linear search produced a step of  0.83140.
 Iteration  1 RMS(Cart)=  0.12154502 RMS(Int)=  0.01589392
 Iteration  2 RMS(Cart)=  0.01441686 RMS(Int)=  0.01178593
 Iteration  3 RMS(Cart)=  0.00010170 RMS(Int)=  0.01178554
 Iteration  4 RMS(Cart)=  0.00000353 RMS(Int)=  0.01178554
 Iteration  5 RMS(Cart)=  0.00000010 RMS(Int)=  0.01178554
 Iteration  1 RMS(Cart)=  0.00000000 RMS(Int)=  0.00000000
 ITry= 1 IFail=0 DXMaxC= 3.03D-01 DCOld= 1.00D+10 DXMaxT= 5.05D-01 DXLimC= 3.00D+00 Rises=F
 Variable       Old X    -DE/DX   Delta X   Delta X   Delta X     New X
                                 (Linear)    (Quad)   (Total)
    R1        2.34843  -0.03879  -0.08634  -0.02124  -0.10757   2.24085
    R2        2.90057  -0.01316  -0.03696  -0.04779  -0.08475   2.81583
    R3        4.91329  -0.00799   0.00000   0.00000   0.00000   4.91329
    R4        3.21253  -0.04114   0.00000   0.00000   0.00000   3.21253
    R5        2.06817  -0.00130  -0.00428  -0.00244  -0.00672   2.06145
    R6        2.07285  -0.00176  -0.00153  -0.00782  -0.00934   2.06351
    R7        2.06549   0.00182  -0.00265   0.01241   0.00976   2.07526
    R8        2.20291  -0.00221  -0.00526   0.00156  -0.00369   2.19922
    A1        2.10966   0.01605   0.09394   0.03789   0.10253   2.21219
    A2        1.93423  -0.00603  -0.07054  -0.01582  -0.07461   1.85962
    A3        1.91838   0.00169   0.02161   0.11189   0.09385   2.01223
    A4        1.81803  -0.01372  -0.08826  -0.06314  -0.14114   1.67690
    A5        1.90310   0.00512   0.10904  -0.04181   0.03288   1.93598
    A6        1.74318  -0.00855  -0.07616  -0.05706  -0.12634   1.61684
    A7        1.96345  -0.00036  -0.00876   0.00706  -0.00199   1.96146
    A8        1.91286  -0.00038   0.02780  -0.03634  -0.00844   1.90442
    A9        1.85553  -0.00202  -0.03814   0.02208  -0.01624   1.83929
   A10        1.90453   0.00101   0.00081   0.01428   0.01506   1.91960
   A11        1.92087   0.00063   0.01039  -0.00841   0.00137   1.92225
   A12        1.90558   0.00110   0.00834   0.00088   0.00951   1.91509
   A13        3.04384   0.00146  -0.04591   0.13637   0.09046   3.13429
   A14        2.95526  -0.00023   0.03240  -0.06935  -0.03695   2.91831
    D1       -3.13088   0.01027   0.08913   0.06840   0.16627  -2.96460
    D2       -1.00874   0.01105   0.10378   0.06572   0.17816  -0.83058
    D3        1.04864   0.01102   0.10766   0.06019   0.17618   1.22482
    D4       -0.94371   0.00122  -0.01402   0.01684   0.00218  -0.94154
    D5        1.17842   0.00200   0.00063   0.01416   0.01407   1.19249
    D6       -3.04739   0.00197   0.00450   0.00863   0.01208  -3.03530
    D7        0.90489  -0.01240  -0.08839  -0.08923  -0.18524   0.71966
    D8        3.02702  -0.01162  -0.07374  -0.09191  -0.17334   2.85368
    D9       -1.19878  -0.01165  -0.06987  -0.09744  -0.17533  -1.37411
         Item               Value     Threshold  Converged?
 Maximum Force            0.038789     0.000450     NO 
 RMS     Force            0.010285     0.000300     NO 
 Maximum Displacement     0.302798     0.001800     NO 
 RMS     Displacement     0.123103     0.001200     NO 
 Predicted change in Energy=-1.440788D-02
 Lowest energy point so far.  Saving SCF results.
 GradGradGradGradGradGradGradGradGradGradGradGradGradGradGradGradGradGrad

 Leave Link  103 at Wed Jan  8 01:27:12 2020, MaxMem=  4294967296 cpu:              83.8 elap:               5.8
 (Enter /home/cwagen/sw/g16/g16/l202.exe)
                          Input orientation:                          
 ---------------------------------------------------------------------
 Center     Atomic      Atomic             Coordinates (Angstroms)
 Number     Number       Type             X           Y           Z
 ---------------------------------------------------------------------
      1          6           0       -0.038157   -0.513319   -0.291730
      2          8           0       -0.280672   -0.640472   -1.445489
      3          6           0       -0.389846   -1.461124    0.802936
      4          1           0       -0.214099   -1.036675    1.792359
      5          1           0       -1.437763   -1.751048    0.701980
      6          1           0        0.253765   -2.337280    0.647650
      7         17           0       -1.510433    1.452164    0.562248
      8          6           0        1.405840    0.311885    0.060280
      9          7           0        2.454119    0.809953    0.146375
 ---------------------------------------------------------------------
                    Distance matrix (angstroms):
                    1          2          3          4          5
     1  C    0.000000
     2  O    1.185808   0.000000
     3  C    1.490071   2.395998   0.000000
     4  H    2.155987   3.262678   1.090872   0.000000
     5  H    2.116206   2.680274   1.091961   1.787906   0.000000
     6  H    2.072314   2.747001   1.098179   1.794667   1.791058
     7  Cl   2.600000   3.149992   3.130638   3.063980   3.207082
     8  C    1.700000   2.453293   2.630511   2.728170   3.571211
     9  N    2.855595   3.480925   3.698242   3.638500   4.691926
                    6          7          8          9
     6  H    0.000000
     7  Cl   4.180858   0.000000
     8  C    2.947941   3.171255   0.000000
     9  N    3.872713   4.037704   1.163775   0.000000
 Stoichiometry    C3H3ClNO(1-)
 Framework group  C1[X(C3H3ClNO)]
 Deg. of freedom    21
 Full point group                 C1      NOp   1
 RotChk:  IX=0 Diff= 1.41D-01
 Largest Abelian subgroup         C1      NOp   1
 Largest concise Abelian subgroup C1      NOp   1
                         Standard orientation:                         
 ---------------------------------------------------------------------
 Center     Atomic      Atomic             Coordinates (Angstroms)
 Number     Number       Type             X           Y           Z
 ---------------------------------------------------------------------
      1          6           0        0.402665    0.670435    0.221126
      2          8           0        0.440409    1.067585    1.337813
      3          6           0        0.223983    1.489408   -1.010810
      4          1           0        0.047541    0.875995   -1.895454
      5          1           0       -0.608878    2.180050   -0.863388
      6          1           0        1.158821    2.054642   -1.123004
      7         17           0       -1.813781   -0.668206   -0.014260
      8          6           0        1.356285   -0.701034   -0.094598
      9          7           0        2.116562   -1.577817   -0.181791
 ---------------------------------------------------------------------
 Rotational constants (GHZ):           3.0878749           1.9880989           1.5606767
 Leave Link  202 at Wed Jan  8 01:27:12 2020, MaxMem=  4294967296 cpu:               1.3 elap:               0.1
 (Enter /home/cwagen/sw/g16/g16/l301.exe)
 Standard basis: 6-31+G(d) (6D, 7F)
 Ernie: Thresh=  0.10000D-02 Tol=  0.10000D-05 Strict=F.
 There are   124 symmetry adapted cartesian basis functions of A   symmetry.
 There are   124 symmetry adapted basis functions of A   symmetry.
   124 basis functions,   228 primitive gaussians,   124 cartesian basis functions
    27 alpha electrons       27 beta electrons
       nuclear repulsion energy       240.7827270565 Hartrees.
 IExCor=  402 DFT=T Ex+Corr=B3LYP ExCW=0 ScaHFX=  0.200000
 ScaDFX=  0.800000  0.720000  1.000000  0.810000 ScalE2=  1.000000  1.000000
 IRadAn=      5 IRanWt=     -1 IRanGd=            0 ICorTp=0 IEmpDi=  4
 NAtoms=    9 NActive=    9 NUniq=    9 SFac= 1.00D+00 NAtFMM=   60 NAOKFM=F Big=F
 Integral buffers will be    131072 words long.
 Raffenetti 2 integral format.
 Two-electron integral symmetry is turned on.
 ------------------------------------------------------------------------------
 Polarizable Continuum Model (PCM)
 =================================
 Model                : PCM.
 Atomic radii         : SMD-Coulomb.
 Polarization charges : Total charges.
 Charge compensation  : None.
 Solution method      : On-the-fly selection.
 Cavity type          : VdW (van der Waals Surface) (Alpha=1.000).
 Cavity algorithm     : GePol (No added spheres)
                        Default sphere list used, NSphG=    9.
                        Lebedev-Laikov grids with approx.  5.0 points / Ang**2.
                        Smoothing algorithm: York/Karplus (Gamma=1.0000).
                        Polarization charges: spherical gaussians, with
                                              point-specific exponents (IZeta= 3).
                        Self-potential: point-specific (ISelfS= 7).
                        Self-field    : sphere-specific E.n sum rule (ISelfD= 2).
 1st derivatives      : Analytical E(r).r(x)/FMM algorithm (CHGder, D1EAlg=3).
                        Cavity 1st derivative terms included.
 Solvent              : TetraHydroFuran, Eps=   7.425700 Eps(inf)=   1.974025
 ------------------------------------------------------------------------------
 Spheres list:
 ISph  on   Nord     Re0    Alpha      Xe            Ye            Ze
    1   C      1    1.8500  1.000      0.402665      0.670435      0.221126
    2   O      2    2.2940  1.000      0.440409      1.067585      1.337813
    3   C      3    1.8500  1.000      0.223983      1.489408     -1.010810
    4   H      4    1.2000  1.000      0.047541      0.875995     -1.895454
    5   H      5    1.2000  1.000     -0.608878      2.180050     -0.863388
    6   H      6    1.2000  1.000      1.158821      2.054642     -1.123004
    7  Cl      7    2.3800  1.000     -1.813781     -0.668206     -0.014260
    8   C      8    1.8500  1.000      1.356285     -0.701034     -0.094598
    9   N      9    1.8900  1.000      2.116562     -1.577817     -0.181791
 ------------------------------------------------------------------------------
 GePol: Number of generator spheres                  =       9
 GePol: Total number of spheres                      =       9
 GePol: Number of exposed spheres                    =       9 (100.00%)
 GePol: Number of points                             =    1192
 GePol: Average weight of points                     =       0.14
 GePol: Minimum weight of points                     =   0.37D-07
 GePol: Maximum weight of points                     =    0.18138
 GePol: Number of points with low weight             =      40
 GePol: Fraction of low-weight points (<1% of avg)   =       3.36%
 GePol: Cavity surface area                          =    161.412 Ang**2
 GePol: Cavity volume                                =    148.067 Ang**3
 ------------------------------------------------------------------------------
 Atomic radii for non-electrostatic terms: SMD-CDS.
 ------------------------------------------------------------------------------
 PCM non-electrostatic energy =        -0.0011129605 Hartrees.
[...]
      6        1          -0.000001922    0.000007110    0.000030039
      7       17          -0.003444502    0.005013904    0.002329889
      8        6          -0.035200392   -0.022199081   -0.008972230
      9        7           0.000013503   -0.000004300   -0.000065518
 -------------------------------------------------------------------
 Cartesian Forces:  Max     0.038615805 RMS     0.011682744
 Leave Link  716 at Wed Jan  8 01:31:49 2020, MaxMem=  4294967296 cpu:               1.3 elap:               0.1
 (Enter /home/cwagen/sw/g16/g16/l103.exe)

 GradGradGradGradGradGradGradGradGradGradGradGradGradGradGradGradGradGrad
 Berny optimization.
 Using GEDIIS/GDIIS optimizer.
 FormGI is forming the generalized inverse of G from B-inverse, IUseBI=4.
 Internal  Forces:  Max     0.042555990 RMS     0.007732517
 Search for a local minimum.
 Step number   9 out of a maximum of   41
 All quantities printed in internal units (Hartrees-Bohrs-Radians)
 RMS Force = .25080D-04 SwitMx=.10000D-02 MixMth= 2
 Mixed Optimization -- En-DIIS/RFO-DIIS
 Swapping is turned off.
 Update second derivatives using D2CorX and points    3    4    5    6    7
                                                      8    9
 DE= -5.24D-07 DEPred=-8.12D-07 R= 6.45D-01
 Trust test= 6.45D-01 RLast= 1.20D-02 DXMaxT set to 6.96D-01
 ITU=  0  1  1 -1  1  1  1  1  0
     Eigenvalues ---    0.00194   0.03866   0.04420   0.04856   0.05317
     Eigenvalues ---    0.05442   0.06074   0.16085   0.16096   0.16656
     Eigenvalues ---    0.21581   0.25000   0.28097   0.29948   0.33957
     Eigenvalues ---    0.34184   0.34439   0.82098   1.221531000.00000
     Eigenvalues --- 1000.000001000.000001000.000001000.000001000.00000
     Eigenvalues --- 1000.000001000.000001000.000001000.000001000.00000
     Eigenvalues --- 1000.00000
 En-DIIS/RFO-DIIS/Sim-DIIS IScMMF=       -3 using points:     9    8    7    6    5
 RFO step:  Lambda=-1.97272655D-06.
 NNeg= 0 NGDIIS= 5 SimSw=  2.50D-01 Rises=F DC= -5.24D-07 SmlDif=  1.00D-05
 NRisDI= 0 DoIntr=F SqrtH=F CThrHd= 10.0 CDAdj=  3.0
 RMS Error=  0.4121250877D-03 NUsed= 5 OKEnD=F EnDIS=F
 InvSVX:  RCond= 9.29D-08 Info=           0 Equed=N FErr=  5.78D-13 BErr=  4.98D-17
 DIIS inversion failure, remove point   5.
 InvSVX:  RCond= 1.33D-07 Info=           0 Equed=N FErr=  7.75D-13 BErr=  9.74D-17
 RFO-DIIS uses    4 points instead of    5
 DidBck=F Rises=F RFO-DIIS coefs:    1.39550   -0.55867    0.18292   -0.01976    0.00000
 Iteration  1 RMS(Cart)=  0.00052545 RMS(Int)=  0.00000024
 Iteration  2 RMS(Cart)=  0.00000020 RMS(Int)=  0.00000017
 Iteration  1 RMS(Cart)=  0.00000000 RMS(Int)=  0.00000000
 ITry= 1 IFail=0 DXMaxC= 1.34D-03 DCOld= 1.00D+10 DXMaxT= 6.96D-01 DXLimC= 3.00D+00 Rises=F
 Variable       Old X    -DE/DX   Delta X   Delta X   Delta X     New X
                                 (Linear)    (Quad)   (Total)
    R1        2.27375   0.00003   0.00006   0.00000   0.00006   2.27380
    R2        2.83231  -0.00002   0.00018  -0.00025  -0.00007   2.83223
    R3        4.91329   0.00652   0.00000   0.00000   0.00000   4.91329
    R4        3.21253  -0.04256   0.00000   0.00000   0.00000   3.21253
    R5        2.05915   0.00000  -0.00004   0.00003  -0.00001   2.05914
    R6        2.06543   0.00001   0.00001   0.00001   0.00002   2.06545
    R7        2.07950   0.00000   0.00000  -0.00002  -0.00002   2.07949
    R8        2.20147   0.00001   0.00000   0.00001   0.00001   2.20148
    A1        2.23222   0.00000  -0.00017   0.00009  -0.00009   2.23213
    A2        1.85192   0.00006   0.00038   0.00015   0.00052   1.85244
    A3        2.03318  -0.00004   0.00002  -0.00020  -0.00018   2.03300
    A4        1.64262  -0.00009  -0.00012  -0.00029  -0.00041   1.64221
    A5        1.94999   0.00004   0.00012   0.00011   0.00022   1.95022
    A6        1.53054   0.00002  -0.00018   0.00019   0.00000   1.53054
    A7        1.95518  -0.00001   0.00022  -0.00024  -0.00002   1.95517
    A8        1.91019   0.00000  -0.00013   0.00010  -0.00003   1.91015
    A9        1.86617   0.00000   0.00005  -0.00005   0.00000   1.86616
   A10        1.92542   0.00000  -0.00016   0.00014  -0.00002   1.92541
   A11        1.90497   0.00000   0.00008   0.00001   0.00010   1.90506
   A12        1.90030   0.00000  -0.00006   0.00003  -0.00003   1.90028
   A13        3.11382   0.00001   0.00020  -0.00007   0.00013   3.11395
   A14        2.97880  -0.00004  -0.00080  -0.00046  -0.00125   2.97755
    D1       -2.86709   0.00000  -0.00059  -0.00009  -0.00067  -2.86777
    D2       -0.72581   0.00000  -0.00074   0.00000  -0.00073  -0.72654
    D3        1.32988   0.00000  -0.00084   0.00006  -0.00078   1.32910
    D4       -0.87550   0.00001  -0.00026  -0.00012  -0.00038  -0.87588
    D5        1.26578   0.00001  -0.00041  -0.00002  -0.00043   1.26535
    D6       -2.96172   0.00001  -0.00052   0.00004  -0.00048  -2.96220
    D7        0.68053   0.00000  -0.00050  -0.00002  -0.00052   0.68000
    D8        2.82181   0.00000  -0.00065   0.00007  -0.00058   2.82123
    D9       -1.40569   0.00000  -0.00076   0.00013  -0.00063  -1.40632
         Item               Value     Threshold  Converged?
 Maximum Force            0.000086     0.000450     YES
 RMS     Force            0.000025     0.000300     YES
 Maximum Displacement     0.001337     0.001800     YES
 RMS     Displacement     0.000525     0.001200     YES
 Predicted change in Energy=-5.698643D-08
 Optimization completed.
    -- Stationary point found.
                           ----------------------------
                           !   Optimized Parameters   !
                           ! (Angstroms and Degrees)  !
 --------------------------                            --------------------------
 ! Name  Definition              Value          Derivative Info.                !
 --------------------------------------------------------------------------------
 ! R1    R(1,2)                  1.2032         -DE/DX =    0.0                 !
 ! R2    R(1,3)                  1.4988         -DE/DX =    0.0                 !
 ! R3    R(1,7)                  2.6            -DE/DX =    0.0065              !
 ! R4    R(1,8)                  1.7            -DE/DX =   -0.0426              !
 ! R5    R(3,4)                  1.0897         -DE/DX =    0.0                 !
 ! R6    R(3,5)                  1.093          -DE/DX =    0.0                 !
 ! R7    R(3,6)                  1.1004         -DE/DX =    0.0                 !
 ! R8    R(8,9)                  1.165          -DE/DX =    0.0                 !
 ! A1    A(2,1,3)              127.8969         -DE/DX =    0.0                 !
 ! A2    A(2,1,7)              106.1072         -DE/DX =    0.0001              !
 ! A3    A(2,1,8)              116.4926         -DE/DX =    0.0                 !
 ! A4    A(3,1,7)               94.115          -DE/DX =   -0.0001              !
 ! A5    A(3,1,8)              111.7265         -DE/DX =    0.0                 !
 ! A6    A(7,1,8)               87.6935         -DE/DX =    0.0                 !
 ! A7    A(1,3,4)              112.0236         -DE/DX =    0.0                 !
 ! A8    A(1,3,5)              109.4456         -DE/DX =    0.0                 !
 ! A9    A(1,3,6)              106.9235         -DE/DX =    0.0                 !
 ! A10   A(4,3,5)              110.3187         -DE/DX =    0.0                 !
 ! A11   A(4,3,6)              109.1466         -DE/DX =    0.0                 !
 ! A12   A(5,3,6)              108.8794         -DE/DX =    0.0                 !
 ! A13   L(1,8,9,6,-1)         178.4087         -DE/DX =    0.0                 !
 ! A14   L(1,8,9,6,-2)         170.6728         -DE/DX =    0.0                 !
 ! D1    D(2,1,3,4)           -164.2724         -DE/DX =    0.0                 !
 ! D2    D(2,1,3,5)            -41.5857         -DE/DX =    0.0                 !
 ! D3    D(2,1,3,6)             76.1963         -DE/DX =    0.0                 !
 ! D4    D(7,1,3,4)            -50.1626         -DE/DX =    0.0                 !
 ! D5    D(7,1,3,5)             72.524          -DE/DX =    0.0                 !
 ! D6    D(7,1,3,6)           -169.694          -DE/DX =    0.0                 !
 ! D7    D(8,1,3,4)             38.9913         -DE/DX =    0.0                 !
 ! D8    D(8,1,3,5)            161.678          -DE/DX =    0.0                 !
 ! D9    D(8,1,3,6)            -80.54           -DE/DX =    0.0                 !
 --------------------------------------------------------------------------------
 Lowest energy point so far.  Saving SCF results.
 Largest change from initial coordinates is atom    6       0.206 Angstoms.
 GradGradGradGradGradGradGradGradGradGradGradGradGradGradGradGradGradGrad

 Leave Link  103 at Wed Jan  8 01:31:51 2020, MaxMem=  4294967296 cpu:              40.8 elap:               2.8
 (Enter /home/cwagen/sw/g16/g16/l202.exe)
                          Input orientation:                          
 ---------------------------------------------------------------------
 Center     Atomic      Atomic             Coordinates (Angstroms)
 Number     Number       Type             X           Y           Z
 ---------------------------------------------------------------------
      1          6           0       -0.018945   -0.552489   -0.324701
      2          8           0       -0.311972   -0.647588   -1.487808
      3          6           0       -0.396031   -1.471287    0.797792
      4          1           0       -0.234499   -1.012743    1.772978
      5          1           0       -1.441473   -1.770456    0.687557
      6          1           0        0.241105   -2.364075    0.708766
      7         17           0       -1.392743    1.450117    0.603872
      8          6           0        1.386459    0.334502    0.033195
      9          7           0        2.410854    0.868102    0.184956
 ---------------------------------------------------------------------
                    Distance matrix (angstroms):
                    1          2          3          4          5
     1  C    0.000000
     2  O    1.203215   0.000000
     3  C    1.498792   2.430950   0.000000
     4  H    2.158369   3.282083   1.089653   0.000000
     5  H    2.128779   2.696075   1.092979   1.791383   0.000000
     6  H    2.101791   2.842034   1.100426   1.784614   1.784349
     7  Cl   2.600000   3.153341   3.092838   2.962097   3.222029
     8  C    1.700000   2.482462   2.650048   2.733024   3.585559
     9  N    2.860375   3.536839   3.704985   3.613487   4.696277
                    6          7          8          9
     6  H    0.000000
     7  Cl   4.150726   0.000000
     8  C    3.008413   3.048644   0.000000
     9  N    3.927997   3.870605   1.164966   0.000000
 Stoichiometry    C3H3ClNO(1-)
 Framework group  C1[X(C3H3ClNO)]
 Deg. of freedom    21
 Full point group                 C1      NOp   1
 RotChk:  IX=0 Diff= 1.08D-15
 Largest Abelian subgroup         C1      NOp   1
 Largest concise Abelian subgroup C1      NOp   1
                         Standard orientation:                         
 ---------------------------------------------------------------------
 Center     Atomic      Atomic             Coordinates (Angstroms)
 Number     Number       Type             X           Y           Z
 ---------------------------------------------------------------------
      1          6           0        0.443009    0.714265    0.212811
      2          8           0        0.463546    1.144960    1.336113
      3          6           0        0.214035    1.472253   -1.059746
      4          1           0       -0.023080    0.810618   -1.892428
      5          1           0       -0.589308    2.198336   -0.911267
      6          1           0        1.146118    2.013084   -1.282592
      7         17           0       -1.753352   -0.661981    0.008000
      8          6           0        1.293719   -0.731966   -0.060518
      9          7           0        1.980044   -1.665050   -0.184844
 ---------------------------------------------------------------------
 Rotational constants (GHZ):           2.9378034           2.1148087           1.6095937
 Leave Link  202 at Wed Jan  8 01:31:52 2020, MaxMem=  4294967296 cpu:               2.5 elap:               0.2
 (Enter /home/cwagen/sw/g16/g16/l601.exe)
 Copying SCF densities to generalized density rwf, IOpCl= 0 IROHF=0.

 **********************************************************************

            Population analysis using the SCF density.

 **********************************************************************

 Orbital symmetries:
       Occupied  (A) (A) (A) (A) (A) (A) (A) (A) (A) (A) (A) (A)
                 (A) (A) (A) (A) (A) (A) (A) (A) (A) (A) (A) (A)
                 (A) (A) (A)
       Virtual   (A) (A) (A) (A) (A) (A) (A) (A) (A) (A) (A) (A)
                 (A) (A) (A) (A) (A) (A) (A) (A) (A) (A) (A) (A)
                 (A) (A) (A) (A) (A) (A) (A) (A) (A) (A) (A) (A)
                 (A) (A) (A) (A) (A) (A) (A) (A) (A) (A) (A) (A)
                 (A) (A) (A) (A) (A) (A) (A) (A) (A) (A) (A) (A)
                 (A) (A) (A) (A) (A) (A) (A) (A) (A) (A) (A) (A)
                 (A) (A) (A) (A) (A) (A) (A) (A) (A) (A) (A) (A)
                 (A) (A) (A) (A) (A) (A) (A) (A) (A) (A) (A) (A)
                 (A)
 The electronic state is 1-A.
 Alpha  occ. eigenvalues -- -101.42622 -19.15208 -14.32904 -10.32014 -10.22117
 Alpha  occ. eigenvalues --  -10.18184  -9.34039  -7.09922  -7.09759  -7.09748
 Alpha  occ. eigenvalues --   -1.05629  -0.89066  -0.74590  -0.68185  -0.58368
 Alpha  occ. eigenvalues --   -0.48152  -0.43926  -0.43708  -0.39404  -0.36684
 Alpha  occ. eigenvalues --   -0.36372  -0.32861  -0.32763  -0.27107  -0.22496
 Alpha  occ. eigenvalues --   -0.22197  -0.22150
 Alpha virt. eigenvalues --   -0.02885   0.02366   0.03613   0.03882   0.05502
 Alpha virt. eigenvalues --    0.06818   0.06956   0.08600   0.09682   0.10082
 Alpha virt. eigenvalues --    0.10573   0.10753   0.11674   0.13422   0.13767
 Alpha virt. eigenvalues --    0.14215   0.14658   0.17276   0.17647   0.21163
 Alpha virt. eigenvalues --    0.23627   0.24571   0.25043   0.25445   0.26798
 Alpha virt. eigenvalues --    0.28607   0.29000   0.31531   0.32776   0.35348
 Alpha virt. eigenvalues --    0.37965   0.41337   0.47219   0.62591   0.63834
 Alpha virt. eigenvalues --    0.65039   0.66498   0.69598   0.70563   0.72232
 Alpha virt. eigenvalues --    0.75273   0.78372   0.79729   0.80489   0.81677
 Alpha virt. eigenvalues --    0.83320   0.89269   0.94272   0.97504   0.98326
 Alpha virt. eigenvalues --    0.98629   0.99641   1.01524   1.02065   1.03877
 Alpha virt. eigenvalues --    1.04976   1.09739   1.14567   1.17018   1.28007
 Alpha virt. eigenvalues --    1.31074   1.34182   1.34534   1.38094   1.44473
 Alpha virt. eigenvalues --    1.47626   1.54871   1.56121   1.60296   1.65572
 Alpha virt. eigenvalues --    1.70336   1.70974   1.81405   1.85629   1.91004
 Alpha virt. eigenvalues --    1.94638   1.97453   1.98876   2.06661   2.16466
 Alpha virt. eigenvalues --    2.24909   2.27775   2.37996   2.48255   2.58024
 Alpha virt. eigenvalues --    2.66765   2.76239   2.81731   2.91888   3.12971
 Alpha virt. eigenvalues --    3.19519   4.12347   4.16908   4.31790   4.36400
 Alpha virt. eigenvalues --    4.42279   4.60553
          Condensed to atoms (all electrons):
               1          2          3          4          5          6
     1  C    5.854389   0.613624   0.032309  -0.101158  -0.085633   0.023796
     2  O    0.613624   8.070804  -0.123674   0.008243   0.001448  -0.006899
     3  C    0.032309  -0.123674   5.874618   0.399177   0.396017   0.335154
     4  H   -0.101158   0.008243   0.399177   0.451354  -0.019644  -0.025545
     5  H   -0.085633   0.001448   0.396017  -0.019644   0.451312  -0.023579
     6  H    0.023796  -0.006899   0.335154  -0.025545  -0.023579   0.470916
     7  Cl   0.226560  -0.068062  -0.125425  -0.000964  -0.006148   0.005066
     8  C   -0.857537  -0.146705  -0.120372   0.032876   0.030036  -0.030542
     9  N   -0.037258  -0.004200  -0.016471   0.000616   0.000013  -0.000876
               7          8          9
     1  C    0.226560  -0.857537  -0.037258
     2  O   -0.068062  -0.146705  -0.004200
     3  C   -0.125425  -0.120372  -0.016471
     4  H   -0.000964   0.032876   0.000616
     5  H   -0.006148   0.030036   0.000013
     6  H    0.005066  -0.030542  -0.000876
     7  Cl  17.849066  -0.082472  -0.020389
     8  C   -0.082472   6.312800   0.590543
     9  N   -0.020389   0.590543   7.080896
 Mulliken charges:
               1
     1  C    0.330907
     2  O   -0.344578
     3  C   -0.651332
     4  H    0.255045
     5  H    0.256178
     6  H    0.252511
     7  Cl  -0.777232
     8  C    0.271375
     9  N   -0.592873
 Sum of Mulliken charges =  -1.00000
 Mulliken charges with hydrogens summed into heavy atoms:
               1
     1  C    0.330907
     2  O   -0.344578
     3  C    0.112401
     7  Cl  -0.777232
     8  C    0.271375
     9  N   -0.592873
 Electronic spatial extent (au):  <R**2>=            798.4141
 Charge=             -1.0000 electrons
 Dipole moment (field-independent basis, Debye):
    X=              3.4908    Y=              6.0423    Z=             -2.8786  Tot=              7.5486
 Quadrupole moment (field-independent basis, Debye-Ang):
   XX=            -66.5086   YY=            -54.1572   ZZ=            -48.5019
   XY=              2.3339   XZ=             -0.3896   YZ=             -5.2056
 Traceless Quadrupole moment (field-independent basis, Debye-Ang):
   XX=            -10.1194   YY=              2.2321   ZZ=              7.8873
   XY=              2.3339   XZ=             -0.3896   YZ=             -5.2056
 Octapole moment (field-independent basis, Debye-Ang**2):
  XXX=             12.3196  YYY=             27.6286  ZZZ=             -4.3392  XYY=             -9.4532
  XXY=             30.4108  XXZ=              2.0915  XZZ=              0.7298  YZZ=              0.8122
  YYZ=             -3.5537  XYZ=             -3.6951
 Hexadecapole moment (field-independent basis, Debye-Ang**3):
 XXXX=           -667.5290 YYYY=           -418.9635 ZZZZ=           -188.4890 XXXY=             26.6555
 XXXZ=              6.0075 YYYX=             25.9973 YYYZ=            -10.4755 ZZZX=             -0.1488
 ZZZY=             -4.6743 XXYY=           -197.4709 XXZZ=           -130.5623 YYZZ=           -101.7170
 XXYZ=             -5.2870 YYXZ=              1.5363 ZZXY=             -0.6399
 N-N= 2.414017347187D+02 E-N=-2.161082237511D+03  KE= 7.024520197683D+02
 No NMR shielding tensors so no spin-rotation constants.
 Leave Link  601 at Wed Jan  8 01:31:53 2020, MaxMem=  4294967296 cpu:              12.5 elap:               0.9
 (Enter /home/cwagen/sw/g16/g16/l9999.exe)
 1\1\GINC-NODE042\FOpt\RB3LYP\6-31+G(d)\C3H3Cl1N1O1(1-)\CWAGEN\08-Jan-2
 020\0\\#p opt=modredundant b3lyp/6-31+g(d) scrf=(smd, solvent=tetrahyd
 rofuran)\\title\\-1,1\C,-0.0189445503,-0.5524885559,-0.3247009464\O,-0
 .3119715593,-0.6475876226,-1.4878080669\C,-0.3960307392,-1.4712874941,
 0.7977922979\H,-0.2344994565,-1.0127431044,1.772978304\H,-1.4414731364
 ,-1.7704556086,0.6875572548\H,0.2411045614,-2.3640753183,0.7087655319\
 Cl,-1.3927431194,1.4501173671,0.6038716192\C,1.3864586956,0.3345018384
 ,0.033195342\N,2.4108536941,0.8681019984,0.1849563035\\Version=AS64L-G
 16RevA.03\State=1-A\HF=-706.4399923\RMSD=6.392e-09\RMSF=1.168e-02\Dipo
 le=0.3675395,-2.9277859,0.3360412\Quadrupole=-7.3496809,3.6480788,3.70
 16021,1.857452,0.6826963,-4.5294102\PG=C01 [X(C3H3Cl1N1O1)]\\@


 THE ATTENTION SPAN OF A COMPUTER IS AS LONG
 AS ITS EXTENSION CORD.
 Job cpu time:       0 days  1 hours 27 minutes  9.3 seconds.
 Elapsed time:       0 days  0 hours  6 minutes 20.4 seconds.
 File lengths (MBytes):  RWF=     36 Int=      0 D2E=      0 Chk=      3 Scr=      1
 Normal termination of Gaussian 16 at Wed Jan  8 01:31:53 2020.
