 Entering Gaussian System, Link 0=g16
 Input=scan_220_170.gjf
 Output=scan_220_170.out
 Initial command:
 /home/cwagen/sw/g16/g16/l1.exe "/scratch/users/cwagen/cwagen_scan_220_170/Gau-60163.inp" -scrdir="/scratch/users/cwagen/cwagen_scan_220_170/"
 Entering Link 1 = /home/cwagen/sw/g16/g16/l1.exe PID=     60164.
  
 Copyright (c) 1988,1990,1992,1993,1995,1998,2003,2009,2016,
            Gaussian, Inc.  All Rights Reserved.
  
 This is part of the Gaussian(R) 16 program.  It is based on
 the Gaussian(R) 09 system (copyright 2009, Gaussian, Inc.),
 the Gaussian(R) 03 system (copyright 2003, Gaussian, Inc.),
 the Gaussian(R) 98 system (copyright 1998, Gaussian, Inc.),
 the Gaussian(R) 94 system (copyright 1995, Gaussian, Inc.),
 the Gaussian 92(TM) system (copyright 1992, Gaussian, Inc.),
 the Gaussian 90(TM) system (copyright 1990, Gaussian, Inc.),
 the Gaussian 88(TM) system (copyright 1988, Gaussian, Inc.),
 the Gaussian 86(TM) system (copyright 1986, Carnegie Mellon
 University), and the Gaussian 82(TM) system (copyright 1983,
 Carnegie Mellon University). Gaussian is a federally registered
 trademark of Gaussian, Inc.
  
 This software contains proprietary and confidential information,
 including trade secrets, belonging to Gaussian, Inc.
  
 This software is provided under written license and may be
 used, copied, transmitted, or stored only in accord with that
 written license.
  
 The following legend is applicable only to US Government
 contracts under FAR:
  
                    RESTRICTED RIGHTS LEGEND
  
 Use, reproduction and disclosure by the US Government is
 subject to restrictions as set forth in subparagraphs (a)
 and (c) of the Commercial Computer Software - Restricted
 Rights clause in FAR 52.227-19.
  
 Gaussian, Inc.
 340 Quinnipiac St., Bldg. 40, Wallingford CT 06492
  
  
 ---------------------------------------------------------------
 Warning -- This program may not be used in any manner that
 competes with the business of Gaussian, Inc. or will provide
 assistance to any competitor of Gaussian, Inc.  The licensee
 of this program is prohibited from giving any competitor of
 Gaussian, Inc. access to this program.  By using this program,
 the user acknowledges that Gaussian, Inc. is engaged in the
 business of creating and licensing software in the field of
 computational chemistry and represents and warrants to the
 licensee that it is not a competitor of Gaussian, Inc. and that
 it will not use this program in any manner prohibited above.
 ---------------------------------------------------------------
  

 Cite this work as:
 Gaussian 16, Revision A.03,
 M. J. Frisch, G. W. Trucks, H. B. Schlegel, G. E. Scuseria, 
 M. A. Robb, J. R. Cheeseman, G. Scalmani, V. Barone, 
 G. A. Petersson, H. Nakatsuji, X. Li, M. Caricato, A. V. Marenich, 
 J. Bloino, B. G. Janesko, R. Gomperts, B. Mennucci, H. P. Hratchian, 
 J. V. Ortiz, A. F. Izmaylov, J. L. Sonnenberg, D. Williams-Young, 
 F. Ding, F. Lipparini, F. Egidi, J. Goings, B. Peng, A. Petrone, 
 T. Henderson, D. Ranasinghe, V. G. Zakrzewski, J. Gao, N. Rega, 
 G. Zheng, W. Liang, M. Hada, M. Ehara, K. Toyota, R. Fukuda, 
 J. Hasegawa, M. Ishida, T. Nakajima, Y. Honda, O. Kitao, H. Nakai, 
 T. Vreven, K. Throssell, J. A. Montgomery, Jr., J. E. Peralta, 
 F. Ogliaro, M. J. Bearpark, J. J. Heyd, E. N. Brothers, K. N. Kudin, 
 V. N. Staroverov, T. A. Keith, R. Kobayashi, J. Normand, 
 K. Raghavachari, A. P. Rendell, J. C. Burant, S. S. Iyengar, 
 J. Tomasi, M. Cossi, J. M. Millam, M. Klene, C. Adamo, R. Cammi, 
 J. W. Ochterski, R. L. Martin, K. Morokuma, O. Farkas, 
 J. B. Foresman, and D. J. Fox, Gaussian, Inc., Wallingford CT, 2016.
 
 ******************************************
 Gaussian 16:  AS64L-G16RevA.03 25-Dec-2016
                 8-Jan-2020 
 ******************************************
 %nprocshared=16
 Will use up to   16 processors via shared memory.
 %mem=32GB
 ----------------------------------------------------------------------
 #p opt=modredundant b3lyp/6-31+g(d) scrf=(smd, solvent=tetrahydrofuran
 )
 ----------------------------------------------------------------------
 1/18=120,19=15,26=3,38=1/1,3;
 2/9=110,12=2,17=6,18=5,40=1/2;
 3/5=1,6=6,7=11,11=2,25=1,30=1,70=32201,71=1,72=20,74=-5/1,2,3;
 4//1;
 5/5=2,38=5,53=20/2;
 6/7=2,8=2,9=2,10=2,28=1/1;
 7//1,2,3,16;
 1/18=20,19=15,26=3/3(2);
 2/9=110/2;
 99//99;
 2/9=110/2;
 3/5=1,6=6,7=11,11=2,25=1,30=1,70=32205,71=1,72=20,74=-5/1,2,3;
 4/5=5,16=3,69=1/1;
 5/5=2,38=5,53=20/2;
 7//1,2,3,16;
 1/18=20,19=15,26=3/3(-5);
 2/9=110/2;
 6/7=2,8=2,9=2,10=2,19=2,28=1/1;
 99/9=1/99;
 Leave Link    1 at Wed Jan  8 00:40:17 2020, MaxMem=  4294967296 cpu:               1.9 elap:               0.2
 (Enter /home/cwagen/sw/g16/g16/l101.exe)
 -----
 title
 -----
 Symbolic Z-matrix:
 Charge = -1 Multiplicity = 1
 6                    -0.19426  -0.292    -0.21291 
 8                    -0.25532  -0.66526  -1.45426 
 6                    -0.33095  -1.45422   0.81632 
 1                    -0.18039  -1.13044   1.85373 
 1                    -1.34067  -1.87301   0.71427 
 1                     0.39707  -2.23395   0.57058 
 17                   -1.51149   1.37901   0.34622 
 6                     1.38184   0.25991   0.10534 
 7                     2.51642   0.54021   0.13564 
 
 Add virtual bond connecting atoms Cl7        and C1         Dist= 4.16D+00.
 The following ModRedundant input section has been read:
 B       1       7 F                                                           
 B       1       8 F                                                           
 
 ITRead=  0  0  0  0  0  0  0  0  0
 MicOpt= -1 -1 -1 -1 -1 -1 -1 -1 -1
 NAtoms=      9 NQM=        9 NQMF=       0 NMMI=      0 NMMIF=      0
                NMic=       0 NMicF=      0.
                    Isotopes and Nuclear Properties:
 (Nuclear quadrupole moments (NQMom) in fm**2, nuclear magnetic moments (NMagM)
  in nuclear magnetons)

  Atom         1           2           3           4           5           6           7           8           9
 IAtWgt=          12          16          12           1           1           1          35          12          14
 AtmWgt=  12.0000000  15.9949146  12.0000000   1.0078250   1.0078250   1.0078250  34.9688527  12.0000000  14.0030740
 NucSpn=           0           0           0           1           1           1           3           0           2
 AtZEff=   0.0000000   0.0000000   0.0000000   0.0000000   0.0000000   0.0000000   0.0000000   0.0000000   0.0000000
 NQMom=    0.0000000   0.0000000   0.0000000   0.0000000   0.0000000   0.0000000  -8.1650000   0.0000000   2.0440000
 NMagM=    0.0000000   0.0000000   0.0000000   2.7928460   2.7928460   2.7928460   0.8218740   0.0000000   0.4037610
 AtZNuc=   6.0000000   8.0000000   6.0000000   1.0000000   1.0000000   1.0000000  17.0000000   6.0000000   7.0000000
 Leave Link  101 at Wed Jan  8 00:40:18 2020, MaxMem=  4294967296 cpu:               6.5 elap:               0.6
 (Enter /home/cwagen/sw/g16/g16/l103.exe)

 GradGradGradGradGradGradGradGradGradGradGradGradGradGradGradGradGradGrad
 Berny optimization.
 Initialization pass.
                           ----------------------------
                           !    Initial Parameters    !
                           ! (Angstroms and Degrees)  !
 --------------------------                            --------------------------
 ! Name  Definition              Value          Derivative Info.                !
 --------------------------------------------------------------------------------
 ! R1    R(1,2)                  1.2977         estimate D2E/DX2                !
 ! R2    R(1,3)                  1.5584         estimate D2E/DX2                !
 ! R3    R(1,7)                  2.2            Frozen                          !
 ! R4    R(1,8)                  1.7            Frozen                          !
 ! R5    R(3,4)                  1.0971         estimate D2E/DX2                !
 ! R6    R(3,5)                  1.0979         estimate D2E/DX2                !
 ! R7    R(3,6)                  1.0947         estimate D2E/DX2                !
 ! R8    R(8,9)                  1.1691         estimate D2E/DX2                !
 ! A1    A(2,1,3)              114.4006         estimate D2E/DX2                !
 ! A2    A(2,1,7)              115.6846         estimate D2E/DX2                !
 ! A3    A(2,1,8)              108.426          estimate D2E/DX2                !
 ! A4    A(3,1,7)              110.248          estimate D2E/DX2                !
 ! A5    A(3,1,8)              101.5248         estimate D2E/DX2                !
 ! A6    A(7,1,8)              105.1256         estimate D2E/DX2                !
 ! A7    A(1,3,4)              113.1005         estimate D2E/DX2                !
 ! A8    A(1,3,5)              107.683          estimate D2E/DX2                !
 ! A9    A(1,3,6)              108.9421         estimate D2E/DX2                !
 ! A10   A(4,3,5)              109.0662         estimate D2E/DX2                !
 ! A11   A(4,3,6)              109.3417         estimate D2E/DX2                !
 ! A12   A(5,3,6)              108.6067         estimate D2E/DX2                !
 ! A13   L(1,8,9,6,-1)         177.5628         estimate D2E/DX2                !
 ! A14   L(1,8,9,6,-2)         167.0914         estimate D2E/DX2                !
 ! D1    D(2,1,3,4)            174.4714         estimate D2E/DX2                !
 ! D2    D(2,1,3,5)            -64.9488         estimate D2E/DX2                !
 ! D3    D(2,1,3,6)             52.6633         estimate D2E/DX2                !
 ! D4    D(7,1,3,4)            -53.1046         estimate D2E/DX2                !
 ! D5    D(7,1,3,5)             67.4752         estimate D2E/DX2                !
 ! D6    D(7,1,3,6)           -174.9127         estimate D2E/DX2                !
 ! D7    D(8,1,3,4)             57.938          estimate D2E/DX2                !
 ! D8    D(8,1,3,5)            178.5177         estimate D2E/DX2                !
 ! D9    D(8,1,3,6)            -63.8702         estimate D2E/DX2                !
 --------------------------------------------------------------------------------
 Trust Radius=3.00D-01 FncErr=1.00D-07 GrdErr=1.00D-06 EigMax=2.50D+02 EigMin=1.00D-04
 Number of steps in this run=     41 maximum allowed number of steps=    100.
 GradGradGradGradGradGradGradGradGradGradGradGradGradGradGradGradGradGrad

 Leave Link  103 at Wed Jan  8 00:40:18 2020, MaxMem=  4294967296 cpu:               0.8 elap:               0.1
 (Enter /home/cwagen/sw/g16/g16/l202.exe)
                          Input orientation:                          
 ---------------------------------------------------------------------
 Center     Atomic      Atomic             Coordinates (Angstroms)
 Number     Number       Type             X           Y           Z
 ---------------------------------------------------------------------
      1          6           0       -0.194263   -0.291999   -0.212908
      2          8           0       -0.255321   -0.665256   -1.454255
      3          6           0       -0.330945   -1.454221    0.816316
      4          1           0       -0.180394   -1.130438    1.853734
      5          1           0       -1.340665   -1.873010    0.714272
      6          1           0        0.397068   -2.233949    0.570583
      7         17           0       -1.511489    1.379015    0.346225
      8          6           0        1.381844    0.259912    0.105339
      9          7           0        2.516415    0.540210    0.135642
 ---------------------------------------------------------------------
                    Distance matrix (angstroms):
                    1          2          3          4          5
     1  C    0.000000
     2  O    1.297687   0.000000
     3  C    1.558443   2.404928   0.000000
     4  H    2.230287   3.341377   1.097150   0.000000
     5  H    2.161827   2.709087   1.097876   1.787740   0.000000
     6  H    2.175937   2.643176   1.094698   1.788205   1.780629
     7  Cl   2.200000   2.999788   3.105140   3.215859   3.277240
     8  C    1.700000   2.443067   2.525349   2.725903   3.511725
     9  N    2.856892   3.415178   3.542391   3.607726   4.586448
                    6          7          8          9
     6  H    0.000000
     7  Cl   4.092240   0.000000
     8  C    2.721319   3.111558   0.000000
     9  N    3.518062   4.119703   1.169075   0.000000
 Stoichiometry    C3H3ClNO(1-)
 Framework group  C1[X(C3H3ClNO)]
 Deg. of freedom    21
 Full point group                 C1      NOp   1
 Largest Abelian subgroup         C1      NOp   1
 Largest concise Abelian subgroup C1      NOp   1
                         Standard orientation:                         
 ---------------------------------------------------------------------
 Center     Atomic      Atomic             Coordinates (Angstroms)
 Number     Number       Type             X           Y           Z
 ---------------------------------------------------------------------
      1          6           0        0.104154    0.460188    0.210176
      2          8           0        0.280563    0.949402    1.399100
      3          6           0        0.309729    1.485816   -0.945060
      4          1           0        0.250668    1.029745   -1.941177
      5          1           0       -0.471850    2.251468   -0.854264
      6          1           0        1.285608    1.966769   -0.823786
      7         17           0       -1.763778   -0.662211   -0.091571
      8          6           0        1.347758   -0.656201   -0.101469
      9          7           0        2.300781   -1.332061   -0.142680
 ---------------------------------------------------------------------
 Rotational constants (GHZ):           3.4405803           1.9676669           1.6390431
 Leave Link  202 at Wed Jan  8 00:40:18 2020, MaxMem=  4294967296 cpu:               1.6 elap:               0.2
 (Enter /home/cwagen/sw/g16/g16/l301.exe)
 Standard basis: 6-31+G(d) (6D, 7F)
 Ernie: Thresh=  0.10000D-02 Tol=  0.10000D-05 Strict=F.
 There are   124 symmetry adapted cartesian basis functions of A   symmetry.
 There are   124 symmetry adapted basis functions of A   symmetry.
   124 basis functions,   228 primitive gaussians,   124 cartesian basis functions
    27 alpha electrons       27 beta electrons
       nuclear repulsion energy       244.0111190377 Hartrees.
 IExCor=  402 DFT=T Ex+Corr=B3LYP ExCW=0 ScaHFX=  0.200000
 ScaDFX=  0.800000  0.720000  1.000000  0.810000 ScalE2=  1.000000  1.000000
 IRadAn=      5 IRanWt=     -1 IRanGd=            0 ICorTp=0 IEmpDi=  4
 NAtoms=    9 NActive=    9 NUniq=    9 SFac= 1.00D+00 NAtFMM=   60 NAOKFM=F Big=F
 Integral buffers will be    131072 words long.
 Raffenetti 2 integral format.
 Two-electron integral symmetry is turned on.
 ------------------------------------------------------------------------------
 Polarizable Continuum Model (PCM)
 =================================
 Model                : PCM.
 Atomic radii         : SMD-Coulomb.
 Polarization charges : Total charges.
 Charge compensation  : None.
 Solution method      : On-the-fly selection.
 Cavity type          : VdW (van der Waals Surface) (Alpha=1.000).
 Cavity algorithm     : GePol (No added spheres)
                        Default sphere list used, NSphG=    9.
                        Lebedev-Laikov grids with approx.  5.0 points / Ang**2.
                        Smoothing algorithm: York/Karplus (Gamma=1.0000).
                        Polarization charges: spherical gaussians, with
                                              point-specific exponents (IZeta= 3).
                        Self-potential: point-specific (ISelfS= 7).
                        Self-field    : sphere-specific E.n sum rule (ISelfD= 2).
 1st derivatives      : Analytical E(r).r(x)/FMM algorithm (CHGder, D1EAlg=3).
                        Cavity 1st derivative terms included.
 Solvent              : TetraHydroFuran, Eps=   7.425700 Eps(inf)=   1.974025
 ------------------------------------------------------------------------------
 Spheres list:
 ISph  on   Nord     Re0    Alpha      Xe            Ye            Ze
    1   C      1    1.8500  1.000      0.104154      0.460188      0.210176
    2   O      2    2.2940  1.000      0.280563      0.949402      1.399100
    3   C      3    1.8500  1.000      0.309729      1.485816     -0.945060
    4   H      4    1.2000  1.000      0.250668      1.029745     -1.941177
    5   H      5    1.2000  1.000     -0.471850      2.251468     -0.854264
    6   H      6    1.2000  1.000      1.285608      1.966769     -0.823786
    7  Cl      7    2.3800  1.000     -1.763778     -0.662211     -0.091571
    8   C      8    1.8500  1.000      1.347758     -0.656201     -0.101469
    9   N      9    1.8900  1.000      2.300781     -1.332061     -0.142680
 ------------------------------------------------------------------------------
 GePol: Number of generator spheres                  =       9
 GePol: Total number of spheres                      =       9
 GePol: Number of exposed spheres                    =       9 (100.00%)
 GePol: Number of points                             =    1178
 GePol: Average weight of points                     =       0.14
 GePol: Minimum weight of points                     =   0.15D-10
 GePol: Maximum weight of points                     =    0.18138
 GePol: Number of points with low weight             =      39
 GePol: Fraction of low-weight points (<1% of avg)   =       3.31%
 GePol: Cavity surface area                          =    159.817 Ang**2
 GePol: Cavity volume                                =    146.459 Ang**3
 ------------------------------------------------------------------------------
 Atomic radii for non-electrostatic terms: SMD-CDS.
 ------------------------------------------------------------------------------
 PCM non-electrostatic energy =        -0.0009162850 Hartrees.
 Nuclear repulsion after PCM non-electrostatic terms =      244.0102027527 Hartrees.
 Leave Link  301 at Wed Jan  8 00:40:19 2020, MaxMem=  4294967296 cpu:               2.1 elap:               0.2
 (Enter /home/cwagen/sw/g16/g16/l302.exe)
 NPDir=0 NMtPBC=     1 NCelOv=     1 NCel=       1 NClECP=     1 NCelD=      1
         NCelK=      1 NCelE2=     1 NClLst=     1 CellRange=     0.0.
 One-electron integrals computed using PRISM.
 One-electron integral symmetry used in STVInt
 NBasis=   124 RedAO= T EigKep=  5.93D-05  NBF=   124
 NBsUse=   124 1.00D-06 EigRej= -1.00D+00 NBFU=   124
 Precomputing XC quadrature grid using
 IXCGrd= 4 IRadAn=           5 IRanWt=          -1 IRanGd=           0 AccXCQ= 0.00D+00.
 Generated NRdTot=       0 NPtTot=           0 NUsed=           0 NTot=          32
 NSgBfM=   124   124   124   124   124 MxSgAt=     9 MxSgA2=     9.
 Leave Link  302 at Wed Jan  8 00:40:21 2020, MaxMem=  4294967296 cpu:              24.6 elap:               2.3
 (Enter /home/cwagen/sw/g16/g16/l303.exe)
 DipDrv:  MaxL=1.
 Leave Link  303 at Wed Jan  8 00:40:21 2020, MaxMem=  4294967296 cpu:               3.6 elap:               0.4
 (Enter /home/cwagen/sw/g16/g16/l401.exe)
 ExpMin= 4.38D-02 ExpMax= 2.52D+04 ExpMxC= 3.78D+03 IAcc=3 IRadAn=         5 AccDes= 0.00D+00
 Harris functional with IExCor=  402 and IRadAn=       5 diagonalized for initial guess.
 HarFok:  IExCor=  402 AccDes= 0.00D+00 IRadAn=         5 IDoV= 1 UseB2=F ITyADJ=14
 ICtDFT=  3500011 ScaDFX=  1.000000  1.000000  1.000000  1.000000
 FoFCou: FMM=F IPFlag=           0 FMFlag=      100000 FMFlg1=           0
         NFxFlg=           0 DoJE=T BraDBF=F KetDBF=T FulRan=T
         wScrn=  0.000000 ICntrl=       500 IOpCl=  0 I1Cent=   200000004 NGrid=           0
         NMat0=    1 NMatS0=      1 NMatT0=    0 NMatD0=    1 NMtDS0=    0 NMtDT0=    0
 Petite list used in FoFCou.
 Harris En= -706.411012244521    
 JPrj=0 DoOrth=F DoCkMO=F.
 Leave Link  401 at Wed Jan  8 00:40:23 2020, MaxMem=  4294967296 cpu:              24.6 elap:               2.0
 (Enter /home/cwagen/sw/g16/g16/l502.exe)
 Keep R1 ints in memory in canonical form, NReq=45236517.
 FoFCou: FMM=F IPFlag=           0 FMFlag=           0 FMFlg1=           0
         NFxFlg=           0 DoJE=F BraDBF=F KetDBF=F FulRan=T
         wScrn=  0.000000 ICntrl=       600 IOpCl=  0 I1Cent=           0 NGrid=           0
         NMat0=    1 NMatS0=   7750 NMatT0=    0 NMatD0=    1 NMtDS0=    0 NMtDT0=    0
 Symmetry not used in FoFCou.
 Two-electron integral symmetry not used.
 Closed shell SCF:
 Using DIIS extrapolation, IDIIS=  1040.
 NGot=  4294967296 LenX=  4264898079 LenY=  4264882262
 Requested convergence on RMS density matrix=1.00D-08 within 128 cycles.
 Requested convergence on MAX density matrix=1.00D-06.
 Requested convergence on             energy=1.00D-06.
 No special actions if energy rises.

 Cycle   1  Pass 1  IDiag  1:
 Inv3:  Mode=1 IEnd=     4163052.
 Iteration    1 A*A^-1 deviation from unit magnitude is 3.55D-15 for   1165.
 Iteration    1 A*A^-1 deviation from orthogonality  is 1.18D-15 for    723    149.
 Iteration    1 A^-1*A deviation from unit magnitude is 3.11D-15 for   1165.
 Iteration    1 A^-1*A deviation from orthogonality  is 1.31D-15 for   1169   1009.
 E= -706.199470613803    
 DIIS: error= 2.40D-02 at cycle   1 NSaved=   1.
 NSaved= 1 IEnMin= 1 EnMin= -706.199470613803     IErMin= 1 ErrMin= 2.40D-02
 ErrMax= 2.40D-02  0.00D+00 EMaxC= 1.00D-01 BMatC= 2.40D-01 BMatP= 2.40D-01
 IDIUse=3 WtCom= 7.60D-01 WtEn= 2.40D-01
 Coeff-Com:  0.100D+01
 Coeff-En:   0.100D+01
 Coeff:      0.100D+01
 Gap=     0.272 Goal=   None    Shift=    0.000
 GapD=    0.272 DampG=1.000 DampE=0.500 DampFc=0.5000 IDamp=-1.
 Damping current iteration by 5.00D-01
 RMSDP=3.23D-02 MaxDP=1.43D+00              OVMax= 5.77D-01

 Cycle   2  Pass 1  IDiag  1:
 E= -706.108829709800     Delta-E=        0.090640904003 Rises=F Damp=T
 DIIS: error= 2.30D-02 at cycle   2 NSaved=   2.
 NSaved= 2 IEnMin= 1 EnMin= -706.199470613803     IErMin= 2 ErrMin= 2.30D-02
 ErrMax= 2.30D-02  0.00D+00 EMaxC= 1.00D-01 BMatC= 1.39D-01 BMatP= 2.40D-01
 IDIUse=3 WtCom= 7.70D-01 WtEn= 2.30D-01
 Coeff-Com:  0.418D+00 0.582D+00
 Coeff-En:   0.613D+00 0.387D+00
 Coeff:      0.462D+00 0.538D+00
 Gap=     0.151 Goal=   None    Shift=    0.000
 RMSDP=1.37D-02 MaxDP=6.42D-01 DE= 9.06D-02 OVMax= 3.66D-01

 Cycle   3  Pass 1  IDiag  1:
 E= -706.369405256816     Delta-E=       -0.260575547017 Rises=F Damp=F
 DIIS: error= 1.03D-02 at cycle   3 NSaved=   3.
 NSaved= 3 IEnMin= 3 EnMin= -706.369405256816     IErMin= 3 ErrMin= 1.03D-02
 ErrMax= 1.03D-02  0.00D+00 EMaxC= 1.00D-01 BMatC= 4.24D-02 BMatP= 1.39D-01
 IDIUse=3 WtCom= 8.97D-01 WtEn= 1.03D-01
 Coeff-Com:  0.185D+00 0.346D+00 0.470D+00
 Coeff-En:   0.000D+00 0.000D+00 0.100D+01
 Coeff:      0.166D+00 0.310D+00 0.524D+00
 Gap=     0.201 Goal=   None    Shift=    0.000
 RMSDP=2.91D-03 MaxDP=4.76D-02 DE=-2.61D-01 OVMax= 5.68D-02

 Cycle   4  Pass 1  IDiag  1:
 E= -706.407856135774     Delta-E=       -0.038450878958 Rises=F Damp=F
 DIIS: error= 3.45D-03 at cycle   4 NSaved=   4.
 NSaved= 4 IEnMin= 4 EnMin= -706.407856135774     IErMin= 4 ErrMin= 3.45D-03
 ErrMax= 3.45D-03  0.00D+00 EMaxC= 1.00D-01 BMatC= 4.22D-03 BMatP= 4.24D-02
 IDIUse=3 WtCom= 9.65D-01 WtEn= 3.45D-02
 Coeff-Com:  0.310D-01 0.102D+00 0.257D+00 0.610D+00
 Coeff-En:   0.000D+00 0.000D+00 0.000D+00 0.100D+01
 Coeff:      0.300D-01 0.985D-01 0.248D+00 0.624D+00
 Gap=     0.199 Goal=   None    Shift=    0.000
 RMSDP=8.12D-04 MaxDP=1.73D-02 DE=-3.85D-02 OVMax= 2.70D-02

 Cycle   5  Pass 1  IDiag  1:
 E= -706.409690779832     Delta-E=       -0.001834644057 Rises=F Damp=F
 DIIS: error= 2.81D-03 at cycle   5 NSaved=   5.
 NSaved= 5 IEnMin= 5 EnMin= -706.409690779832     IErMin= 5 ErrMin= 2.81D-03
 ErrMax= 2.81D-03  0.00D+00 EMaxC= 1.00D-01 BMatC= 2.07D-03 BMatP= 4.22D-03
 IDIUse=3 WtCom= 9.72D-01 WtEn= 2.81D-02
 Coeff-Com: -0.510D-02 0.250D-01 0.107D+00 0.461D+00 0.412D+00
 Coeff-En:   0.000D+00 0.000D+00 0.000D+00 0.352D+00 0.648D+00
 Coeff:     -0.496D-02 0.243D-01 0.104D+00 0.458D+00 0.419D+00
 Gap=     0.196 Goal=   None    Shift=    0.000
 RMSDP=4.43D-04 MaxDP=8.76D-03 DE=-1.83D-03 OVMax= 1.52D-02

 Cycle   6  Pass 1  IDiag  1:
 E= -706.411449247994     Delta-E=       -0.001758468163 Rises=F Damp=F
 DIIS: error= 4.88D-04 at cycle   6 NSaved=   6.
 NSaved= 6 IEnMin= 6 EnMin= -706.411449247994     IErMin= 6 ErrMin= 4.88D-04
 ErrMax= 4.88D-04  0.00D+00 EMaxC= 1.00D-01 BMatC= 8.27D-05 BMatP= 2.07D-03
 IDIUse=3 WtCom= 9.95D-01 WtEn= 4.88D-03
 Coeff-Com: -0.457D-02 0.562D-02 0.333D-01 0.185D+00 0.236D+00 0.545D+00
 Coeff-En:   0.000D+00 0.000D+00 0.000D+00 0.000D+00 0.000D+00 0.100D+01
 Coeff:     -0.454D-02 0.559D-02 0.332D-01 0.184D+00 0.235D+00 0.548D+00
 Gap=     0.197 Goal=   None    Shift=    0.000
 RMSDP=1.36D-04 MaxDP=2.71D-03 DE=-1.76D-03 OVMax= 2.33D-03

 Cycle   7  Pass 1  IDiag  1:
 E= -706.411526929331     Delta-E=       -0.000077681337 Rises=F Damp=F
 DIIS: error= 1.25D-04 at cycle   7 NSaved=   7.
 NSaved= 7 IEnMin= 7 EnMin= -706.411526929331     IErMin= 7 ErrMin= 1.25D-04
 ErrMax= 1.25D-04  0.00D+00 EMaxC= 1.00D-01 BMatC= 3.06D-06 BMatP= 8.27D-05
 IDIUse=3 WtCom= 9.99D-01 WtEn= 1.25D-03
 Coeff-Com: -0.136D-02 0.220D-03 0.442D-02 0.338D-01 0.627D-01 0.224D+00
 Coeff-Com:  0.677D+00
 Coeff-En:   0.000D+00 0.000D+00 0.000D+00 0.000D+00 0.000D+00 0.000D+00
 Coeff-En:   0.100D+01
 Coeff:     -0.135D-02 0.220D-03 0.442D-02 0.337D-01 0.626D-01 0.223D+00
 Coeff:      0.677D+00
 Gap=     0.198 Goal=   None    Shift=    0.000
 RMSDP=2.77D-05 MaxDP=9.66D-04 DE=-7.77D-05 OVMax= 9.00D-04

 Cycle   8  Pass 1  IDiag  1:
 E= -706.411530037941     Delta-E=       -0.000003108610 Rises=F Damp=F
 DIIS: error= 4.43D-05 at cycle   8 NSaved=   8.
 NSaved= 8 IEnMin= 8 EnMin= -706.411530037941     IErMin= 8 ErrMin= 4.43D-05
 ErrMax= 4.43D-05  0.00D+00 EMaxC= 1.00D-01 BMatC= 4.55D-07 BMatP= 3.06D-06
 IDIUse=1 WtCom= 1.00D+00 WtEn= 0.00D+00
 Coeff-Com: -0.347D-03-0.442D-03-0.445D-04 0.459D-02 0.180D-01 0.820D-01
 Coeff-Com:  0.365D+00 0.531D+00
 Coeff:     -0.347D-03-0.442D-03-0.445D-04 0.459D-02 0.180D-01 0.820D-01
 Coeff:      0.365D+00 0.531D+00
 Gap=     0.198 Goal=   None    Shift=    0.000
 RMSDP=1.49D-05 MaxDP=3.72D-04 DE=-3.11D-06 OVMax= 2.31D-04

 Cycle   9  Pass 1  IDiag  1:
 E= -706.411530539421     Delta-E=       -0.000000501480 Rises=F Damp=F
 DIIS: error= 1.25D-05 at cycle   9 NSaved=   9.
 NSaved= 9 IEnMin= 9 EnMin= -706.411530539421     IErMin= 9 ErrMin= 1.25D-05
 ErrMax= 1.25D-05  0.00D+00 EMaxC= 1.00D-01 BMatC= 2.92D-08 BMatP= 4.55D-07
 IDIUse=1 WtCom= 1.00D+00 WtEn= 0.00D+00
 Coeff-Com:  0.817D-04-0.238D-03-0.510D-03-0.251D-02-0.102D-02 0.708D-03
 Coeff-Com:  0.528D-01 0.229D+00 0.722D+00
 Coeff:      0.817D-04-0.238D-03-0.510D-03-0.251D-02-0.102D-02 0.708D-03
 Coeff:      0.528D-01 0.229D+00 0.722D+00
 Gap=     0.198 Goal=   None    Shift=    0.000
 RMSDP=2.92D-06 MaxDP=7.00D-05 DE=-5.01D-07 OVMax= 7.22D-05

 Cycle  10  Pass 1  IDiag  1:
 E= -706.411530572839     Delta-E=       -0.000000033418 Rises=F Damp=F
 DIIS: error= 1.49D-06 at cycle  10 NSaved=  10.
 NSaved=10 IEnMin=10 EnMin= -706.411530572839     IErMin=10 ErrMin= 1.49D-06
 ErrMax= 1.49D-06  0.00D+00 EMaxC= 1.00D-01 BMatC= 6.54D-10 BMatP= 2.92D-08
 IDIUse=1 WtCom= 1.00D+00 WtEn= 0.00D+00
 Coeff-Com:  0.343D-04-0.454D-04-0.676D-04-0.560D-03-0.861D-03-0.336D-02
 Coeff-Com: -0.843D-02 0.214D-01 0.134D+00 0.858D+00
 Coeff:      0.343D-04-0.454D-04-0.676D-04-0.560D-03-0.861D-03-0.336D-02
 Coeff:     -0.843D-02 0.214D-01 0.134D+00 0.858D+00
 Gap=     0.198 Goal=   None    Shift=    0.000
 RMSDP=1.20D-06 MaxDP=2.56D-05 DE=-3.34D-08 OVMax= 2.26D-05

 Cycle  11  Pass 1  IDiag  1:
 E= -706.411530573720     Delta-E=       -0.000000000881 Rises=F Damp=F
 DIIS: error= 6.88D-07 at cycle  11 NSaved=  11.
 NSaved=11 IEnMin=11 EnMin= -706.411530573720     IErMin=11 ErrMin= 6.88D-07
 ErrMax= 6.88D-07  0.00D+00 EMaxC= 1.00D-01 BMatC= 1.53D-10 BMatP= 6.54D-10
 IDIUse=1 WtCom= 1.00D+00 WtEn= 0.00D+00
 Coeff-Com:  0.137D-04-0.761D-05 0.639D-05-0.113D-03-0.337D-03-0.162D-02
 Coeff-Com: -0.762D-02-0.414D-02 0.133D-01 0.395D+00 0.606D+00
 Coeff:      0.137D-04-0.761D-05 0.639D-05-0.113D-03-0.337D-03-0.162D-02
 Coeff:     -0.762D-02-0.414D-02 0.133D-01 0.395D+00 0.606D+00
 Gap=     0.198 Goal=   None    Shift=    0.000
 RMSDP=1.95D-07 MaxDP=3.53D-06 DE=-8.81D-10 OVMax= 4.61D-06

 Cycle  12  Pass 1  IDiag  1:
 E= -706.411530573895     Delta-E=       -0.000000000175 Rises=F Damp=F
 DIIS: error= 1.43D-07 at cycle  12 NSaved=  12.
 NSaved=12 IEnMin=12 EnMin= -706.411530573895     IErMin=12 ErrMin= 1.43D-07
 ErrMax= 1.43D-07  0.00D+00 EMaxC= 1.00D-01 BMatC= 8.34D-12 BMatP= 1.53D-10
 IDIUse=1 WtCom= 1.00D+00 WtEn= 0.00D+00
 Coeff-Com:  0.837D-06 0.113D-05 0.131D-04 0.305D-04 0.549D-05-0.122D-03
 Coeff-Com: -0.165D-02-0.339D-02-0.109D-01 0.449D-01 0.198D+00 0.773D+00
 Coeff:      0.837D-06 0.113D-05 0.131D-04 0.305D-04 0.549D-05-0.122D-03
 Coeff:     -0.165D-02-0.339D-02-0.109D-01 0.449D-01 0.198D+00 0.773D+00
 Gap=     0.198 Goal=   None    Shift=    0.000
 RMSDP=7.49D-08 MaxDP=1.96D-06 DE=-1.75D-10 OVMax= 2.16D-06

 Cycle  13  Pass 1  IDiag  1:
 E= -706.411530573906     Delta-E=       -0.000000000011 Rises=F Damp=F
 DIIS: error= 3.67D-08 at cycle  13 NSaved=  13.
 NSaved=13 IEnMin=13 EnMin= -706.411530573906     IErMin=13 ErrMin= 3.67D-08
 ErrMax= 3.67D-08  0.00D+00 EMaxC= 1.00D-01 BMatC= 4.35D-13 BMatP= 8.34D-12
 IDIUse=1 WtCom= 1.00D+00 WtEn= 0.00D+00
 Coeff-Com: -0.422D-06 0.282D-06 0.177D-05 0.765D-05 0.220D-04 0.747D-04
 Coeff-Com:  0.219D-03-0.377D-03-0.254D-02-0.163D-01-0.117D-01 0.126D+00
 Coeff-Com:  0.904D+00
 Coeff:     -0.422D-06 0.282D-06 0.177D-05 0.765D-05 0.220D-04 0.747D-04
 Coeff:      0.219D-03-0.377D-03-0.254D-02-0.163D-01-0.117D-01 0.126D+00
 Coeff:      0.904D+00
 Gap=     0.198 Goal=   None    Shift=    0.000
 RMSDP=1.79D-08 MaxDP=5.06D-07 DE=-1.09D-11 OVMax= 7.58D-07

 Cycle  14  Pass 1  IDiag  1:
 E= -706.411530573904     Delta-E=        0.000000000002 Rises=F Damp=F
 DIIS: error= 6.66D-09 at cycle  14 NSaved=  14.
 NSaved=14 IEnMin=13 EnMin= -706.411530573906     IErMin=14 ErrMin= 6.66D-09
 ErrMax= 6.66D-09  0.00D+00 EMaxC= 1.00D-01 BMatC= 9.89D-15 BMatP= 4.35D-13
 IDIUse=1 WtCom= 1.00D+00 WtEn= 0.00D+00
 Coeff-Com: -0.144D-06 0.767D-07 0.905D-08 0.115D-05 0.551D-05 0.235D-04
 Coeff-Com:  0.107D-03 0.266D-04-0.272D-03-0.548D-02-0.966D-02 0.508D-03
 Coeff-Com:  0.211D+00 0.804D+00
 Coeff:     -0.144D-06 0.767D-07 0.905D-08 0.115D-05 0.551D-05 0.235D-04
 Coeff:      0.107D-03 0.266D-04-0.272D-03-0.548D-02-0.966D-02 0.508D-03
 Coeff:      0.211D+00 0.804D+00
 Gap=     0.198 Goal=   None    Shift=    0.000
 RMSDP=4.07D-09 MaxDP=1.18D-07 DE= 1.82D-12 OVMax= 1.16D-07

 Error on total polarization charges =  0.02234
 SCF Done:  E(RB3LYP) =  -706.411530574     A.U. after   14 cycles
            NFock= 14  Conv=0.41D-08     -V/T= 2.0060
 KE= 7.022268509751D+02 PE=-2.166168849424D+03 EE= 5.135202651220D+02
 SMD-CDS (non-electrostatic) energy       (kcal/mol) =      -0.57
 (included in total energy above)
 Leave Link  502 at Wed Jan  8 00:41:03 2020, MaxMem=  4294967296 cpu:             514.8 elap:              38.5
 (Enter /home/cwagen/sw/g16/g16/l601.exe)
 Copying SCF densities to generalized density rwf, IOpCl= 0 IROHF=0.

 **********************************************************************

            Population analysis using the SCF density.

 **********************************************************************

 Orbital symmetries:
       Occupied  (A) (A) (A) (A) (A) (A) (A) (A) (A) (A) (A) (A)
                 (A) (A) (A) (A) (A) (A) (A) (A) (A) (A) (A) (A)
                 (A) (A) (A)
       Virtual   (A) (A) (A) (A) (A) (A) (A) (A) (A) (A) (A) (A)
                 (A) (A) (A) (A) (A) (A) (A) (A) (A) (A) (A) (A)
                 (A) (A) (A) (A) (A) (A) (A) (A) (A) (A) (A) (A)
                 (A) (A) (A) (A) (A) (A) (A) (A) (A) (A) (A) (A)
                 (A) (A) (A) (A) (A) (A) (A) (A) (A) (A) (A) (A)
                 (A) (A) (A) (A) (A) (A) (A) (A) (A) (A) (A) (A)
                 (A) (A) (A) (A) (A) (A) (A) (A) (A) (A) (A) (A)
                 (A) (A) (A) (A) (A) (A) (A) (A) (A) (A) (A) (A)
                 (A)
 The electronic state is 1-A.
 Alpha  occ. eigenvalues -- -101.47502 -19.10427 -14.32128 -10.30939 -10.21206
 Alpha  occ. eigenvalues --  -10.17303  -9.38933  -7.15075  -7.14510  -7.14501
 Alpha  occ. eigenvalues --   -0.97524  -0.88146  -0.74230  -0.70889  -0.56964
 Alpha  occ. eigenvalues --   -0.45397  -0.41788  -0.39706  -0.37903  -0.35343
 Alpha  occ. eigenvalues --   -0.34816  -0.31739  -0.31614  -0.26093  -0.25882
 Alpha  occ. eigenvalues --   -0.23905  -0.22721
 Alpha virt. eigenvalues --   -0.02959   0.02270   0.04021   0.04604   0.05366
 Alpha virt. eigenvalues --    0.06728   0.07196   0.09076   0.09611   0.09967
 Alpha virt. eigenvalues --    0.10098   0.10910   0.11955   0.13509   0.13715
 Alpha virt. eigenvalues --    0.14436   0.15206   0.17118   0.17538   0.21603
 Alpha virt. eigenvalues --    0.23913   0.24709   0.25203   0.26317   0.27010
 Alpha virt. eigenvalues --    0.27822   0.28969   0.30748   0.34506   0.34890
 Alpha virt. eigenvalues --    0.36976   0.38473   0.43560   0.61086   0.61183
 Alpha virt. eigenvalues --    0.65148   0.66814   0.68262   0.68848   0.71835
 Alpha virt. eigenvalues --    0.72762   0.76321   0.77487   0.79535   0.80701
 Alpha virt. eigenvalues --    0.86137   0.91905   0.93729   0.94651   0.94839
 Alpha virt. eigenvalues --    0.96638   1.00022   1.01893   1.02286   1.05956
 Alpha virt. eigenvalues --    1.06964   1.10678   1.14593   1.16972   1.26521
 Alpha virt. eigenvalues --    1.33018   1.33733   1.35769   1.47901   1.48577
 Alpha virt. eigenvalues --    1.51607   1.55839   1.58521   1.64685   1.67034
 Alpha virt. eigenvalues --    1.72175   1.72387   1.82776   1.88169   1.93454
 Alpha virt. eigenvalues --    1.95760   1.98708   2.02844   2.03972   2.13855
 Alpha virt. eigenvalues --    2.20228   2.26442   2.31983   2.44662   2.51255
 Alpha virt. eigenvalues --    2.67890   2.73370   2.75391   2.84515   3.02064
 Alpha virt. eigenvalues --    3.15903   4.09412   4.15992   4.32542   4.34457
 Alpha virt. eigenvalues --    4.37969   4.63266
          Condensed to atoms (all electrons):
               1          2          3          4          5          6
     1  C    5.606649   0.600855   0.298857  -0.080449  -0.071628  -0.014541
     2  O    0.600855   8.313933  -0.180564   0.009682   0.000514  -0.010439
     3  C    0.298857  -0.180564   5.739164   0.364489   0.383538   0.381683
     4  H   -0.080449   0.009682   0.364489   0.492547  -0.023508  -0.030402
     5  H   -0.071628   0.000514   0.383538  -0.023508   0.477744  -0.023797
     6  H   -0.014541  -0.010439   0.381683  -0.030402  -0.023797   0.473228
     7  Cl  -0.030851  -0.071408  -0.107068   0.009510  -0.000584   0.002827
     8  C   -0.673544  -0.174702  -0.176756   0.032343   0.027768  -0.020714
     9  N   -0.041879  -0.014547   0.002531  -0.001432   0.000133  -0.000855
               7          8          9
     1  C   -0.030851  -0.673544  -0.041879
     2  O   -0.071408  -0.174702  -0.014547
     3  C   -0.107068  -0.176756   0.002531
     4  H    0.009510   0.032343  -0.001432
     5  H   -0.000584   0.027768   0.000133
     6  H    0.002827  -0.020714  -0.000855
     7  Cl  17.614489   0.061923  -0.020720
     8  C    0.061923   6.198422   0.590052
     9  N   -0.020720   0.590052   7.091191
 Mulliken charges:
               1
     1  C    0.406530
     2  O   -0.473324
     3  C   -0.705874
     4  H    0.227220
     5  H    0.229819
     6  H    0.243011
     7  Cl  -0.458117
     8  C    0.135208
     9  N   -0.604474
 Sum of Mulliken charges =  -1.00000
 Mulliken charges with hydrogens summed into heavy atoms:
               1
     1  C    0.406530
     2  O   -0.473324
     3  C   -0.005823
     7  Cl  -0.458117
     8  C    0.135208
     9  N   -0.604474
 Electronic spatial extent (au):  <R**2>=            785.8907
 Charge=             -1.0000 electrons
 Dipole moment (field-independent basis, Debye):
    X=             -0.3234    Y=              3.4184    Z=             -3.3230  Tot=              4.7783
 Quadrupole moment (field-independent basis, Debye-Ang):
   XX=            -65.3716   YY=            -51.8871   ZZ=            -51.0088
   XY=              4.4601   XZ=             -0.7977   YZ=             -5.0947
 Traceless Quadrupole moment (field-independent basis, Debye-Ang):
   XX=             -9.2824   YY=              4.2021   ZZ=              5.0804
   XY=              4.4601   XZ=             -0.7977   YZ=             -5.0947
 Octapole moment (field-independent basis, Debye-Ang**2):
  XXX=            -21.7477  YYY=             13.4924  ZZZ=             -7.2833  XYY=            -10.5804
  XXY=             26.5031  XXZ=              3.3355  XZZ=             -2.0431  YZZ=             -3.1055
  YYZ=             -3.0245  XYZ=             -2.3702
 Hexadecapole moment (field-independent basis, Debye-Ang**3):
 XXXX=           -714.0340 YYYY=           -344.5978 ZZZZ=           -195.5146 XXXY=             54.0876
 XXXZ=              5.7296 YYYX=             23.1099 YYYZ=             -6.5441 ZZZX=             -1.1699
 ZZZY=             -6.5741 XXYY=           -185.3516 XXZZ=           -135.9282 YYZZ=            -93.3450
 XXYZ=             -4.3758 YYXZ=              1.3214 ZZXY=              1.2936
 N-N= 2.440102027527D+02 E-N=-2.166168849815D+03  KE= 7.022268509751D+02
 No NMR shielding tensors so no spin-rotation constants.
 Leave Link  601 at Wed Jan  8 00:41:04 2020, MaxMem=  4294967296 cpu:              15.0 elap:               1.4
 (Enter /home/cwagen/sw/g16/g16/l701.exe)
 ... and contract with generalized density number  0.
 Compute integral first derivatives.
 D1PCM: PCM CHGder 1st derivatives, ID1Alg=3 FixD1E=F DoIter=F DoCFld=F I1PDM=0.
 GePol: Maximum number of non-zero 1st derivatives   =     366
 Leave Link  701 at Wed Jan  8 00:41:10 2020, MaxMem=  4294967296 cpu:              62.3 elap:               5.7
 (Enter /home/cwagen/sw/g16/g16/l702.exe)
 L702 exits ... SP integral derivatives will be done elsewhere.
 Leave Link  702 at Wed Jan  8 00:41:10 2020, MaxMem=  4294967296 cpu:               1.0 elap:               0.1
 (Enter /home/cwagen/sw/g16/g16/l703.exe)
 Integral derivatives from FoFJK, PRISM(SPDF).
 Compute integral first derivatives, UseDBF=F ICtDFT=           0.
 Calling FoFJK, ICntrl=      2127 FMM=F ISym2X=0 I1Cent= 0 IOpClX= 0 NMat=1 NMatS=1 NMatT=0.
 FoFJK:  IHMeth= 1 ICntrl=    2127 DoSepK=F KAlg= 0 I1Cent=           0 FoldK=F
 IRaf=         0 NMat=       1 IRICut=       1 DoRegI=T DoRafI=F ISym2E= 0 IDoP0=0 IntGTp=1.
 FoFCou: FMM=F IPFlag=           0 FMFlag=      100000 FMFlg1=         800
         NFxFlg=           0 DoJE=F BraDBF=F KetDBF=F FulRan=T
         wScrn=  0.000000 ICntrl=      2127 IOpCl=  0 I1Cent=           0 NGrid=           0
         NMat0=    1 NMatS0=      1 NMatT0=    0 NMatD0=    1 NMtDS0=    0 NMtDT0=    0
 Symmetry not used in FoFCou.
 Leave Link  703 at Wed Jan  8 00:41:13 2020, MaxMem=  4294967296 cpu:              37.7 elap:               3.0
 (Enter /home/cwagen/sw/g16/g16/l716.exe)
 Dipole        =-1.27234406D-01 1.34492112D+00-1.30736115D+00
 ***** Axes restored to original set *****
 -------------------------------------------------------------------
 Center     Atomic                   Forces (Hartrees/Bohr)
 Number     Number              X              Y              Z
 -------------------------------------------------------------------
      1        6           0.061165342   -0.055762433   -0.050713481
      2        8          -0.011092009    0.035881049    0.057241998
      3        6          -0.022807500    0.018833383    0.003483019
      4        1          -0.000540943    0.000822584   -0.001594131
      5        1           0.001038663   -0.001175229    0.001608887
      6        1           0.001223363    0.003589914   -0.002912859
      7       17           0.008676484   -0.009325266   -0.000187286
      8        6          -0.031788829    0.010118774   -0.008515560
      9        7          -0.005874571   -0.002982775    0.001589413
 -------------------------------------------------------------------
 Cartesian Forces:  Max     0.061165342 RMS     0.024661949
 Leave Link  716 at Wed Jan  8 00:41:13 2020, MaxMem=  4294967296 cpu:               1.1 elap:               0.1
 (Enter /home/cwagen/sw/g16/g16/l103.exe)

 GradGradGradGradGradGradGradGradGradGradGradGradGradGradGradGradGradGrad
 Berny optimization.
 FormGI is forming the generalized inverse of G from B-inverse, IUseBI=4.
 Internal  Forces:  Max     0.064547068 RMS     0.017194785
 Search for a local minimum.
 Step number   1 out of a maximum of   41
 All quantities printed in internal units (Hartrees-Bohrs-Radians)
 RMS Force = .16471D-01 SwitMx=.10000D-02 MixMth= 1
 Mixed Optimization -- RFO/linear search
 Second derivative matrix not updated -- first step.
 ITU=  0
     Eigenvalues ---    0.00230   0.04746   0.04746   0.05330   0.05908
     Eigenvalues ---    0.07453   0.10176   0.16000   0.16000   0.16000
     Eigenvalues ---    0.25000   0.25000   0.25000   0.26946   0.33918
     Eigenvalues ---    0.33999   0.34275   0.67840   1.220341000.00000
     Eigenvalues --- 1000.000001000.000001000.000001000.000001000.00000
     Eigenvalues --- 1000.000001000.000001000.000001000.000001000.00000
     Eigenvalues --- 1000.00000
 RFO step:  Lambda=-2.55364965D-02 EMin= 2.30000000D-03
 Linear search not attempted -- first point.
 Iteration  1 RMS(Cart)=  0.08591120 RMS(Int)=  0.00750940
 Iteration  2 RMS(Cart)=  0.00731289 RMS(Int)=  0.00513869
 Iteration  3 RMS(Cart)=  0.00002027 RMS(Int)=  0.00513865
 Iteration  4 RMS(Cart)=  0.00000045 RMS(Int)=  0.00513865
 Iteration  1 RMS(Cart)=  0.00000000 RMS(Int)=  0.00000000
 ITry= 1 IFail=0 DXMaxC= 1.85D-01 DCOld= 1.00D+10 DXMaxT= 3.00D-01 DXLimC= 3.00D+00 Rises=F
 Variable       Old X    -DE/DX   Delta X   Delta X   Delta X     New X
                                 (Linear)    (Quad)   (Total)
    R1        2.45227  -0.06455   0.00000  -0.09169  -0.09169   2.36058
    R2        2.94503  -0.01415   0.00000  -0.04796  -0.04796   2.89707
    R3        4.15740  -0.01234   0.00000   0.00000   0.00000   4.15740
    R4        3.21253  -0.03385   0.00000   0.00000   0.00000   3.21253
    R5        2.07331  -0.00134   0.00000  -0.00366  -0.00366   2.06966
    R6        2.07468  -0.00066   0.00000  -0.00181  -0.00181   2.07287
    R7        2.06868  -0.00126   0.00000  -0.00341  -0.00341   2.06527
    R8        2.20923  -0.00638   0.00000  -0.00512  -0.00512   2.20411
    A1        1.99667   0.02929   0.00000   0.11565   0.10609   2.10275
    A2        2.01908  -0.01175   0.00000  -0.07471  -0.07125   1.94782
    A3        1.89239  -0.00683   0.00000   0.05337   0.03451   1.92690
    A4        1.92419  -0.02104   0.00000  -0.10978  -0.10556   1.81863
    A5        1.77194   0.02861   0.00000   0.12808   0.11668   1.88862
    A6        1.83479  -0.01648   0.00000  -0.09740  -0.09222   1.74256
    A7        1.97398  -0.00124   0.00000  -0.00756  -0.00782   1.96616
    A8        1.87942   0.00461   0.00000   0.02888   0.02901   1.90843
    A9        1.90140  -0.00687   0.00000  -0.04032  -0.04041   1.86099
   A10        1.90356  -0.00086   0.00000   0.00128   0.00123   1.90479
   A11        1.90837   0.00318   0.00000   0.00988   0.00940   1.91777
   A12        1.89554   0.00129   0.00000   0.00873   0.00908   1.90463
   A13        3.09905  -0.00401   0.00000  -0.05496  -0.05496   3.04410
   A14        2.91629   0.00256   0.00000   0.03508   0.03508   2.95137
    D1        3.04510   0.01018   0.00000   0.09787   0.10313  -3.13495
    D2       -1.13357   0.01149   0.00000   0.11452   0.11978  -1.01379
    D3        0.91915   0.01186   0.00000   0.11914   0.12405   1.04320
    D4       -0.92685   0.00015   0.00000  -0.00760  -0.00677  -0.93362
    D5        1.17766   0.00146   0.00000   0.00904   0.00988   1.18754
    D6       -3.05280   0.00183   0.00000   0.01366   0.01415  -3.03865
    D7        1.01121  -0.01243   0.00000  -0.09609  -0.10183   0.90937
    D8        3.11572  -0.01112   0.00000  -0.07944  -0.08519   3.03053
    D9       -1.11475  -0.01075   0.00000  -0.07482  -0.08092  -1.19566
         Item               Value     Threshold  Converged?
 Maximum Force            0.064547     0.000450     NO 
 RMS     Force            0.016471     0.000300     NO 
 Maximum Displacement     0.184775     0.001800     NO 
 RMS     Displacement     0.084532     0.001200     NO 
 Predicted change in Energy=-1.529766D-02
 Lowest energy point so far.  Saving SCF results.
 GradGradGradGradGradGradGradGradGradGradGradGradGradGradGradGradGradGrad

 Leave Link  103 at Wed Jan  8 00:41:18 2020, MaxMem=  4294967296 cpu:              56.3 elap:               4.8
 (Enter /home/cwagen/sw/g16/g16/l202.exe)
                          Input orientation:                          
 ---------------------------------------------------------------------
 Center     Atomic      Atomic             Coordinates (Angstroms)
 Number     Number       Type             X           Y           Z
 ---------------------------------------------------------------------
      1          6           0       -0.124158   -0.379620   -0.236546
      2          8           0       -0.262041   -0.633909   -1.451756
      3          6           0       -0.365546   -1.466297    0.817566
      4          1           0       -0.215313   -1.103124    1.839834
      5          1           0       -1.389167   -1.847836    0.718290
      6          1           0        0.339736   -2.272936    0.602324
      7         17           0       -1.419750    1.282387    0.395256
      8          6           0        1.400526    0.313609    0.054614
      9          7           0        2.517963    0.637988    0.135365
 ---------------------------------------------------------------------
                    Distance matrix (angstroms):
                    1          2          3          4          5
     1  C    0.000000
     2  O    1.249164   0.000000
     3  C    1.533064   2.419381   0.000000
     4  H    2.200709   3.325193   1.095215   0.000000
     5  H    2.160467   2.730043   1.096917   1.786166   0.000000
     6  H    2.122156   2.695885   1.092894   1.791080   1.784170
     7  Cl   2.200000   2.902401   2.974047   3.037784   3.146996
     8  C    1.700000   2.435379   2.620910   2.793756   3.590918
     9  N    2.855634   3.444575   3.634286   3.661622   4.667417
                    6          7          8          9
     6  H    0.000000
     7  Cl   3.972278   0.000000
     8  C    2.848768   3.001420   0.000000
     9  N    3.665543   3.998546   1.166365   0.000000
 Stoichiometry    C3H3ClNO(1-)
 Framework group  C1[X(C3H3ClNO)]
 Deg. of freedom    21
 Full point group                 C1      NOp   1
 RotChk:  IX=0 Diff= 1.65D-01
 Largest Abelian subgroup         C1      NOp   1
 Largest concise Abelian subgroup C1      NOp   1
                         Standard orientation:                         
 ---------------------------------------------------------------------
 Center     Atomic      Atomic             Coordinates (Angstroms)
 Number     Number       Type             X           Y           Z
 ---------------------------------------------------------------------
      1          6           0        0.117451    0.530808    0.223431
      2          8           0        0.175324    0.949247    1.399004
      3          6           0        0.044617    1.515137   -0.949632
      4          1           0       -0.008199    1.011118   -1.920545
      5          1           0       -0.835786    2.158423   -0.830050
      6          1           0        0.946837    2.129799   -0.898573
      7         17           0       -1.609506   -0.798118   -0.079182
      8          6           0        1.382731   -0.563515   -0.079100
      9          7           0        2.369623   -1.174269   -0.194995
 ---------------------------------------------------------------------
 Rotational constants (GHZ):           3.3843132           2.0845781           1.7087657
 Leave Link  202 at Wed Jan  8 00:41:18 2020, MaxMem=  4294967296 cpu:               2.1 elap:               0.2
 (Enter /home/cwagen/sw/g16/g16/l301.exe)
 Standard basis: 6-31+G(d) (6D, 7F)
 Ernie: Thresh=  0.10000D-02 Tol=  0.10000D-05 Strict=F.
 There are   124 symmetry adapted cartesian basis functions of A   symmetry.
 There are   124 symmetry adapted basis functions of A   symmetry.
   124 basis functions,   228 primitive gaussians,   124 cartesian basis functions
    27 alpha electrons       27 beta electrons
       nuclear repulsion energy       247.3578733214 Hartrees.
 IExCor=  402 DFT=T Ex+Corr=B3LYP ExCW=0 ScaHFX=  0.200000
 ScaDFX=  0.800000  0.720000  1.000000  0.810000 ScalE2=  1.000000  1.000000
 IRadAn=      5 IRanWt=     -1 IRanGd=            0 ICorTp=0 IEmpDi=  4
 NAtoms=    9 NActive=    9 NUniq=    9 SFac= 1.00D+00 NAtFMM=   60 NAOKFM=F Big=F
 Integral buffers will be    131072 words long.
 Raffenetti 2 integral format.
 Two-electron integral symmetry is turned on.
 ------------------------------------------------------------------------------
 Polarizable Continuum Model (PCM)
 =================================
 Model                : PCM.
 Atomic radii         : SMD-Coulomb.
 Polarization charges : Total charges.
 Charge compensation  : None.
 Solution method      : On-the-fly selection.
 Cavity type          : VdW (van der Waals Surface) (Alpha=1.000).
 Cavity algorithm     : GePol (No added spheres)
                        Default sphere list used, NSphG=    9.
                        Lebedev-Laikov grids with approx.  5.0 points / Ang**2.
                        Smoothing algorithm: York/Karplus (Gamma=1.0000).
                        Polarization charges: spherical gaussians, with
                                              point-specific exponents (IZeta= 3).
                        Self-potential: point-specific (ISelfS= 7).
                        Self-field    : sphere-specific E.n sum rule (ISelfD= 2).
 1st derivatives      : Analytical E(r).r(x)/FMM algorithm (CHGder, D1EAlg=3).
                        Cavity 1st derivative terms included.
 Solvent              : TetraHydroFuran, Eps=   7.425700 Eps(inf)=   1.974025
 ------------------------------------------------------------------------------
 Spheres list:
 ISph  on   Nord     Re0    Alpha      Xe            Ye            Ze
    1   C      1    1.8500  1.000      0.117451      0.530808      0.223431
    2   O      2    2.2940  1.000      0.175324      0.949247      1.399004
    3   C      3    1.8500  1.000      0.044617      1.515137     -0.949632
    4   H      4    1.2000  1.000     -0.008199      1.011118     -1.920545
    5   H      5    1.2000  1.000     -0.835786      2.158423     -0.830050
    6   H      6    1.2000  1.000      0.946837      2.129799     -0.898573
    7  Cl      7    2.3800  1.000     -1.609506     -0.798118     -0.079182
    8   C      8    1.8500  1.000      1.382731     -0.563515     -0.079100
    9   N      9    1.8900  1.000      2.369623     -1.174269     -0.194995
 ------------------------------------------------------------------------------
 GePol: Number of generator spheres                  =       9
 GePol: Total number of spheres                      =       9
 GePol: Number of exposed spheres                    =       9 (100.00%)
 GePol: Number of points                             =    1175
 GePol: Average weight of points                     =       0.13
 GePol: Minimum weight of points                     =   0.17D-08
 GePol: Maximum weight of points                     =    0.18138
 GePol: Number of points with low weight             =      45
 GePol: Fraction of low-weight points (<1% of avg)   =       3.83%
 GePol: Cavity surface area                          =    157.577 Ang**2
 GePol: Cavity volume                                =    145.005 Ang**3
 ------------------------------------------------------------------------------
 Atomic radii for non-electrostatic terms: SMD-CDS.
 ------------------------------------------------------------------------------
 PCM non-electrostatic energy =        -0.0009646591 Hartrees.
 Nuclear repulsion after PCM non-electrostatic terms =      247.3569086624 Hartrees.
 Leave Link  301 at Wed Jan  8 00:41:18 2020, MaxMem=  4294967296 cpu:               2.2 elap:               0.2
 (Enter /home/cwagen/sw/g16/g16/l302.exe)
 NPDir=0 NMtPBC=     1 NCelOv=     1 NCel=       1 NClECP=     1 NCelD=      1
         NCelK=      1 NCelE2=     1 NClLst=     1 CellRange=     0.0.
 One-electron integrals computed using PRISM.
 One-electron integral symmetry used in STVInt
 NBasis=   124 RedAO= T EigKep=  5.18D-05  NBF=   124
 NBsUse=   124 1.00D-06 EigRej= -1.00D+00 NBFU=   124
 Precomputing XC quadrature grid using
 IXCGrd= 4 IRadAn=           5 IRanWt=          -1 IRanGd=           0 AccXCQ= 0.00D+00.
 Generated NRdTot=       0 NPtTot=           0 NUsed=           0 NTot=          32
 NSgBfM=   124   124   124   124   124 MxSgAt=     9 MxSgA2=     9.
 Leave Link  302 at Wed Jan  8 00:41:21 2020, MaxMem=  4294967296 cpu:              28.5 elap:               2.6
 (Enter /home/cwagen/sw/g16/g16/l303.exe)
 DipDrv:  MaxL=1.
 Leave Link  303 at Wed Jan  8 00:41:21 2020, MaxMem=  4294967296 cpu:               3.2 elap:               0.4
 (Enter /home/cwagen/sw/g16/g16/l401.exe)
 Initial guess from the checkpoint file:  "/scratch/users/cwagen/cwagen_scan_220_170/Gau-60164.chk"
 B after Tr=     0.000000    0.000000    0.000000
         Rot=    0.998767   -0.001745   -0.008827   -0.048812 Ang=  -5.69 deg.
 Guess basis will be translated and rotated to current coordinates.
 JPrj=2 DoOrth=T DoCkMO=T.
 Generating alternative initial guess.
 ExpMin= 4.38D-02 ExpMax= 2.52D+04 ExpMxC= 3.78D+03 IAcc=2 IRadAn=         4 AccDes= 0.00D+00
 Harris functional with IExCor=  402 and IRadAn=       4 diagonalized for initial guess.
 HarFok:  IExCor=  402 AccDes= 0.00D+00 IRadAn=         4 IDoV= 1 UseB2=F ITyADJ=14
 ICtDFT=  3500011 ScaDFX=  1.000000  1.000000  1.000000  1.000000
 FoFCou: FMM=F IPFlag=           0 FMFlag=      100000 FMFlg1=           0
         NFxFlg=           0 DoJE=T BraDBF=F KetDBF=T FulRan=T
         wScrn=  0.000000 ICntrl=       500 IOpCl=  0 I1Cent=   200000004 NGrid=           0
         NMat0=    1 NMatS0=      1 NMatT0=    0 NMatD0=    1 NMtDS0=    0 NMtDT0=    0
 Petite list used in FoFCou.
 Harris En= -706.423905944372    
 Leave Link  401 at Wed Jan  8 00:41:25 2020, MaxMem=  4294967296 cpu:              46.0 elap:               3.9
 (Enter /home/cwagen/sw/g16/g16/l502.exe)
 Keep R1 ints in memory in canonical form, NReq=45236517.
 FoFCou: FMM=F IPFlag=           0 FMFlag=           0 FMFlg1=           0
         NFxFlg=           0 DoJE=F BraDBF=F KetDBF=F FulRan=T
         wScrn=  0.000000 ICntrl=       600 IOpCl=  0 I1Cent=           0 NGrid=           0
         NMat0=    1 NMatS0=   7750 NMatT0=    0 NMatD0=    1 NMtDS0=    0 NMtDT0=    0
 Symmetry not used in FoFCou.
 Two-electron integral symmetry not used.
 Closed shell SCF:
 Using DIIS extrapolation, IDIIS=  1040.
 NGot=  4294967296 LenX=  4264898079 LenY=  4264882262
 Requested convergence on RMS density matrix=1.00D-08 within 128 cycles.
 Requested convergence on MAX density matrix=1.00D-06.
 Requested convergence on             energy=1.00D-06.
 No special actions if energy rises.

 Cycle   1  Pass 1  IDiag  1:
 Inv3:  Mode=1 IEnd=     4141875.
 Iteration    1 A*A^-1 deviation from unit magnitude is 5.11D-15 for   1154.
 Iteration    1 A*A^-1 deviation from orthogonality  is 1.82D-15 for   1162    950.
 Iteration    1 A^-1*A deviation from unit magnitude is 4.88D-15 for   1154.
 Iteration    1 A^-1*A deviation from orthogonality  is 1.81D-15 for   1168    956.
 E= -706.413874264018    
 DIIS: error= 4.89D-03 at cycle   1 NSaved=   1.
 NSaved= 1 IEnMin= 1 EnMin= -706.413874264018     IErMin= 1 ErrMin= 4.89D-03
 ErrMax= 4.89D-03  0.00D+00 EMaxC= 1.00D-01 BMatC= 9.04D-03 BMatP= 9.04D-03
 IDIUse=3 WtCom= 9.51D-01 WtEn= 4.89D-02
 Coeff-Com:  0.100D+01
 Coeff-En:   0.100D+01
 Coeff:      0.100D+01
 Gap=     0.583 Goal=   None    Shift=    0.000
 GapD=    0.583 DampG=2.000 DampE=1.000 DampFc=2.0000 IDamp=-1.
 RMSDP=2.62D-03 MaxDP=4.01D-02              OVMax= 3.63D-02

 Cycle   2  Pass 1  IDiag  1:
 E= -706.427795312090     Delta-E=       -0.013921048072 Rises=F Damp=F
 DIIS: error= 1.33D-03 at cycle   2 NSaved=   2.
 NSaved= 2 IEnMin= 2 EnMin= -706.427795312090     IErMin= 2 ErrMin= 1.33D-03
 ErrMax= 1.33D-03  0.00D+00 EMaxC= 1.00D-01 BMatC= 5.51D-04 BMatP= 9.04D-03
 IDIUse=3 WtCom= 9.87D-01 WtEn= 1.33D-02
 Coeff-Com:  0.469D-01 0.953D+00
 Coeff-En:   0.000D+00 0.100D+01
 Coeff:      0.463D-01 0.954D+00
 Gap=     0.223 Goal=   None    Shift=    0.000
 RMSDP=6.82D-04 MaxDP=1.37D-02 DE=-1.39D-02 OVMax= 1.97D-02

 Cycle   3  Pass 1  IDiag  1:
 E= -706.427126801063     Delta-E=        0.000668511028 Rises=F Damp=F
 DIIS: error= 2.19D-03 at cycle   3 NSaved=   3.
 NSaved= 3 IEnMin= 2 EnMin= -706.427795312090     IErMin= 2 ErrMin= 1.33D-03
 ErrMax= 2.19D-03  0.00D+00 EMaxC= 1.00D-01 BMatC= 1.31D-03 BMatP= 5.51D-04
 IDIUse=3 WtCom= 1.76D-01 WtEn= 8.24D-01
 Coeff-Com: -0.317D-01 0.628D+00 0.403D+00
 Coeff-En:   0.000D+00 0.666D+00 0.334D+00
 Coeff:     -0.558D-02 0.659D+00 0.346D+00
 Gap=     0.224 Goal=   None    Shift=    0.000
 RMSDP=4.87D-04 MaxDP=1.07D-02 DE= 6.69D-04 OVMax= 1.31D-02

 Cycle   4  Pass 1  IDiag  1:
 E= -706.428364263500     Delta-E=       -0.001237462437 Rises=F Damp=F
 DIIS: error= 3.72D-04 at cycle   4 NSaved=   4.
 NSaved= 4 IEnMin= 4 EnMin= -706.428364263500     IErMin= 4 ErrMin= 3.72D-04
 ErrMax= 3.72D-04  0.00D+00 EMaxC= 1.00D-01 BMatC= 3.54D-05 BMatP= 5.51D-04
 IDIUse=3 WtCom= 9.96D-01 WtEn= 3.72D-03
 Coeff-Com: -0.218D-01 0.289D+00 0.186D+00 0.548D+00
 Coeff-En:   0.000D+00 0.000D+00 0.000D+00 0.100D+01
 Coeff:     -0.217D-01 0.288D+00 0.185D+00 0.549D+00
 Gap=     0.222 Goal=   None    Shift=    0.000
 RMSDP=9.90D-05 MaxDP=2.74D-03 DE=-1.24D-03 OVMax= 1.77D-03

 Cycle   5  Pass 1  IDiag  1:
 E= -706.428390208880     Delta-E=       -0.000025945380 Rises=F Damp=F
 DIIS: error= 1.36D-04 at cycle   5 NSaved=   5.
 NSaved= 5 IEnMin= 5 EnMin= -706.428390208880     IErMin= 5 ErrMin= 1.36D-04
 ErrMax= 1.36D-04  0.00D+00 EMaxC= 1.00D-01 BMatC= 6.75D-06 BMatP= 3.54D-05
 IDIUse=3 WtCom= 9.99D-01 WtEn= 1.36D-03
 Coeff-Com: -0.583D-02 0.585D-01 0.471D-01 0.308D+00 0.592D+00
 Coeff-En:   0.000D+00 0.000D+00 0.000D+00 0.160D+00 0.840D+00
 Coeff:     -0.583D-02 0.584D-01 0.470D-01 0.308D+00 0.592D+00
 Gap=     0.222 Goal=   None    Shift=    0.000
 RMSDP=4.46D-05 MaxDP=1.04D-03 DE=-2.59D-05 OVMax= 6.98D-04

 Cycle   6  Pass 1  IDiag  1:
 E= -706.428396940298     Delta-E=       -0.000006731418 Rises=F Damp=F
 DIIS: error= 2.53D-05 at cycle   6 NSaved=   6.
 NSaved= 6 IEnMin= 6 EnMin= -706.428396940298     IErMin= 6 ErrMin= 2.53D-05
 ErrMax= 2.53D-05  0.00D+00 EMaxC= 1.00D-01 BMatC= 1.40D-07 BMatP= 6.75D-06
 IDIUse=1 WtCom= 1.00D+00 WtEn= 0.00D+00
 Coeff-Com: -0.234D-03-0.531D-02-0.100D-02 0.564D-01 0.183D+00 0.767D+00
 Coeff:     -0.234D-03-0.531D-02-0.100D-02 0.564D-01 0.183D+00 0.767D+00
 Gap=     0.222 Goal=   None    Shift=    0.000
 RMSDP=9.25D-06 MaxDP=2.84D-04 DE=-6.73D-06 OVMax= 1.79D-04

 Cycle   7  Pass 1  IDiag  1:
 E= -706.428397075954     Delta-E=       -0.000000135655 Rises=F Damp=F
 DIIS: error= 1.07D-05 at cycle   7 NSaved=   7.
 NSaved= 7 IEnMin= 7 EnMin= -706.428397075954     IErMin= 7 ErrMin= 1.07D-05
 ErrMax= 1.07D-05  0.00D+00 EMaxC= 1.00D-01 BMatC= 3.28D-08 BMatP= 1.40D-07
 IDIUse=1 WtCom= 1.00D+00 WtEn= 0.00D+00
 Coeff-Com:  0.205D-03-0.661D-02-0.369D-02 0.143D-01 0.691D-01 0.416D+00
 Coeff-Com:  0.511D+00
 Coeff:      0.205D-03-0.661D-02-0.369D-02 0.143D-01 0.691D-01 0.416D+00
 Coeff:      0.511D+00
 Gap=     0.222 Goal=   None    Shift=    0.000
 RMSDP=2.97D-06 MaxDP=6.42D-05 DE=-1.36D-07 OVMax= 6.42D-05

 Cycle   8  Pass 1  IDiag  1:
 E= -706.428397103280     Delta-E=       -0.000000027326 Rises=F Damp=F
 DIIS: error= 5.13D-06 at cycle   8 NSaved=   8.
 NSaved= 8 IEnMin= 8 EnMin= -706.428397103280     IErMin= 8 ErrMin= 5.13D-06
 ErrMax= 5.13D-06  0.00D+00 EMaxC= 1.00D-01 BMatC= 9.71D-09 BMatP= 3.28D-08
 IDIUse=1 WtCom= 1.00D+00 WtEn= 0.00D+00
 Coeff-Com:  0.185D-03-0.415D-02-0.277D-02 0.282D-02 0.256D-01 0.200D+00
 Coeff-Com:  0.362D+00 0.417D+00
 Coeff:      0.185D-03-0.415D-02-0.277D-02 0.282D-02 0.256D-01 0.200D+00
 Coeff:      0.362D+00 0.417D+00
 Gap=     0.222 Goal=   None    Shift=    0.000
 RMSDP=8.75D-07 MaxDP=1.85D-05 DE=-2.73D-08 OVMax= 2.92D-05

 Cycle   9  Pass 1  IDiag  1:
 E= -706.428397110742     Delta-E=       -0.000000007462 Rises=F Damp=F
 DIIS: error= 1.26D-06 at cycle   9 NSaved=   9.
 NSaved= 9 IEnMin= 9 EnMin= -706.428397110742     IErMin= 9 ErrMin= 1.26D-06
 ErrMax= 1.26D-06  0.00D+00 EMaxC= 1.00D-01 BMatC= 5.32D-10 BMatP= 9.71D-09
 IDIUse=1 WtCom= 1.00D+00 WtEn= 0.00D+00
 Coeff-Com:  0.534D-04-0.772D-03-0.822D-03-0.118D-02-0.801D-03 0.153D-01
 Coeff-Com:  0.865D-01 0.207D+00 0.694D+00
 Coeff:      0.534D-04-0.772D-03-0.822D-03-0.118D-02-0.801D-03 0.153D-01
 Coeff:      0.865D-01 0.207D+00 0.694D+00
 Gap=     0.222 Goal=   None    Shift=    0.000
 RMSDP=3.30D-07 MaxDP=8.21D-06 DE=-7.46D-09 OVMax= 8.73D-06

 Cycle  10  Pass 1  IDiag  1:
 E= -706.428397111306     Delta-E=       -0.000000000564 Rises=F Damp=F
 DIIS: error= 2.55D-07 at cycle  10 NSaved=  10.
 NSaved=10 IEnMin=10 EnMin= -706.428397111306     IErMin=10 ErrMin= 2.55D-07
 ErrMax= 2.55D-07  0.00D+00 EMaxC= 1.00D-01 BMatC= 2.86D-11 BMatP= 5.32D-10
 IDIUse=1 WtCom= 1.00D+00 WtEn= 0.00D+00
 Coeff-Com:  0.655D-05 0.352D-04-0.967D-04-0.645D-03-0.222D-02-0.976D-02
 Coeff-Com:  0.592D-02 0.430D-01 0.279D+00 0.685D+00
 Coeff:      0.655D-05 0.352D-04-0.967D-04-0.645D-03-0.222D-02-0.976D-02
 Coeff:      0.592D-02 0.430D-01 0.279D+00 0.685D+00
 Gap=     0.222 Goal=   None    Shift=    0.000
 RMSDP=1.00D-07 MaxDP=2.23D-06 DE=-5.64D-10 OVMax= 2.24D-06

 Cycle  11  Pass 1  IDiag  1:
 E= -706.428397111343     Delta-E=       -0.000000000038 Rises=F Damp=F
 DIIS: error= 6.49D-08 at cycle  11 NSaved=  11.
 NSaved=11 IEnMin=11 EnMin= -706.428397111343     IErMin=11 ErrMin= 6.49D-08
 ErrMax= 6.49D-08  0.00D+00 EMaxC= 1.00D-01 BMatC= 1.43D-12 BMatP= 2.86D-11
 IDIUse=1 WtCom= 1.00D+00 WtEn= 0.00D+00
 Coeff-Com: -0.131D-05 0.632D-04 0.311D-04-0.158D-03-0.694D-03-0.422D-02
 Coeff-Com: -0.337D-02 0.140D-02 0.491D-01 0.225D+00 0.733D+00
 Coeff:     -0.131D-05 0.632D-04 0.311D-04-0.158D-03-0.694D-03-0.422D-02
 Coeff:     -0.337D-02 0.140D-02 0.491D-01 0.225D+00 0.733D+00
 Gap=     0.222 Goal=   None    Shift=    0.000
 RMSDP=3.35D-08 MaxDP=9.10D-07 DE=-3.77D-11 OVMax= 5.37D-07

 Cycle  12  Pass 1  IDiag  1:
 E= -706.428397111341     Delta-E=        0.000000000002 Rises=F Damp=F
 DIIS: error= 1.99D-08 at cycle  12 NSaved=  12.
 NSaved=12 IEnMin=11 EnMin= -706.428397111343     IErMin=12 ErrMin= 1.99D-08
 ErrMax= 1.99D-08  0.00D+00 EMaxC= 1.00D-01 BMatC= 6.33D-14 BMatP= 1.43D-12
 IDIUse=1 WtCom= 1.00D+00 WtEn= 0.00D+00
 Coeff-Com: -0.546D-06 0.112D-04 0.137D-04-0.856D-05-0.501D-04-0.418D-03
 Coeff-Com: -0.103D-02-0.203D-02-0.286D-02 0.165D-01 0.193D+00 0.797D+00
 Coeff:     -0.546D-06 0.112D-04 0.137D-04-0.856D-05-0.501D-04-0.418D-03
 Coeff:     -0.103D-02-0.203D-02-0.286D-02 0.165D-01 0.193D+00 0.797D+00
 Gap=     0.222 Goal=   None    Shift=    0.000
 RMSDP=9.50D-09 MaxDP=2.91D-07 DE= 2.05D-12 OVMax= 2.08D-07

 Error on total polarization charges =  0.02262
 SCF Done:  E(RB3LYP) =  -706.428397111     A.U. after   12 cycles
            NFock= 12  Conv=0.95D-08     -V/T= 2.0057
 KE= 7.024231211838D+02 PE=-2.173131629416D+03 EE= 5.169232024590D+02
 SMD-CDS (non-electrostatic) energy       (kcal/mol) =      -0.61
 (included in total energy above)
 Leave Link  502 at Wed Jan  8 00:42:00 2020, MaxMem=  4294967296 cpu:             460.9 elap:              34.6
 (Enter /home/cwagen/sw/g16/g16/l701.exe)
 ... and contract with generalized density number  0.
 Compute integral first derivatives.
 D1PCM: PCM CHGder 1st derivatives, ID1Alg=3 FixD1E=F DoIter=F DoCFld=F I1PDM=0.
 GePol: Maximum number of non-zero 1st derivatives   =     361
 Leave Link  701 at Wed Jan  8 00:42:05 2020, MaxMem=  4294967296 cpu:              57.7 elap:               5.0
 (Enter /home/cwagen/sw/g16/g16/l702.exe)
 L702 exits ... SP integral derivatives will be done elsewhere.
 Leave Link  702 at Wed Jan  8 00:42:05 2020, MaxMem=  4294967296 cpu:               1.2 elap:               0.1
 (Enter /home/cwagen/sw/g16/g16/l703.exe)
 Integral derivatives from FoFJK, PRISM(SPDF).
 Compute integral first derivatives, UseDBF=F ICtDFT=           0.
 Calling FoFJK, ICntrl=      2127 FMM=F ISym2X=0 I1Cent= 0 IOpClX= 0 NMat=1 NMatS=1 NMatT=0.
 FoFJK:  IHMeth= 1 ICntrl=    2127 DoSepK=F KAlg= 0 I1Cent=           0 FoldK=F
 IRaf=         0 NMat=       1 IRICut=       1 DoRegI=T DoRafI=F ISym2E= 0 IDoP0=0 IntGTp=1.
 FoFCou: FMM=F IPFlag=           0 FMFlag=      100000 FMFlg1=         800
         NFxFlg=           0 DoJE=F BraDBF=F KetDBF=F FulRan=T
         wScrn=  0.000000 ICntrl=      2127 IOpCl=  0 I1Cent=           0 NGrid=           0
         NMat0=    1 NMatS0=      1 NMatT0=    0 NMatD0=    1 NMtDS0=    0 NMtDT0=    0
 Symmetry not used in FoFCou.
 Leave Link  703 at Wed Jan  8 00:42:08 2020, MaxMem=  4294967296 cpu:              38.4 elap:               3.5
 (Enter /home/cwagen/sw/g16/g16/l716.exe)
 Dipole        =-8.72590062D-02 1.60318287D+00-1.20571134D+00
 ***** Axes restored to original set *****
 -------------------------------------------------------------------
 Center     Atomic                   Forces (Hartrees/Bohr)
 Number     Number              X              Y              Z
 -------------------------------------------------------------------
      1        6           0.042536692   -0.015444365   -0.027099962
      2        8          -0.005035899    0.009953686    0.024154994
      3        6          -0.006480122    0.012811155    0.001578961
      4        1           0.000489849   -0.000230954   -0.001398772
      5        1           0.001495461    0.000823587   -0.000843522
      6        1           0.001534083   -0.001732995    0.000238583
      7       17          -0.000542780    0.002660771    0.003286266
      8        6          -0.032964719   -0.009784320    0.000777439
      9        7          -0.001032565    0.000943434   -0.000693987
 -------------------------------------------------------------------
 Cartesian Forces:  Max     0.042536692 RMS     0.013490365
 Leave Link  716 at Wed Jan  8 00:42:09 2020, MaxMem=  4294967296 cpu:               1.0 elap:               0.1
 (Enter /home/cwagen/sw/g16/g16/l103.exe)

 GradGradGradGradGradGradGradGradGradGradGradGradGradGradGradGradGradGrad
 Berny optimization.
 Using GEDIIS/GDIIS optimizer.
 FormGI is forming the generalized inverse of G from B-inverse, IUseBI=4.
 Internal  Forces:  Max     0.034080631 RMS     0.008559333
 Search for a local minimum.
 Step number   2 out of a maximum of   41
 All quantities printed in internal units (Hartrees-Bohrs-Radians)
 RMS Force = .61557D-02 SwitMx=.10000D-02 MixMth= 1
 Mixed Optimization -- RFO/linear search
 Update second derivatives using D2CorX and points    1    2
 DE= -1.69D-02 DEPred=-1.53D-02 R= 1.10D+00
 TightC=F SS=  1.41D+00  RLast= 3.65D-01 DXNew= 5.0454D-01 1.0957D+00
 Trust test= 1.10D+00 RLast= 3.65D-01 DXMaxT set to 5.05D-01
 ITU=  1  0
 Use linear search instead of GDIIS.
     Eigenvalues ---    0.00231   0.04724   0.04767   0.05402   0.05978
     Eigenvalues ---    0.06705   0.09038   0.15989   0.16000   0.16272
     Eigenvalues ---    0.24303   0.25000   0.26186   0.28650   0.33931
     Eigenvalues ---    0.33995   0.34418   0.58169   1.220321000.00000
     Eigenvalues --- 1000.000001000.000001000.000001000.000001000.00000
     Eigenvalues --- 1000.000001000.000001000.000001000.000001000.00000
     Eigenvalues --- 1000.00000
 RFO step:  Lambda=-3.30847164D-03 EMin= 2.30505445D-03
 Quartic linear search produced a step of  0.47210.
 Iteration  1 RMS(Cart)=  0.08034394 RMS(Int)=  0.00605537
 Iteration  2 RMS(Cart)=  0.00546540 RMS(Int)=  0.00409783
 Iteration  3 RMS(Cart)=  0.00001555 RMS(Int)=  0.00409780
 Iteration  4 RMS(Cart)=  0.00000025 RMS(Int)=  0.00409780
 Iteration  1 RMS(Cart)=  0.00000000 RMS(Int)=  0.00000000
 ITry= 1 IFail=0 DXMaxC= 2.28D-01 DCOld= 1.00D+10 DXMaxT= 5.05D-01 DXLimC= 3.00D+00 Rises=F
 Variable       Old X    -DE/DX   Delta X   Delta X   Delta X     New X
                                 (Linear)    (Quad)   (Total)
    R1        2.36058  -0.02497  -0.04329  -0.02029  -0.06358   2.29700
    R2        2.89707  -0.00816  -0.02264  -0.02511  -0.04775   2.84932
    R3        4.15740   0.00328   0.00000   0.00000   0.00000   4.15740
    R4        3.21253  -0.03408   0.00000   0.00000   0.00000   3.21253
    R5        2.06966  -0.00133  -0.00173  -0.00431  -0.00603   2.06362
    R6        2.07287  -0.00161  -0.00086  -0.00627  -0.00713   2.06574
    R7        2.06527   0.00231  -0.00161   0.01127   0.00966   2.07493
    R8        2.20411  -0.00078  -0.00242   0.00092  -0.00150   2.20261
    A1        2.10275   0.00783   0.05008   0.01819   0.05939   2.16214
    A2        1.94782  -0.00104  -0.03364   0.00702  -0.02288   1.92494
    A3        1.92690   0.00330   0.01629   0.06317   0.06485   1.99175
    A4        1.81863  -0.00805  -0.04984  -0.03195  -0.07871   1.73992
    A5        1.88862   0.00001   0.05508  -0.03259   0.01120   1.89982
    A6        1.74256  -0.00492  -0.04354  -0.04014  -0.08195   1.66062
    A7        1.96616  -0.00043  -0.00369  -0.00061  -0.00443   1.96173
    A8        1.90843  -0.00126   0.01369  -0.02428  -0.01053   1.89790
    A9        1.86099   0.00082  -0.01908   0.02531   0.00620   1.86719
   A10        1.90479   0.00102   0.00058   0.00850   0.00904   1.91383
   A11        1.91777  -0.00034   0.00444  -0.00673  -0.00251   1.91525
   A12        1.90463   0.00018   0.00429  -0.00229   0.00218   1.90681
   A13        3.04410   0.00298  -0.02594   0.12173   0.09579   3.13988
   A14        2.95137  -0.00043   0.01656  -0.03480  -0.01824   2.93313
    D1       -3.13495   0.00487   0.04869   0.01644   0.06887  -3.06608
    D2       -1.01379   0.00499   0.05655   0.00974   0.07005  -0.94374
    D3        1.04320   0.00501   0.05857   0.00837   0.07052   1.11372
    D4       -0.93362   0.00191  -0.00320   0.01044   0.00691  -0.92671
    D5        1.18754   0.00203   0.00466   0.00374   0.00809   1.19563
    D6       -3.03865   0.00204   0.00668   0.00237   0.00856  -3.03010
    D7        0.90937  -0.00687  -0.04808  -0.05887  -0.11021   0.79916
    D8        3.03053  -0.00674  -0.04022  -0.06557  -0.10903   2.92151
    D9       -1.19566  -0.00673  -0.03820  -0.06694  -0.10856  -1.30422
         Item               Value     Threshold  Converged?
 Maximum Force            0.024972     0.000450     NO 
 RMS     Force            0.006156     0.000300     NO 
 Maximum Displacement     0.228387     0.001800     NO 
 RMS     Displacement     0.080920     0.001200     NO 
 Predicted change in Energy=-4.022847D-03
 Lowest energy point so far.  Saving SCF results.
 GradGradGradGradGradGradGradGradGradGradGradGradGradGradGradGradGradGrad

 Leave Link  103 at Wed Jan  8 00:42:15 2020, MaxMem=  4294967296 cpu:              67.9 elap:               6.1
 (Enter /home/cwagen/sw/g16/g16/l202.exe)
                          Input orientation:                          
 ---------------------------------------------------------------------
 Center     Atomic      Atomic             Coordinates (Angstroms)
 Number     Number       Type             X           Y           Z
 ---------------------------------------------------------------------
      1          6           0       -0.082381   -0.453412   -0.273727
      2          8           0       -0.279539   -0.647537   -1.457335
      3          6           0       -0.375789   -1.465815    0.804419
      4          1           0       -0.198972   -1.069593    1.806546
      5          1           0       -1.417649   -1.783935    0.713367
      6          1           0        0.282452   -2.325993    0.624333
      7         17           0       -1.320177    1.218713    0.441714
      8          6           0        1.403062    0.298989    0.068840
      9          7           0        2.471244    0.758845    0.146790
 ---------------------------------------------------------------------
                    Distance matrix (angstroms):
                    1          2          3          4          5
     1  C    0.000000
     2  O    1.215518   0.000000
     3  C    1.507795   2.407151   0.000000
     4  H    2.172742   3.292042   1.092022   0.000000
     5  H    2.127813   2.701601   1.093144   1.786196   0.000000
     6  H    2.108595   2.732470   1.098006   1.791071   1.786644
     7  Cl   2.200000   2.858708   2.868818   2.890712   3.016487
     8  C    1.700000   2.460948   2.611498   2.731145   3.565165
     9  N    2.857867   3.481083   3.672490   3.637036   4.680837
                    6          7          8          9
     6  H    0.000000
     7  Cl   3.894446   0.000000
     8  C    2.907726   2.898441   0.000000
     9  N    3.812491   3.830579   1.165572   0.000000
 Stoichiometry    C3H3ClNO(1-)
 Framework group  C1[X(C3H3ClNO)]
 Deg. of freedom    21
 Full point group                 C1      NOp   1
 RotChk:  IX=0 Diff= 1.60D-01
 Largest Abelian subgroup         C1      NOp   1
 Largest concise Abelian subgroup C1      NOp   1
                         Standard orientation:                         
 ---------------------------------------------------------------------
 Center     Atomic      Atomic             Coordinates (Angstroms)
 Number     Number       Type             X           Y           Z
 ---------------------------------------------------------------------
      1          6           0        0.100991    0.613137    0.226771
      2          8           0        0.074710    1.044635    1.362819
      3          6           0       -0.159368    1.453445   -0.997787
      4          1           0       -0.162503    0.861679   -1.915565
      5          1           0       -1.123297    1.955552   -0.880763
      6          1           0        0.637923    2.206904   -1.045150
      7         17           0       -1.450438   -0.923395   -0.041813
      8          6           0        1.405310   -0.430107   -0.090078
      9          7           0        2.375149   -1.071764   -0.169098
 ---------------------------------------------------------------------
 Rotational constants (GHZ):           3.3069182           2.2341304           1.7813422
 Leave Link  202 at Wed Jan  8 00:42:15 2020, MaxMem=  4294967296 cpu:               2.0 elap:               0.2
 (Enter /home/cwagen/sw/g16/g16/l301.exe)
 Standard basis: 6-31+G(d) (6D, 7F)
 Ernie: Thresh=  0.10000D-02 Tol=  0.10000D-05 Strict=F.
 There are   124 symmetry adapted cartesian basis functions of A   symmetry.
 There are   124 symmetry adapted basis functions of A   symmetry.
   124 basis functions,   228 primitive gaussians,   124 cartesian basis functions
    27 alpha electrons       27 beta electrons
       nuclear repulsion energy       250.6858573505 Hartrees.
 IExCor=  402 DFT=T Ex+Corr=B3LYP ExCW=0 ScaHFX=  0.200000
 ScaDFX=  0.800000  0.720000  1.000000  0.810000 ScalE2=  1.000000  1.000000
 IRadAn=      5 IRanWt=     -1 IRanGd=            0 ICorTp=0 IEmpDi=  4
 NAtoms=    9 NActive=    9 NUniq=    9 SFac= 1.00D+00 NAtFMM=   60 NAOKFM=F Big=F
 Integral buffers will be    131072 words long.
 Raffenetti 2 integral format.
 Two-electron integral symmetry is turned on.
 ------------------------------------------------------------------------------
 Polarizable Continuum Model (PCM)
 =================================
 Model                : PCM.
 Atomic radii         : SMD-Coulomb.
 Polarization charges : Total charges.
 Charge compensation  : None.
 Solution method      : On-the-fly selection.
 Cavity type          : VdW (van der Waals Surface) (Alpha=1.000).
 Cavity algorithm     : GePol (No added spheres)
                        Default sphere list used, NSphG=    9.
                        Lebedev-Laikov grids with approx.  5.0 points / Ang**2.
                        Smoothing algorithm: York/Karplus (Gamma=1.0000).
                        Polarization charges: spherical gaussians, with
                                              point-specific exponents (IZeta= 3).
                        Self-potential: point-specific (ISelfS= 7).
                        Self-field    : sphere-specific E.n sum rule (ISelfD= 2).
 1st derivatives      : Analytical E(r).r(x)/FMM algorithm (CHGder, D1EAlg=3).
                        Cavity 1st derivative terms included.
 Solvent              : TetraHydroFuran, Eps=   7.425700 Eps(inf)=   1.974025
 ------------------------------------------------------------------------------
 Spheres list:
 ISph  on   Nord     Re0    Alpha      Xe            Ye            Ze
    1   C      1    1.8500  1.000      0.100991      0.613137      0.226771
    2   O      2    2.2940  1.000      0.074710      1.044635      1.362819
    3   C      3    1.8500  1.000     -0.159368      1.453445     -0.997787
    4   H      4    1.2000  1.000     -0.162503      0.861679     -1.915565
    5   H      5    1.2000  1.000     -1.123297      1.955552     -0.880763
    6   H      6    1.2000  1.000      0.637923      2.206904     -1.045150
    7  Cl      7    2.3800  1.000     -1.450438     -0.923395     -0.041813
    8   C      8    1.8500  1.000      1.405310     -0.430107     -0.090078
    9   N      9    1.8900  1.000      2.375149     -1.071764     -0.169098
 ------------------------------------------------------------------------------
 GePol: Number of generator spheres                  =       9
 GePol: Total number of spheres                      =       9
 GePol: Number of exposed spheres                    =       9 (100.00%)
 GePol: Number of points                             =    1143
 GePol: Average weight of points                     =       0.14
 GePol: Minimum weight of points                     =   0.77D-11
 GePol: Maximum weight of points                     =    0.18138
 GePol: Number of points with low weight             =      22
 GePol: Fraction of low-weight points (<1% of avg)   =       1.92%
 GePol: Cavity surface area                          =    156.015 Ang**2
 GePol: Cavity volume                                =    143.879 Ang**3
 ------------------------------------------------------------------------------
 Atomic radii for non-electrostatic terms: SMD-CDS.
 ------------------------------------------------------------------------------
 PCM non-electrostatic energy =        -0.0009687751 Hartrees.
 Nuclear repulsion after PCM non-electrostatic terms =      250.6848885754 Hartrees.
 Leave Link  301 at Wed Jan  8 00:42:15 2020, MaxMem=  4294967296 cpu:               2.0 elap:               0.2
 (Enter /home/cwagen/sw/g16/g16/l302.exe)
 NPDir=0 NMtPBC=     1 NCelOv=     1 NCel=       1 NClECP=     1 NCelD=      1
         NCelK=      1 NCelE2=     1 NClLst=     1 CellRange=     0.0.
 One-electron integrals computed using PRISM.
 One-electron integral symmetry used in STVInt
 NBasis=   124 RedAO= T EigKep=  4.43D-05  NBF=   124
 NBsUse=   124 1.00D-06 EigRej= -1.00D+00 NBFU=   124
 Precomputing XC quadrature grid using
 IXCGrd= 4 IRadAn=           5 IRanWt=          -1 IRanGd=           0 AccXCQ= 0.00D+00.
 Generated NRdTot=       0 NPtTot=           0 NUsed=           0 NTot=          32
 NSgBfM=   124   124   124   124   124 MxSgAt=     9 MxSgA2=     9.
 Leave Link  302 at Wed Jan  8 00:42:17 2020, MaxMem=  4294967296 cpu:              25.5 elap:               2.2
[...]
      4        1          -0.000031493    0.000002839    0.000004475
      5        1          -0.000000082    0.000004630    0.000005370
      6        1           0.000019958    0.000010063    0.000016817
      7       17          -0.008237961    0.011507659    0.004887928
      8        6          -0.028441023   -0.014724482   -0.006507489
      9        7          -0.000012840    0.000009657    0.000006204
 -------------------------------------------------------------------
 Cartesian Forces:  Max     0.036697762 RMS     0.009909938
 Leave Link  716 at Wed Jan  8 00:46:21 2020, MaxMem=  4294967296 cpu:               1.1 elap:               0.1
 (Enter /home/cwagen/sw/g16/g16/l103.exe)

 GradGradGradGradGradGradGradGradGradGradGradGradGradGradGradGradGradGrad
 Berny optimization.
 Using GEDIIS/GDIIS optimizer.
 FormGI is forming the generalized inverse of G from B-inverse, IUseBI=4.
 Internal  Forces:  Max     0.032686421 RMS     0.006458129
 Search for a local minimum.
 Step number   7 out of a maximum of   41
 All quantities printed in internal units (Hartrees-Bohrs-Radians)
 RMS Force = .25527D-04 SwitMx=.10000D-02 MixMth= 2
 Mixed Optimization -- En-DIIS/RFO-DIIS
 Swapping is turned off.
 Update second derivatives using D2CorX and points    2    3    4    5    6
                                                      7
 DE= -3.53D-07 DEPred=-3.70D-07 R= 9.54D-01
 Trust test= 9.54D-01 RLast= 4.48D-03 DXMaxT set to 8.49D-01
 ITU=  0  1  1  1  1  1  0
     Eigenvalues ---    0.00264   0.02765   0.04807   0.05431   0.05953
     Eigenvalues ---    0.06295   0.08890   0.16052   0.16311   0.16522
     Eigenvalues ---    0.22619   0.25337   0.26773   0.29886   0.33981
     Eigenvalues ---    0.34212   0.34470   0.73463   1.221051000.00000
     Eigenvalues --- 1000.000001000.000001000.000001000.000001000.00000
     Eigenvalues --- 1000.000001000.000001000.000001000.000001000.00000
     Eigenvalues --- 1000.00000
 En-DIIS/RFO-DIIS/Sim-DIIS IScMMF=       -3 using points:     7    6    5    4
 RFO step:  Lambda=-1.39641740D-06.
 NNeg= 0 NGDIIS= 4 SimSw=  2.50D-01 Rises=F DC= -3.53D-07 SmlDif=  1.00D-05
 NRisDI= 0 DoIntr=F SqrtH=F CThrHd= 10.0 CDAdj=  3.0
 RMS Error=  0.3042945718D-03 NUsed= 4 OKEnD=F EnDIS=F
 InvSVX:  RCond= 5.28D-07 Info=           0 Equed=N FErr=  9.99D-15 BErr=  1.10D-16
 DidBck=F Rises=F RFO-DIIS coefs:    1.22087   -0.16158   -0.12192    0.06263
 Iteration  1 RMS(Cart)=  0.00042725 RMS(Int)=  0.00000016
 Iteration  2 RMS(Cart)=  0.00000011 RMS(Int)=  0.00000012
 Iteration  1 RMS(Cart)=  0.00000000 RMS(Int)=  0.00000000
 ITry= 1 IFail=0 DXMaxC= 1.21D-03 DCOld= 1.00D+10 DXMaxT= 8.49D-01 DXLimC= 3.00D+00 Rises=F
 Variable       Old X    -DE/DX   Delta X   Delta X   Delta X     New X
                                 (Linear)    (Quad)   (Total)
    R1        2.31145   0.00001   0.00018  -0.00019  -0.00001   2.31144
    R2        2.86290   0.00007   0.00024   0.00002   0.00026   2.86316
    R3        4.15740   0.01498   0.00000   0.00000   0.00000   4.15740
    R4        3.21253  -0.03269   0.00000   0.00000   0.00000   3.21253
    R5        2.06273  -0.00001   0.00003  -0.00006  -0.00003   2.06270
    R6        2.06767   0.00000  -0.00002   0.00003   0.00001   2.06768
    R7        2.07652   0.00000  -0.00002   0.00003   0.00001   2.07654
    R8        2.20370  -0.00001  -0.00001   0.00000  -0.00001   2.20370
    A1        2.16463   0.00002  -0.00005   0.00006   0.00001   2.16464
    A2        1.92425  -0.00003  -0.00011  -0.00010  -0.00022   1.92403
    A3        2.00055   0.00005   0.00030   0.00001   0.00031   2.00086
    A4        1.74299  -0.00001  -0.00003   0.00003  -0.00001   1.74299
    A5        1.90234  -0.00008  -0.00017  -0.00016  -0.00033   1.90201
    A6        1.63509   0.00003   0.00005   0.00021   0.00025   1.63534
    A7        1.95993   0.00003   0.00035  -0.00011   0.00024   1.96017
    A8        1.90411  -0.00001  -0.00012  -0.00002  -0.00014   1.90398
    A9        1.87737  -0.00002  -0.00015   0.00003  -0.00012   1.87726
   A10        1.91619  -0.00001  -0.00012  -0.00002  -0.00014   1.91605
   A11        1.90670   0.00000   0.00001   0.00006   0.00007   1.90677
   A12        1.89828   0.00001   0.00002   0.00007   0.00009   1.89837
   A13        3.12699  -0.00001  -0.00010  -0.00033  -0.00043   3.12655
   A14        2.97783   0.00000   0.00030   0.00000   0.00030   2.97813
    D1       -3.05699   0.00002   0.00060   0.00004   0.00064  -3.05636
    D2       -0.92852   0.00001   0.00060  -0.00008   0.00052  -0.92800
    D3        1.12777   0.00001   0.00048   0.00001   0.00049   1.12826
    D4       -0.91419  -0.00001   0.00038  -0.00003   0.00034  -0.91385
    D5        1.21428  -0.00001   0.00038  -0.00015   0.00022   1.21450
    D6       -3.01262  -0.00002   0.00025  -0.00006   0.00019  -3.01242
    D7        0.78580   0.00001   0.00037   0.00017   0.00054   0.78634
    D8        2.91427   0.00000   0.00038   0.00005   0.00042   2.91469
    D9       -1.31263   0.00000   0.00025   0.00014   0.00039  -1.31223
         Item               Value     Threshold  Converged?
 Maximum Force            0.000078     0.000450     YES
 RMS     Force            0.000026     0.000300     YES
 Maximum Displacement     0.001211     0.001800     YES
 RMS     Displacement     0.000427     0.001200     YES
 Predicted change in Energy=-5.127827D-08
 Optimization completed.
    -- Stationary point found.
                           ----------------------------
                           !   Optimized Parameters   !
                           ! (Angstroms and Degrees)  !
 --------------------------                            --------------------------
 ! Name  Definition              Value          Derivative Info.                !
 --------------------------------------------------------------------------------
 ! R1    R(1,2)                  1.2232         -DE/DX =    0.0                 !
 ! R2    R(1,3)                  1.515          -DE/DX =    0.0001              !
 ! R3    R(1,7)                  2.2            -DE/DX =    0.015               !
 ! R4    R(1,8)                  1.7            -DE/DX =   -0.0327              !
 ! R5    R(3,4)                  1.0916         -DE/DX =    0.0                 !
 ! R6    R(3,5)                  1.0942         -DE/DX =    0.0                 !
 ! R7    R(3,6)                  1.0988         -DE/DX =    0.0                 !
 ! R8    R(8,9)                  1.1662         -DE/DX =    0.0                 !
 ! A1    A(2,1,3)              124.0239         -DE/DX =    0.0                 !
 ! A2    A(2,1,7)              110.2512         -DE/DX =    0.0                 !
 ! A3    A(2,1,8)              114.623          -DE/DX =    0.0                 !
 ! A4    A(3,1,7)               99.8662         -DE/DX =    0.0                 !
 ! A5    A(3,1,8)              108.9959         -DE/DX =   -0.0001              !
 ! A6    A(7,1,8)               93.6835         -DE/DX =    0.0                 !
 ! A7    A(1,3,4)              112.2958         -DE/DX =    0.0                 !
 ! A8    A(1,3,5)              109.0977         -DE/DX =    0.0                 !
 ! A9    A(1,3,6)              107.5656         -DE/DX =    0.0                 !
 ! A10   A(4,3,5)              109.7898         -DE/DX =    0.0                 !
 ! A11   A(4,3,6)              109.2459         -DE/DX =    0.0                 !
 ! A12   A(5,3,6)              108.7633         -DE/DX =    0.0                 !
 ! A13   L(1,8,9,6,-1)         179.163          -DE/DX =    0.0                 !
 ! A14   L(1,8,9,6,-2)         170.6172         -DE/DX =    0.0                 !
 ! D1    D(2,1,3,4)           -175.1529         -DE/DX =    0.0                 !
 ! D2    D(2,1,3,5)            -53.2006         -DE/DX =    0.0                 !
 ! D3    D(2,1,3,6)             64.6163         -DE/DX =    0.0                 !
 ! D4    D(7,1,3,4)            -52.3794         -DE/DX =    0.0                 !
 ! D5    D(7,1,3,5)             69.5729         -DE/DX =    0.0                 !
 ! D6    D(7,1,3,6)           -172.6102         -DE/DX =    0.0                 !
 ! D7    D(8,1,3,4)             45.0229         -DE/DX =    0.0                 !
 ! D8    D(8,1,3,5)            166.9752         -DE/DX =    0.0                 !
 ! D9    D(8,1,3,6)            -75.2079         -DE/DX =    0.0                 !
 --------------------------------------------------------------------------------
 Lowest energy point so far.  Saving SCF results.
 Largest change from initial coordinates is atom    6       0.277 Angstoms.
 GradGradGradGradGradGradGradGradGradGradGradGradGradGradGradGradGradGrad

 Leave Link  103 at Wed Jan  8 00:46:25 2020, MaxMem=  4294967296 cpu:              50.8 elap:               4.4
 (Enter /home/cwagen/sw/g16/g16/l202.exe)
                          Input orientation:                          
 ---------------------------------------------------------------------
 Center     Atomic      Atomic             Coordinates (Angstroms)
 Number     Number       Type             X           Y           Z
 ---------------------------------------------------------------------
      1          6           0       -0.082885   -0.458559   -0.284284
      2          8           0       -0.295716   -0.651065   -1.473312
      3          6           0       -0.375790   -1.470906    0.804075
      4          1           0       -0.191757   -1.070332    1.802652
      5          1           0       -1.417689   -1.794528    0.720969
      6          1           0        0.278104   -2.337758    0.635369
      7         17           0       -1.287481    1.233564    0.440743
      8          6           0        1.396468    0.306934    0.055619
      9          7           0        2.458996    0.772914    0.173117
 ---------------------------------------------------------------------
                    Distance matrix (angstroms):
                    1          2          3          4          5
     1  C    0.000000
     2  O    1.223169   0.000000
     3  C    1.514980   2.421785   0.000000
     4  H    2.177481   3.304320   1.091551   0.000000
     5  H    2.139404   2.716837   1.094163   1.788130   0.000000
     6  H    2.123079   2.760569   1.098850   1.785969   1.782734
     7  Cl   2.200000   2.863395   2.877039   2.891945   3.043818
     8  C    1.700000   2.473637   2.619504   2.733394   3.574677
     9  N    2.861275   3.510966   3.669992   3.616549   4.681942
                    6          7          8          9
     6  H    0.000000
     7  Cl   3.904264   0.000000
     8  C    2.929377   2.865406   0.000000
     9  N    3.827041   3.784166   1.166150   0.000000
 Stoichiometry    C3H3ClNO(1-)
 Framework group  C1[X(C3H3ClNO)]
 Deg. of freedom    21
 Full point group                 C1      NOp   1
 RotChk:  IX=0 Diff= 1.09D-15
 Largest Abelian subgroup         C1      NOp   1
 Largest concise Abelian subgroup C1      NOp   1
                         Standard orientation:                         
 ---------------------------------------------------------------------
 Center     Atomic      Atomic             Coordinates (Angstroms)
 Number     Number       Type             X           Y           Z
 ---------------------------------------------------------------------
      1          6           0        0.090505    0.629266    0.227850
      2          8           0        0.037653    1.074601    1.365842
      3          6           0       -0.169400    1.452102   -1.017363
      4          1           0       -0.154268    0.845866   -1.924961
      5          1           0       -1.138538    1.950794   -0.921091
      6          1           0        0.617071    2.216999   -1.079551
      7         17           0       -1.416904   -0.950162   -0.042573
      8          6           0        1.398388   -0.417007   -0.063280
      9          7           0        2.363559   -1.063412   -0.165805
 ---------------------------------------------------------------------
 Rotational constants (GHZ):           3.2371800           2.2711061           1.7928473
 Leave Link  202 at Wed Jan  8 00:46:25 2020, MaxMem=  4294967296 cpu:               1.9 elap:               0.2
 (Enter /home/cwagen/sw/g16/g16/l601.exe)
 Copying SCF densities to generalized density rwf, IOpCl= 0 IROHF=0.

 **********************************************************************

            Population analysis using the SCF density.

 **********************************************************************

 Orbital symmetries:
       Occupied  (A) (A) (A) (A) (A) (A) (A) (A) (A) (A) (A) (A)
                 (A) (A) (A) (A) (A) (A) (A) (A) (A) (A) (A) (A)
                 (A) (A) (A)
       Virtual   (A) (A) (A) (A) (A) (A) (A) (A) (A) (A) (A) (A)
                 (A) (A) (A) (A) (A) (A) (A) (A) (A) (A) (A) (A)
                 (A) (A) (A) (A) (A) (A) (A) (A) (A) (A) (A) (A)
                 (A) (A) (A) (A) (A) (A) (A) (A) (A) (A) (A) (A)
                 (A) (A) (A) (A) (A) (A) (A) (A) (A) (A) (A) (A)
                 (A) (A) (A) (A) (A) (A) (A) (A) (A) (A) (A) (A)
                 (A) (A) (A) (A) (A) (A) (A) (A) (A) (A) (A) (A)
                 (A) (A) (A) (A) (A) (A) (A) (A) (A) (A) (A) (A)
                 (A)
 The electronic state is 1-A.
 Alpha  occ. eigenvalues -- -101.45206 -19.11296 -14.31976 -10.30385 -10.20957
 Alpha  occ. eigenvalues --  -10.17129  -9.36771  -7.12802  -7.12392  -7.12377
 Alpha  occ. eigenvalues --   -1.01843  -0.88201  -0.74370  -0.70425  -0.57042
 Alpha  occ. eigenvalues --   -0.46301  -0.42695  -0.41446  -0.38378  -0.35729
 Alpha  occ. eigenvalues --   -0.35341  -0.32012  -0.31951  -0.25027  -0.24636
 Alpha  occ. eigenvalues --   -0.23838  -0.23199
 Alpha virt. eigenvalues --   -0.00324   0.02526   0.04034   0.04634   0.05604
 Alpha virt. eigenvalues --    0.06992   0.07102   0.08723   0.09820   0.10214
 Alpha virt. eigenvalues --    0.10541   0.10788   0.12595   0.13701   0.14100
 Alpha virt. eigenvalues --    0.14497   0.14700   0.17382   0.18044   0.22094
 Alpha virt. eigenvalues --    0.24169   0.25224   0.25552   0.25694   0.27522
 Alpha virt. eigenvalues --    0.28749   0.30049   0.30407   0.34423   0.35786
 Alpha virt. eigenvalues --    0.38376   0.41539   0.45620   0.61407   0.61963
 Alpha virt. eigenvalues --    0.66368   0.66929   0.68739   0.69949   0.72726
 Alpha virt. eigenvalues --    0.73172   0.77472   0.77735   0.79905   0.80561
 Alpha virt. eigenvalues --    0.85296   0.89652   0.95864   0.96617   0.96852
 Alpha virt. eigenvalues --    0.97995   0.99989   1.01747   1.02755   1.05512
 Alpha virt. eigenvalues --    1.07720   1.12883   1.15557   1.18767   1.30456
 Alpha virt. eigenvalues --    1.33061   1.34221   1.36707   1.47188   1.49137
 Alpha virt. eigenvalues --    1.52919   1.56051   1.57442   1.65002   1.65886
 Alpha virt. eigenvalues --    1.72879   1.75150   1.84131   1.88341   1.94555
 Alpha virt. eigenvalues --    1.96926   1.98421   2.00438   2.06957   2.16800
 Alpha virt. eigenvalues --    2.26781   2.28669   2.35736   2.48703   2.54346
 Alpha virt. eigenvalues --    2.68776   2.77541   2.84145   2.90890   3.10871
 Alpha virt. eigenvalues --    3.19093   4.13392   4.18559   4.33817   4.36304
 Alpha virt. eigenvalues --    4.41705   4.65007
          Condensed to atoms (all electrons):
               1          2          3          4          5          6
     1  C    5.834109   0.640862   0.226687  -0.087268  -0.066365  -0.013620
     2  O    0.640862   8.225175  -0.167186   0.008842  -0.001066  -0.005165
     3  C    0.226687  -0.167186   5.748198   0.386620   0.386588   0.356765
     4  H   -0.087268   0.008842   0.386620   0.475893  -0.022939  -0.027711
     5  H   -0.066365  -0.001066   0.386588  -0.022939   0.466207  -0.024518
     6  H   -0.013620  -0.005165   0.356765  -0.027711  -0.024518   0.488219
     7  Cl   0.082099  -0.106657  -0.141937   0.003032  -0.005793   0.007961
     8  C   -0.792148  -0.178747  -0.173633   0.025553   0.024563  -0.016654
     9  N   -0.021368  -0.008031  -0.014922   0.000302   0.000183  -0.001220
               7          8          9
     1  C    0.082099  -0.792148  -0.021368
     2  O   -0.106657  -0.178747  -0.008031
     3  C   -0.141937  -0.173633  -0.014922
     4  H    0.003032   0.025553   0.000302
     5  H   -0.005793   0.024563   0.000183
     6  H    0.007961  -0.016654  -0.001220
     7  Cl  17.724732  -0.015583  -0.023603
     8  C   -0.015583   6.288753   0.582755
     9  N   -0.023603   0.582755   7.115359
 Mulliken charges:
               1
     1  C    0.197012
     2  O   -0.408026
     3  C   -0.607178
     4  H    0.237676
     5  H    0.243139
     6  H    0.235943
     7  Cl  -0.524252
     8  C    0.255142
     9  N   -0.629454
 Sum of Mulliken charges =  -1.00000
 Mulliken charges with hydrogens summed into heavy atoms:
               1
     1  C    0.197012
     2  O   -0.408026
     3  C    0.109580
     7  Cl  -0.524252
     8  C    0.255142
     9  N   -0.629454
 Electronic spatial extent (au):  <R**2>=            739.3169
 Charge=             -1.0000 electrons
 Dipole moment (field-independent basis, Debye):
    X=             -0.4156    Y=              4.4043    Z=             -3.0644  Tot=              5.3816
 Quadrupole moment (field-independent basis, Debye-Ang):
   XX=            -64.5946   YY=            -52.2950   ZZ=            -49.8191
   XY=              1.8893   XZ=              0.8861   YZ=             -5.1997
 Traceless Quadrupole moment (field-independent basis, Debye-Ang):
   XX=             -9.0251   YY=              3.2746   ZZ=              5.7505
   XY=              1.8893   XZ=              0.8861   YZ=             -5.1997
 Octapole moment (field-independent basis, Debye-Ang**2):
  XXX=            -28.8477  YYY=             13.7834  ZZZ=             -5.6652  XYY=             -4.8665
  XXY=             26.0597  XXZ=              3.8678  XZZ=             -1.0026  YZZ=             -2.2965
  YYZ=             -3.9655  XYZ=             -1.0880
 Hexadecapole moment (field-independent basis, Debye-Ang**3):
 XXXX=           -639.0891 YYYY=           -359.3644 ZZZZ=           -193.4194 XXXY=             38.2526
 XXXZ=              8.3870 YYYX=             10.2451 YYYZ=             -7.2225 ZZZX=              0.7240
 ZZZY=             -5.7033 XXYY=           -168.5347 XXZZ=           -121.7001 YYZZ=            -96.8063
 XXYZ=             -4.0917 YYXZ=              1.8541 ZZXY=              0.5325
 N-N= 2.504927677054D+02 E-N=-2.179585765265D+03  KE= 7.025602394339D+02
 No NMR shielding tensors so no spin-rotation constants.
 Leave Link  601 at Wed Jan  8 00:46:27 2020, MaxMem=  4294967296 cpu:              13.8 elap:               1.3
 (Enter /home/cwagen/sw/g16/g16/l9999.exe)
 1\1\GINC-NODE041\FOpt\RB3LYP\6-31+G(d)\C3H3Cl1N1O1(1-)\CWAGEN\08-Jan-2
 020\0\\#p opt=modredundant b3lyp/6-31+g(d) scrf=(smd, solvent=tetrahyd
 rofuran)\\title\\-1,1\C,-0.082884678,-0.4585593835,-0.2842844026\O,-0.
 2957164579,-0.6510645176,-1.4733121291\C,-0.375789601,-1.4709062938,0.
 8040749413\H,-0.1917567873,-1.070332181,1.8026517903\H,-1.4176889051,-
 1.7945284514,0.7209690374\H,0.2781038994,-2.3377582631,0.6353694507\Cl
 ,-1.2874813289,1.2335642587,0.4407428247\C,1.3964683728,0.3069340569,0
 .0556190248\N,2.458995536,0.7729136346,0.1731166426\\Version=AS64L-G16
 RevA.03\State=1-A\HF=-706.4322153\RMSD=7.821e-09\RMSF=9.910e-03\Dipole
 =-0.3492995,-1.8994743,0.8676657\Quadrupole=-7.0495166,4.1951413,2.854
 3752,-0.0605671,-0.4203655,-3.7502712\PG=C01 [X(C3H3Cl1N1O1)]\\@


 There ain't no surer way to find out whether you
 like people or hate them than to travel with them.
                                     -- Mark Twain
 Job cpu time:       0 days  1 hours 16 minutes  1.6 seconds.
 Elapsed time:       0 days  0 hours  6 minutes  8.5 seconds.
 File lengths (MBytes):  RWF=     35 Int=      0 D2E=      0 Chk=      4 Scr=      1
 Normal termination of Gaussian 16 at Wed Jan  8 00:46:27 2020.
