 Entering Gaussian System, Link 0=g16
 Input=scan_270_200.gjf
 Output=scan_270_200.out
 Initial command:
 /home/cwagen/sw/g16/g16/l1.exe "/scratch/users/cwagen/cwagen_scan_270_200/Gau-60578.inp" -scrdir="/scratch/users/cwagen/cwagen_scan_270_200/"
 Entering Link 1 = /home/cwagen/sw/g16/g16/l1.exe PID=     60579.
  
 Copyright (c) 1988,1990,1992,1993,1995,1998,2003,2009,2016,
            Gaussian, Inc.  All Rights Reserved.
  
 This is part of the Gaussian(R) 16 program.  It is based on
 the Gaussian(R) 09 system (copyright 2009, Gaussian, Inc.),
 the Gaussian(R) 03 system (copyright 2003, Gaussian, Inc.),
 the Gaussian(R) 98 system (copyright 1998, Gaussian, Inc.),
 the Gaussian(R) 94 system (copyright 1995, Gaussian, Inc.),
 the Gaussian 92(TM) system (copyright 1992, Gaussian, Inc.),
 the Gaussian 90(TM) system (copyright 1990, Gaussian, Inc.),
 the Gaussian 88(TM) system (copyright 1988, Gaussian, Inc.),
 the Gaussian 86(TM) system (copyright 1986, Carnegie Mellon
 University), and the Gaussian 82(TM) system (copyright 1983,
 Carnegie Mellon University). Gaussian is a federally registered
 trademark of Gaussian, Inc.
  
 This software contains proprietary and confidential information,
 including trade secrets, belonging to Gaussian, Inc.
  
 This software is provided under written license and may be
 used, copied, transmitted, or stored only in accord with that
 written license.
  
 The following legend is applicable only to US Government
 contracts under FAR:
  
                    RESTRICTED RIGHTS LEGEND
  
 Use, reproduction and disclosure by the US Government is
 subject to restrictions as set forth in subparagraphs (a)
 and (c) of the Commercial Computer Software - Restricted
 Rights clause in FAR 52.227-19.
  
 Gaussian, Inc.
 340 Quinnipiac St., Bldg. 40, Wallingford CT 06492
  
  
 ---------------------------------------------------------------
 Warning -- This program may not be used in any manner that
 competes with the business of Gaussian, Inc. or will provide
 assistance to any competitor of Gaussian, Inc.  The licensee
 of this program is prohibited from giving any competitor of
 Gaussian, Inc. access to this program.  By using this program,
 the user acknowledges that Gaussian, Inc. is engaged in the
 business of creating and licensing software in the field of
 computational chemistry and represents and warrants to the
 licensee that it is not a competitor of Gaussian, Inc. and that
 it will not use this program in any manner prohibited above.
 ---------------------------------------------------------------
  

 Cite this work as:
 Gaussian 16, Revision A.03,
 M. J. Frisch, G. W. Trucks, H. B. Schlegel, G. E. Scuseria, 
 M. A. Robb, J. R. Cheeseman, G. Scalmani, V. Barone, 
 G. A. Petersson, H. Nakatsuji, X. Li, M. Caricato, A. V. Marenich, 
 J. Bloino, B. G. Janesko, R. Gomperts, B. Mennucci, H. P. Hratchian, 
 J. V. Ortiz, A. F. Izmaylov, J. L. Sonnenberg, D. Williams-Young, 
 F. Ding, F. Lipparini, F. Egidi, J. Goings, B. Peng, A. Petrone, 
 T. Henderson, D. Ranasinghe, V. G. Zakrzewski, J. Gao, N. Rega, 
 G. Zheng, W. Liang, M. Hada, M. Ehara, K. Toyota, R. Fukuda, 
 J. Hasegawa, M. Ishida, T. Nakajima, Y. Honda, O. Kitao, H. Nakai, 
 T. Vreven, K. Throssell, J. A. Montgomery, Jr., J. E. Peralta, 
 F. Ogliaro, M. J. Bearpark, J. J. Heyd, E. N. Brothers, K. N. Kudin, 
 V. N. Staroverov, T. A. Keith, R. Kobayashi, J. Normand, 
 K. Raghavachari, A. P. Rendell, J. C. Burant, S. S. Iyengar, 
 J. Tomasi, M. Cossi, J. M. Millam, M. Klene, C. Adamo, R. Cammi, 
 J. W. Ochterski, R. L. Martin, K. Morokuma, O. Farkas, 
 J. B. Foresman, and D. J. Fox, Gaussian, Inc., Wallingford CT, 2016.
 
 ******************************************
 Gaussian 16:  AS64L-G16RevA.03 25-Dec-2016
                 8-Jan-2020 
 ******************************************
 %nprocshared=16
 Will use up to   16 processors via shared memory.
 %mem=32GB
 ----------------------------------------------------------------------
 #p opt=modredundant b3lyp/6-31+g(d) scrf=(smd, solvent=tetrahydrofuran
 )
 ----------------------------------------------------------------------
 1/18=120,19=15,26=3,38=1/1,3;
 2/9=110,12=2,17=6,18=5,40=1/2;
 3/5=1,6=6,7=11,11=2,25=1,30=1,70=32201,71=1,72=20,74=-5/1,2,3;
 4//1;
 5/5=2,38=5,53=20/2;
 6/7=2,8=2,9=2,10=2,28=1/1;
 7//1,2,3,16;
 1/18=20,19=15,26=3/3(2);
 2/9=110/2;
 99//99;
 2/9=110/2;
 3/5=1,6=6,7=11,11=2,25=1,30=1,70=32205,71=1,72=20,74=-5/1,2,3;
 4/5=5,16=3,69=1/1;
 5/5=2,38=5,53=20/2;
 7//1,2,3,16;
 1/18=20,19=15,26=3/3(-5);
 2/9=110/2;
 6/7=2,8=2,9=2,10=2,19=2,28=1/1;
 99/9=1/99;
 Leave Link    1 at Wed Jan  8 01:39:43 2020, MaxMem=  4294967296 cpu:              12.7 elap:               1.0
 (Enter /home/cwagen/sw/g16/g16/l101.exe)
 -----
 title
 -----
 Symbolic Z-matrix:
 Charge = -1 Multiplicity = 1
 6                    -0.19426  -0.292    -0.21291 
 8                    -0.25532  -0.66526  -1.45426 
 6                    -0.33095  -1.45422   0.81632 
 1                    -0.18039  -1.13044   1.85373 
 1                    -1.34067  -1.87301   0.71427 
 1                     0.39707  -2.23395   0.57058 
 17                   -1.81086   1.75879   0.4733 
 6                     1.65998   0.35731   0.1615 
 7                     2.79455   0.63761   0.1918 
 
 Add virtual bond connecting atoms C8         and C1         Dist= 3.78D+00.
 Add virtual bond connecting atoms Cl7        and C1         Dist= 5.10D+00.
 The following ModRedundant input section has been read:
 B       1       7 F                                                           
 B       1       8 F                                                           
 
 ITRead=  0  0  0  0  0  0  0  0  0
 MicOpt= -1 -1 -1 -1 -1 -1 -1 -1 -1
 NAtoms=      9 NQM=        9 NQMF=       0 NMMI=      0 NMMIF=      0
                NMic=       0 NMicF=      0.
                    Isotopes and Nuclear Properties:
 (Nuclear quadrupole moments (NQMom) in fm**2, nuclear magnetic moments (NMagM)
  in nuclear magnetons)

  Atom         1           2           3           4           5           6           7           8           9
 IAtWgt=          12          16          12           1           1           1          35          12          14
 AtmWgt=  12.0000000  15.9949146  12.0000000   1.0078250   1.0078250   1.0078250  34.9688527  12.0000000  14.0030740
 NucSpn=           0           0           0           1           1           1           3           0           2
 AtZEff=   0.0000000   0.0000000   0.0000000   0.0000000   0.0000000   0.0000000   0.0000000   0.0000000   0.0000000
 NQMom=    0.0000000   0.0000000   0.0000000   0.0000000   0.0000000   0.0000000  -8.1650000   0.0000000   2.0440000
 NMagM=    0.0000000   0.0000000   0.0000000   2.7928460   2.7928460   2.7928460   0.8218740   0.0000000   0.4037610
 AtZNuc=   6.0000000   8.0000000   6.0000000   1.0000000   1.0000000   1.0000000  17.0000000   6.0000000   7.0000000
 Leave Link  101 at Wed Jan  8 01:39:43 2020, MaxMem=  4294967296 cpu:               8.0 elap:               0.6
 (Enter /home/cwagen/sw/g16/g16/l103.exe)

 GradGradGradGradGradGradGradGradGradGradGradGradGradGradGradGradGradGrad
 Berny optimization.
 Initialization pass.
                           ----------------------------
                           !    Initial Parameters    !
                           ! (Angstroms and Degrees)  !
 --------------------------                            --------------------------
 ! Name  Definition              Value          Derivative Info.                !
 --------------------------------------------------------------------------------
 ! R1    R(1,2)                  1.2977         estimate D2E/DX2                !
 ! R2    R(1,3)                  1.5584         estimate D2E/DX2                !
 ! R3    R(1,7)                  2.7            Frozen                          !
 ! R4    R(1,8)                  2.0            Frozen                          !
 ! R5    R(3,4)                  1.0971         estimate D2E/DX2                !
 ! R6    R(3,5)                  1.0979         estimate D2E/DX2                !
 ! R7    R(3,6)                  1.0947         estimate D2E/DX2                !
 ! R8    R(8,9)                  1.1691         estimate D2E/DX2                !
 ! A1    A(2,1,3)              114.4006         estimate D2E/DX2                !
 ! A2    A(2,1,7)              115.6846         estimate D2E/DX2                !
 ! A3    A(2,1,8)              108.426          estimate D2E/DX2                !
 ! A4    A(3,1,7)              110.248          estimate D2E/DX2                !
 ! A5    A(3,1,8)              101.5248         estimate D2E/DX2                !
 ! A6    A(7,1,8)              105.1256         estimate D2E/DX2                !
 ! A7    A(1,3,4)              113.1005         estimate D2E/DX2                !
 ! A8    A(1,3,5)              107.683          estimate D2E/DX2                !
 ! A9    A(1,3,6)              108.9421         estimate D2E/DX2                !
 ! A10   A(4,3,5)              109.0662         estimate D2E/DX2                !
 ! A11   A(4,3,6)              109.3417         estimate D2E/DX2                !
 ! A12   A(5,3,6)              108.6067         estimate D2E/DX2                !
 ! A13   L(1,8,9,6,-1)         177.436          estimate D2E/DX2                !
 ! A14   L(1,8,9,6,-2)         166.2769         estimate D2E/DX2                !
 ! D1    D(2,1,3,4)            174.4714         estimate D2E/DX2                !
 ! D2    D(2,1,3,5)            -64.9488         estimate D2E/DX2                !
 ! D3    D(2,1,3,6)             52.6633         estimate D2E/DX2                !
 ! D4    D(7,1,3,4)            -53.1046         estimate D2E/DX2                !
 ! D5    D(7,1,3,5)             67.4752         estimate D2E/DX2                !
 ! D6    D(7,1,3,6)           -174.9127         estimate D2E/DX2                !
 ! D7    D(8,1,3,4)             57.938          estimate D2E/DX2                !
 ! D8    D(8,1,3,5)            178.5177         estimate D2E/DX2                !
 ! D9    D(8,1,3,6)            -63.8702         estimate D2E/DX2                !
 --------------------------------------------------------------------------------
 Trust Radius=3.00D-01 FncErr=1.00D-07 GrdErr=1.00D-06 EigMax=2.50D+02 EigMin=1.00D-04
 Number of steps in this run=     41 maximum allowed number of steps=    100.
 GradGradGradGradGradGradGradGradGradGradGradGradGradGradGradGradGradGrad

 Leave Link  103 at Wed Jan  8 01:39:43 2020, MaxMem=  4294967296 cpu:               1.0 elap:               0.1
 (Enter /home/cwagen/sw/g16/g16/l202.exe)
                          Input orientation:                          
 ---------------------------------------------------------------------
 Center     Atomic      Atomic             Coordinates (Angstroms)
 Number     Number       Type             X           Y           Z
 ---------------------------------------------------------------------
      1          6           0       -0.194263   -0.291999   -0.212908
      2          8           0       -0.255321   -0.665256   -1.454255
      3          6           0       -0.330945   -1.454221    0.816316
      4          1           0       -0.180394   -1.130438    1.853734
      5          1           0       -1.340665   -1.873010    0.714272
      6          1           0        0.397068   -2.233949    0.570583
      7         17           0       -1.810859    1.758790    0.473300
      8          6           0        1.659981    0.357308    0.161500
      9          7           0        2.794552    0.637606    0.191803
 ---------------------------------------------------------------------
                    Distance matrix (angstroms):
                    1          2          3          4          5
     1  C    0.000000
     2  O    1.297687   0.000000
     3  C    1.558443   2.404928   0.000000
     4  H    2.230287   3.341377   1.097150   0.000000
     5  H    2.161827   2.709087   1.097876   1.787740   0.000000
     6  H    2.175937   2.643176   1.094698   1.788205   1.780629
     7  Cl   2.700000   3.465713   3.554046   3.593279   3.670030
     8  C    2.000000   2.706415   2.770236   2.909299   3.779385
     9  N    3.156100   3.702523   3.812412   3.839049   4.865818
                    6          7          8          9
     6  H    0.000000
     7  Cl   4.563592   0.000000
     8  C    2.911513   3.756075   0.000000
     9  N    3.759951   4.748273   1.169075   0.000000
 Stoichiometry    C3H3ClNO(1-)
 Framework group  C1[X(C3H3ClNO)]
 Deg. of freedom    21
 Full point group                 C1      NOp   1
 Largest Abelian subgroup         C1      NOp   1
 Largest concise Abelian subgroup C1      NOp   1
                         Standard orientation:                         
 ---------------------------------------------------------------------
 Center     Atomic      Atomic             Coordinates (Angstroms)
 Number     Number       Type             X           Y           Z
 ---------------------------------------------------------------------
      1          6           0        0.230393    0.589369    0.207812
      2          8           0        0.454814    1.135604    1.363344
      3          6           0        0.493773    1.526391   -1.009301
      4          1           0        0.391016    1.016462   -1.975298
      5          1           0       -0.230973    2.349548   -0.959410
      6          1           0        1.502389    1.943456   -0.924961
      7         17           0       -2.157380   -0.642113   -0.060499
      8          6           0        1.593153   -0.844044   -0.089190
      9          7           0        2.495801   -1.586952   -0.096360
 ---------------------------------------------------------------------
 Rotational constants (GHZ):           2.9826411           1.4972076           1.2288017
 Leave Link  202 at Wed Jan  8 01:39:44 2020, MaxMem=  4294967296 cpu:               2.1 elap:               0.2
 (Enter /home/cwagen/sw/g16/g16/l301.exe)
 Standard basis: 6-31+G(d) (6D, 7F)
 Ernie: Thresh=  0.10000D-02 Tol=  0.10000D-05 Strict=F.
 There are   124 symmetry adapted cartesian basis functions of A   symmetry.
 There are   124 symmetry adapted basis functions of A   symmetry.
   124 basis functions,   228 primitive gaussians,   124 cartesian basis functions
    27 alpha electrons       27 beta electrons
       nuclear repulsion energy       222.6275695584 Hartrees.
 IExCor=  402 DFT=T Ex+Corr=B3LYP ExCW=0 ScaHFX=  0.200000
 ScaDFX=  0.800000  0.720000  1.000000  0.810000 ScalE2=  1.000000  1.000000
 IRadAn=      5 IRanWt=     -1 IRanGd=            0 ICorTp=0 IEmpDi=  4
 NAtoms=    9 NActive=    9 NUniq=    9 SFac= 1.00D+00 NAtFMM=   60 NAOKFM=F Big=F
 Integral buffers will be    131072 words long.
 Raffenetti 2 integral format.
 Two-electron integral symmetry is turned on.
 ------------------------------------------------------------------------------
 Polarizable Continuum Model (PCM)
 =================================
 Model                : PCM.
 Atomic radii         : SMD-Coulomb.
 Polarization charges : Total charges.
 Charge compensation  : None.
 Solution method      : On-the-fly selection.
 Cavity type          : VdW (van der Waals Surface) (Alpha=1.000).
 Cavity algorithm     : GePol (No added spheres)
                        Default sphere list used, NSphG=    9.
                        Lebedev-Laikov grids with approx.  5.0 points / Ang**2.
                        Smoothing algorithm: York/Karplus (Gamma=1.0000).
                        Polarization charges: spherical gaussians, with
                                              point-specific exponents (IZeta= 3).
                        Self-potential: point-specific (ISelfS= 7).
                        Self-field    : sphere-specific E.n sum rule (ISelfD= 2).
 1st derivatives      : Analytical E(r).r(x)/FMM algorithm (CHGder, D1EAlg=3).
                        Cavity 1st derivative terms included.
 Solvent              : TetraHydroFuran, Eps=   7.425700 Eps(inf)=   1.974025
 ------------------------------------------------------------------------------
 Spheres list:
 ISph  on   Nord     Re0    Alpha      Xe            Ye            Ze
    1   C      1    1.8500  1.000      0.230393      0.589369      0.207812
    2   O      2    2.2940  1.000      0.454814      1.135604      1.363344
    3   C      3    1.8500  1.000      0.493773      1.526391     -1.009301
    4   H      4    1.2000  1.000      0.391016      1.016462     -1.975298
    5   H      5    1.2000  1.000     -0.230973      2.349548     -0.959410
    6   H      6    1.2000  1.000      1.502389      1.943456     -0.924961
    7  Cl      7    2.3800  1.000     -2.157380     -0.642113     -0.060499
    8   C      8    1.8500  1.000      1.593153     -0.844044     -0.089190
    9   N      9    1.8900  1.000      2.495801     -1.586952     -0.096360
 ------------------------------------------------------------------------------
 GePol: Number of generator spheres                  =       9
 GePol: Total number of spheres                      =       9
 GePol: Number of exposed spheres                    =       9 (100.00%)
 GePol: Number of points                             =    1262
 GePol: Average weight of points                     =       0.14
 GePol: Minimum weight of points                     =   0.50D-08
 GePol: Maximum weight of points                     =    0.18138
 GePol: Number of points with low weight             =      27
 GePol: Fraction of low-weight points (<1% of avg)   =       2.14%
 GePol: Cavity surface area                          =    173.650 Ang**2
 GePol: Cavity volume                                =    155.796 Ang**3
 ------------------------------------------------------------------------------
 Atomic radii for non-electrostatic terms: SMD-CDS.
 ------------------------------------------------------------------------------
 PCM non-electrostatic energy =         0.0001729873 Hartrees.
 Nuclear repulsion after PCM non-electrostatic terms =      222.6277425458 Hartrees.
 Leave Link  301 at Wed Jan  8 01:39:44 2020, MaxMem=  4294967296 cpu:               2.5 elap:               0.2
 (Enter /home/cwagen/sw/g16/g16/l302.exe)
 NPDir=0 NMtPBC=     1 NCelOv=     1 NCel=       1 NClECP=     1 NCelD=      1
         NCelK=      1 NCelE2=     1 NClLst=     1 CellRange=     0.0.
 One-electron integrals computed using PRISM.
 One-electron integral symmetry used in STVInt
 NBasis=   124 RedAO= T EigKep=  1.33D-04  NBF=   124
 NBsUse=   124 1.00D-06 EigRej= -1.00D+00 NBFU=   124
 Precomputing XC quadrature grid using
 IXCGrd= 4 IRadAn=           5 IRanWt=          -1 IRanGd=           0 AccXCQ= 0.00D+00.
 Generated NRdTot=       0 NPtTot=           0 NUsed=           0 NTot=          32
 NSgBfM=   124   124   124   124   124 MxSgAt=     9 MxSgA2=     9.
 Leave Link  302 at Wed Jan  8 01:39:46 2020, MaxMem=  4294967296 cpu:              24.6 elap:               1.8
 (Enter /home/cwagen/sw/g16/g16/l303.exe)
 DipDrv:  MaxL=1.
 Leave Link  303 at Wed Jan  8 01:39:46 2020, MaxMem=  4294967296 cpu:               4.2 elap:               0.4
 (Enter /home/cwagen/sw/g16/g16/l401.exe)
 ExpMin= 4.38D-02 ExpMax= 2.52D+04 ExpMxC= 3.78D+03 IAcc=3 IRadAn=         5 AccDes= 0.00D+00
 Harris functional with IExCor=  402 and IRadAn=       5 diagonalized for initial guess.
 HarFok:  IExCor=  402 AccDes= 0.00D+00 IRadAn=         5 IDoV= 1 UseB2=F ITyADJ=14
 ICtDFT=  3500011 ScaDFX=  1.000000  1.000000  1.000000  1.000000
 FoFCou: FMM=F IPFlag=           0 FMFlag=      100000 FMFlg1=           0
         NFxFlg=           0 DoJE=T BraDBF=F KetDBF=T FulRan=T
         wScrn=  0.000000 ICntrl=       500 IOpCl=  0 I1Cent=   200000004 NGrid=           0
         NMat0=    1 NMatS0=      1 NMatT0=    0 NMatD0=    1 NMtDS0=    0 NMtDT0=    0
 Petite list used in FoFCou.
 Harris En= -706.354951165812    
 JPrj=0 DoOrth=F DoCkMO=F.
 Leave Link  401 at Wed Jan  8 01:39:48 2020, MaxMem=  4294967296 cpu:              24.9 elap:               1.8
 (Enter /home/cwagen/sw/g16/g16/l502.exe)
 Keep R1 ints in memory in canonical form, NReq=45236517.
 FoFCou: FMM=F IPFlag=           0 FMFlag=           0 FMFlg1=           0
         NFxFlg=           0 DoJE=F BraDBF=F KetDBF=F FulRan=T
         wScrn=  0.000000 ICntrl=       600 IOpCl=  0 I1Cent=           0 NGrid=           0
         NMat0=    1 NMatS0=   7750 NMatT0=    0 NMatD0=    1 NMtDS0=    0 NMtDT0=    0
 Symmetry not used in FoFCou.
 Two-electron integral symmetry not used.
 Closed shell SCF:
 Using DIIS extrapolation, IDIIS=  1040.
 NGot=  4294967296 LenX=  4264898079 LenY=  4264882262
 Requested convergence on RMS density matrix=1.00D-08 within 128 cycles.
 Requested convergence on MAX density matrix=1.00D-06.
 Requested convergence on             energy=1.00D-06.
 No special actions if energy rises.

 Cycle   1  Pass 1  IDiag  1:
 Inv3:  Mode=1 IEnd=     4777932.
 Iteration    1 A*A^-1 deviation from unit magnitude is 4.22D-15 for   1259.
 Iteration    1 A*A^-1 deviation from orthogonality  is 1.45D-15 for   1257    951.
 Iteration    1 A^-1*A deviation from unit magnitude is 4.00D-15 for   1259.
 Iteration    1 A^-1*A deviation from orthogonality  is 2.11D-15 for   1257    951.
 E= -706.189443049451    
 DIIS: error= 2.20D-02 at cycle   1 NSaved=   1.
 NSaved= 1 IEnMin= 1 EnMin= -706.189443049451     IErMin= 1 ErrMin= 2.20D-02
 ErrMax= 2.20D-02  0.00D+00 EMaxC= 1.00D-01 BMatC= 2.06D-01 BMatP= 2.06D-01
 IDIUse=3 WtCom= 7.80D-01 WtEn= 2.20D-01
 Coeff-Com:  0.100D+01
 Coeff-En:   0.100D+01
 Coeff:      0.100D+01
 Gap=     0.118 Goal=   None    Shift=    0.000
 GapD=    0.118 DampG=1.000 DampE=0.500 DampFc=0.5000 IDamp=-1.
 Damping current iteration by 5.00D-01
 RMSDP=9.96D-03 MaxDP=2.22D-01              OVMax= 3.76D-01

 Cycle   2  Pass 1  IDiag  1:
 E= -706.110775714619     Delta-E=        0.078667334832 Rises=F Damp=T
 DIIS: error= 1.82D-02 at cycle   2 NSaved=   2.
 NSaved= 2 IEnMin= 1 EnMin= -706.189443049451     IErMin= 2 ErrMin= 1.82D-02
 ErrMax= 1.82D-02  0.00D+00 EMaxC= 1.00D-01 BMatC= 1.35D-01 BMatP= 2.06D-01
 IDIUse=3 WtCom= 8.18D-01 WtEn= 1.82D-01
 Coeff-Com:  0.435D+00 0.565D+00
 Coeff-En:   0.614D+00 0.386D+00
 Coeff:      0.468D+00 0.532D+00
 Gap=     0.123 Goal=   None    Shift=    0.000
 RMSDP=4.06D-03 MaxDP=8.89D-02 DE= 7.87D-02 OVMax= 2.67D-01

 Cycle   3  Pass 1  IDiag  1:
 E= -706.314121540012     Delta-E=       -0.203345825393 Rises=F Damp=F
 DIIS: error= 1.79D-02 at cycle   3 NSaved=   3.
 NSaved= 3 IEnMin= 3 EnMin= -706.314121540012     IErMin= 3 ErrMin= 1.79D-02
 ErrMax= 1.79D-02  0.00D+00 EMaxC= 1.00D-01 BMatC= 5.77D-02 BMatP= 1.35D-01
 IDIUse=3 WtCom= 8.21D-01 WtEn= 1.79D-01
 EnCoef did     1 forward-backward iterations
 Coeff-Com:  0.199D+00 0.370D+00 0.431D+00
 Coeff-En:   0.373D-01 0.265D-01 0.936D+00
 Coeff:      0.170D+00 0.309D+00 0.522D+00
 Gap=     0.158 Goal=   None    Shift=    0.000
 RMSDP=2.73D-03 MaxDP=6.40D-02 DE=-2.03D-01 OVMax= 1.24D-01

 Cycle   4  Pass 1  IDiag  1:
 E= -706.357444074171     Delta-E=       -0.043322534159 Rises=F Damp=F
 DIIS: error= 9.78D-03 at cycle   4 NSaved=   4.
 NSaved= 4 IEnMin= 4 EnMin= -706.357444074171     IErMin= 4 ErrMin= 9.78D-03
 ErrMax= 9.78D-03  0.00D+00 EMaxC= 1.00D-01 BMatC= 1.60D-02 BMatP= 5.77D-02
 IDIUse=3 WtCom= 9.02D-01 WtEn= 9.78D-02
 Coeff-Com:  0.709D-01 0.100D+00 0.335D+00 0.494D+00
 Coeff-En:   0.000D+00 0.000D+00 0.238D+00 0.762D+00
 Coeff:      0.640D-01 0.902D-01 0.325D+00 0.521D+00
 Gap=     0.143 Goal=   None    Shift=    0.000
 RMSDP=1.46D-03 MaxDP=3.20D-02 DE=-4.33D-02 OVMax= 6.89D-02

 Cycle   5  Pass 1  IDiag  1:
 E= -706.369296058644     Delta-E=       -0.011851984473 Rises=F Damp=F
 DIIS: error= 3.17D-03 at cycle   5 NSaved=   5.
 NSaved= 5 IEnMin= 5 EnMin= -706.369296058644     IErMin= 5 ErrMin= 3.17D-03
 ErrMax= 3.17D-03  0.00D+00 EMaxC= 1.00D-01 BMatC= 2.53D-03 BMatP= 1.60D-02
 IDIUse=3 WtCom= 9.68D-01 WtEn= 3.17D-02
 Coeff-Com:  0.127D-01-0.807D-04 0.150D+00 0.383D+00 0.455D+00
 Coeff-En:   0.000D+00 0.000D+00 0.000D+00 0.166D+00 0.834D+00
 Coeff:      0.123D-01-0.781D-04 0.145D+00 0.376D+00 0.467D+00
 Gap=     0.144 Goal=   None    Shift=    0.000
 RMSDP=5.56D-04 MaxDP=1.41D-02 DE=-1.19D-02 OVMax= 2.50D-02

 Cycle   6  Pass 1  IDiag  1:
 E= -706.371648164251     Delta-E=       -0.002352105607 Rises=F Damp=F
 DIIS: error= 7.50D-04 at cycle   6 NSaved=   6.
 NSaved= 6 IEnMin= 6 EnMin= -706.371648164251     IErMin= 6 ErrMin= 7.50D-04
 ErrMax= 7.50D-04  0.00D+00 EMaxC= 1.00D-01 BMatC= 1.62D-04 BMatP= 2.53D-03
 IDIUse=3 WtCom= 9.93D-01 WtEn= 7.50D-03
 Coeff-Com:  0.302D-02-0.699D-02 0.585D-01 0.165D+00 0.282D+00 0.498D+00
 Coeff-En:   0.000D+00 0.000D+00 0.000D+00 0.000D+00 0.208D-01 0.979D+00
 Coeff:      0.299D-02-0.694D-02 0.581D-01 0.164D+00 0.280D+00 0.502D+00
 Gap=     0.145 Goal=   None    Shift=    0.000
 RMSDP=1.02D-04 MaxDP=2.17D-03 DE=-2.35D-03 OVMax= 3.50D-03

 Cycle   7  Pass 1  IDiag  1:
 E= -706.371784203984     Delta-E=       -0.000136039732 Rises=F Damp=F
 DIIS: error= 2.30D-04 at cycle   7 NSaved=   7.
 NSaved= 7 IEnMin= 7 EnMin= -706.371784203984     IErMin= 7 ErrMin= 2.30D-04
 ErrMax= 2.30D-04  0.00D+00 EMaxC= 1.00D-01 BMatC= 1.45D-05 BMatP= 1.62D-04
 IDIUse=3 WtCom= 9.98D-01 WtEn= 2.30D-03
 Coeff-Com:  0.107D-02-0.411D-02 0.168D-01 0.435D-01 0.110D+00 0.281D+00
 Coeff-Com:  0.552D+00
 Coeff-En:   0.000D+00 0.000D+00 0.000D+00 0.000D+00 0.000D+00 0.000D+00
 Coeff-En:   0.100D+01
 Coeff:      0.107D-02-0.410D-02 0.167D-01 0.434D-01 0.109D+00 0.281D+00
 Coeff:      0.553D+00
 Gap=     0.144 Goal=   None    Shift=    0.000
 RMSDP=6.42D-05 MaxDP=1.65D-03 DE=-1.36D-04 OVMax= 2.58D-03

 Cycle   8  Pass 1  IDiag  1:
 E= -706.371799542726     Delta-E=       -0.000015338742 Rises=F Damp=F
 DIIS: error= 7.69D-05 at cycle   8 NSaved=   8.
 NSaved= 8 IEnMin= 8 EnMin= -706.371799542726     IErMin= 8 ErrMin= 7.69D-05
 ErrMax= 7.69D-05  0.00D+00 EMaxC= 1.00D-01 BMatC= 1.64D-06 BMatP= 1.45D-05
 IDIUse=1 WtCom= 1.00D+00 WtEn= 0.00D+00
 Coeff-Com:  0.229D-03-0.169D-02 0.177D-02 0.158D-02 0.269D-01 0.966D-01
 Coeff-Com:  0.317D+00 0.558D+00
 Coeff:      0.229D-03-0.169D-02 0.177D-02 0.158D-02 0.269D-01 0.966D-01
 Coeff:      0.317D+00 0.558D+00
 Gap=     0.144 Goal=   None    Shift=    0.000
 RMSDP=1.45D-05 MaxDP=5.88D-04 DE=-1.53D-05 OVMax= 7.53D-04

 Cycle   9  Pass 1  IDiag  1:
 E= -706.371801266146     Delta-E=       -0.000001723420 Rises=F Damp=F
 DIIS: error= 1.59D-05 at cycle   9 NSaved=   9.
 NSaved= 9 IEnMin= 9 EnMin= -706.371801266146     IErMin= 9 ErrMin= 1.59D-05
 ErrMax= 1.59D-05  0.00D+00 EMaxC= 1.00D-01 BMatC= 5.05D-08 BMatP= 1.64D-06
 IDIUse=1 WtCom= 1.00D+00 WtEn= 0.00D+00
 Coeff-Com:  0.558D-04-0.219D-03-0.587D-03-0.289D-02 0.983D-03 0.984D-02
 Coeff-Com:  0.461D-01 0.176D+00 0.771D+00
 Coeff:      0.558D-04-0.219D-03-0.587D-03-0.289D-02 0.983D-03 0.984D-02
 Coeff:      0.461D-01 0.176D+00 0.771D+00
 Gap=     0.144 Goal=   None    Shift=    0.000
 RMSDP=4.02D-06 MaxDP=1.24D-04 DE=-1.72D-06 OVMax= 1.56D-04

 Cycle  10  Pass 1  IDiag  1:
 E= -706.371801327011     Delta-E=       -0.000000060865 Rises=F Damp=F
 DIIS: error= 5.30D-06 at cycle  10 NSaved=  10.
 NSaved=10 IEnMin=10 EnMin= -706.371801327011     IErMin=10 ErrMin= 5.30D-06
 ErrMax= 5.30D-06  0.00D+00 EMaxC= 1.00D-01 BMatC= 5.55D-09 BMatP= 5.05D-08
 IDIUse=1 WtCom= 1.00D+00 WtEn= 0.00D+00
 Coeff-Com:  0.416D-05-0.248D-04-0.310D-03-0.111D-02-0.685D-03-0.576D-03
 Coeff-Com:  0.123D-02 0.459D-01 0.368D+00 0.587D+00
 Coeff:      0.416D-05-0.248D-04-0.310D-03-0.111D-02-0.685D-03-0.576D-03
 Coeff:      0.123D-02 0.459D-01 0.368D+00 0.587D+00
 Gap=     0.144 Goal=   None    Shift=    0.000
 RMSDP=1.14D-06 MaxDP=3.12D-05 DE=-6.09D-08 OVMax= 5.07D-05

 Cycle  11  Pass 1  IDiag  1:
 E= -706.371801334326     Delta-E=       -0.000000007316 Rises=F Damp=F
 DIIS: error= 8.92D-07 at cycle  11 NSaved=  11.
 NSaved=11 IEnMin=11 EnMin= -706.371801334326     IErMin=11 ErrMin= 8.92D-07
 ErrMax= 8.92D-07  0.00D+00 EMaxC= 1.00D-01 BMatC= 4.17D-10 BMatP= 5.55D-09
 IDIUse=1 WtCom= 1.00D+00 WtEn= 0.00D+00
 Coeff-Com: -0.103D-04 0.325D-04-0.752D-04-0.835D-04-0.559D-03-0.205D-02
 Coeff-Com: -0.662D-02-0.859D-02 0.256D-01 0.229D+00 0.764D+00
 Coeff:     -0.103D-04 0.325D-04-0.752D-04-0.835D-04-0.559D-03-0.205D-02
 Coeff:     -0.662D-02-0.859D-02 0.256D-01 0.229D+00 0.764D+00
 Gap=     0.144 Goal=   None    Shift=    0.000
 RMSDP=4.11D-07 MaxDP=1.24D-05 DE=-7.32D-09 OVMax= 7.85D-06

 Cycle  12  Pass 1  IDiag  1:
 E= -706.371801334892     Delta-E=       -0.000000000566 Rises=F Damp=F
 DIIS: error= 1.54D-07 at cycle  12 NSaved=  12.
 NSaved=12 IEnMin=12 EnMin= -706.371801334892     IErMin=12 ErrMin= 1.54D-07
 ErrMax= 1.54D-07  0.00D+00 EMaxC= 1.00D-01 BMatC= 7.79D-12 BMatP= 4.17D-10
 IDIUse=1 WtCom= 1.00D+00 WtEn= 0.00D+00
 Coeff-Com: -0.339D-05 0.633D-05-0.107D-05 0.331D-04-0.315D-04-0.235D-03
 Coeff-Com: -0.831D-03-0.274D-02-0.147D-01 0.158D-01 0.826D-01 0.920D+00
 Coeff:     -0.339D-05 0.633D-05-0.107D-05 0.331D-04-0.315D-04-0.235D-03
 Coeff:     -0.831D-03-0.274D-02-0.147D-01 0.158D-01 0.826D-01 0.920D+00
 Gap=     0.144 Goal=   None    Shift=    0.000
 RMSDP=6.08D-08 MaxDP=1.21D-06 DE=-5.66D-10 OVMax= 1.85D-06

 Cycle  13  Pass 1  IDiag  1:
 E= -706.371801334906     Delta-E=       -0.000000000015 Rises=F Damp=F
 DIIS: error= 3.80D-08 at cycle  13 NSaved=  13.
 NSaved=13 IEnMin=13 EnMin= -706.371801334906     IErMin=13 ErrMin= 3.80D-08
 ErrMax= 3.80D-08  0.00D+00 EMaxC= 1.00D-01 BMatC= 4.27D-13 BMatP= 7.79D-12
 IDIUse=1 WtCom= 1.00D+00 WtEn= 0.00D+00
 Coeff-Com:  0.248D-07-0.751D-06 0.265D-05 0.578D-05 0.205D-04 0.482D-04
 Coeff-Com:  0.175D-03 0.323D-04-0.363D-02-0.580D-02-0.255D-01 0.119D+00
 Coeff-Com:  0.916D+00
 Coeff:      0.248D-07-0.751D-06 0.265D-05 0.578D-05 0.205D-04 0.482D-04
 Coeff:      0.175D-03 0.323D-04-0.363D-02-0.580D-02-0.255D-01 0.119D+00
 Coeff:      0.916D+00
 Gap=     0.144 Goal=   None    Shift=    0.000
 RMSDP=1.60D-08 MaxDP=4.20D-07 DE=-1.47D-11 OVMax= 5.26D-07

 Cycle  14  Pass 1  IDiag  1:
 E= -706.371801334906     Delta-E=        0.000000000000 Rises=F Damp=F
 DIIS: error= 8.46D-09 at cycle  14 NSaved=  14.
 NSaved=14 IEnMin=13 EnMin= -706.371801334906     IErMin=14 ErrMin= 8.46D-09
 ErrMax= 8.46D-09  0.00D+00 EMaxC= 1.00D-01 BMatC= 2.57D-14 BMatP= 4.27D-13
 IDIUse=1 WtCom= 1.00D+00 WtEn= 0.00D+00
 Coeff-Com:  0.204D-06-0.323D-06 0.371D-06-0.170D-06 0.103D-05 0.316D-05
 Coeff-Com:  0.261D-04 0.207D-04 0.307D-03-0.425D-04-0.203D-02-0.176D-01
 Coeff-Com:  0.232D-01 0.996D+00
 Coeff:      0.204D-06-0.323D-06 0.371D-06-0.170D-06 0.103D-05 0.316D-05
 Coeff:      0.261D-04 0.207D-04 0.307D-03-0.425D-04-0.203D-02-0.176D-01
 Coeff:      0.232D-01 0.996D+00
 Gap=     0.144 Goal=   None    Shift=    0.000
 RMSDP=2.32D-09 MaxDP=4.18D-08 DE= 3.41D-13 OVMax= 1.22D-07

 Error on total polarization charges =  0.02322
 SCF Done:  E(RB3LYP) =  -706.371801335     A.U. after   14 cycles
            NFock= 14  Conv=0.23D-08     -V/T= 2.0064
 KE= 7.019014915303D+02 PE=-2.122598800466D+03 EE= 4.916977650553D+02
 SMD-CDS (non-electrostatic) energy       (kcal/mol) =       0.11
 (included in total energy above)
 Leave Link  502 at Wed Jan  8 01:40:24 2020, MaxMem=  4294967296 cpu:             521.3 elap:              36.1
 (Enter /home/cwagen/sw/g16/g16/l601.exe)
 Copying SCF densities to generalized density rwf, IOpCl= 0 IROHF=0.

 **********************************************************************

            Population analysis using the SCF density.

 **********************************************************************

 Orbital symmetries:
       Occupied  (A) (A) (A) (A) (A) (A) (A) (A) (A) (A) (A) (A)
                 (A) (A) (A) (A) (A) (A) (A) (A) (A) (A) (A) (A)
                 (A) (A) (A)
       Virtual   (A) (A) (A) (A) (A) (A) (A) (A) (A) (A) (A) (A)
                 (A) (A) (A) (A) (A) (A) (A) (A) (A) (A) (A) (A)
                 (A) (A) (A) (A) (A) (A) (A) (A) (A) (A) (A) (A)
                 (A) (A) (A) (A) (A) (A) (A) (A) (A) (A) (A) (A)
                 (A) (A) (A) (A) (A) (A) (A) (A) (A) (A) (A) (A)
                 (A) (A) (A) (A) (A) (A) (A) (A) (A) (A) (A) (A)
                 (A) (A) (A) (A) (A) (A) (A) (A) (A) (A) (A) (A)
                 (A) (A) (A) (A) (A) (A) (A) (A) (A) (A) (A) (A)
                 (A)
 The electronic state is 1-A.
 Alpha  occ. eigenvalues -- -101.45678 -19.17419 -14.31680 -10.34783 -10.20436
 Alpha  occ. eigenvalues --  -10.19918  -9.36932  -7.12980  -7.12581  -7.12578
 Alpha  occ. eigenvalues --   -1.02037  -0.87546  -0.73429  -0.70238  -0.55169
 Alpha  occ. eigenvalues --   -0.46316  -0.43125  -0.42551  -0.39179  -0.35739
 Alpha  occ. eigenvalues --   -0.35209  -0.31661  -0.31540  -0.27158  -0.24741
 Alpha  occ. eigenvalues --   -0.24155  -0.24114
 Alpha virt. eigenvalues --   -0.09725  -0.00334   0.03252   0.04418   0.04770
 Alpha virt. eigenvalues --    0.06009   0.06448   0.07526   0.08764   0.09548
 Alpha virt. eigenvalues --    0.09957   0.10093   0.11060   0.11991   0.13291
 Alpha virt. eigenvalues --    0.14112   0.14960   0.16499   0.16770   0.20467
 Alpha virt. eigenvalues --    0.22742   0.23870   0.24367   0.25486   0.25787
 Alpha virt. eigenvalues --    0.26810   0.28122   0.28964   0.32010   0.33161
 Alpha virt. eigenvalues --    0.35084   0.36941   0.41005   0.60386   0.62730
 Alpha virt. eigenvalues --    0.65043   0.66259   0.67655   0.68186   0.72189
 Alpha virt. eigenvalues --    0.73205   0.75034   0.75974   0.78843   0.79259
 Alpha virt. eigenvalues --    0.83393   0.87532   0.93449   0.95730   0.96393
 Alpha virt. eigenvalues --    0.97101   0.97861   0.98327   1.00659   1.01650
 Alpha virt. eigenvalues --    1.03937   1.09727   1.13641   1.16373   1.21669
 Alpha virt. eigenvalues --    1.28563   1.30790   1.32590   1.36819   1.46913
 Alpha virt. eigenvalues --    1.47936   1.51513   1.56180   1.56447   1.57031
 Alpha virt. eigenvalues --    1.61885   1.67290   1.76874   1.81771   1.88984
 Alpha virt. eigenvalues --    1.90468   1.97161   1.98811   1.99915   2.11781
 Alpha virt. eigenvalues --    2.18762   2.23939   2.28785   2.48094   2.48997
 Alpha virt. eigenvalues --    2.61266   2.63601   2.67822   2.72098   2.95616
 Alpha virt. eigenvalues --    3.06972   4.03687   4.13757   4.26177   4.29646
 Alpha virt. eigenvalues --    4.37919   4.44590
          Condensed to atoms (all electrons):
               1          2          3          4          5          6
     1  C    5.123000   0.544860   0.141279  -0.063139  -0.061244   0.005716
     2  O    0.544860   8.054046  -0.138933   0.008112  -0.000128  -0.012138
     3  C    0.141279  -0.138933   5.712470   0.374139   0.377233   0.367045
     4  H   -0.063139   0.008112   0.374139   0.460444  -0.021461  -0.027373
     5  H   -0.061244  -0.000128   0.377233  -0.021461   0.455688  -0.023174
     6  H    0.005716  -0.012138   0.367045  -0.027373  -0.023174   0.444966
     7  Cl   0.128057  -0.031751  -0.061259   0.003389  -0.001538   0.000897
     8  C   -0.218532  -0.114284  -0.077475   0.016090   0.020996  -0.025188
     9  N   -0.025054  -0.003514   0.000685  -0.000872  -0.000063   0.000078
               7          8          9
     1  C    0.128057  -0.218532  -0.025054
     2  O   -0.031751  -0.114284  -0.003514
     3  C   -0.061259  -0.077475   0.000685
     4  H    0.003389   0.016090  -0.000872
     5  H   -0.001538   0.020996  -0.000063
     6  H    0.000897  -0.025188   0.000078
     7  Cl  17.671417  -0.038002  -0.005348
     8  C   -0.038002   5.751124   0.631008
     9  N   -0.005348   0.631008   6.988613
 Mulliken charges:
               1
     1  C    0.425057
     2  O   -0.306271
     3  C   -0.695186
     4  H    0.250671
     5  H    0.253690
     6  H    0.269170
     7  Cl  -0.665862
     8  C    0.054264
     9  N   -0.585533
 Sum of Mulliken charges =  -1.00000
 Mulliken charges with hydrogens summed into heavy atoms:
               1
     1  C    0.425057
     2  O   -0.306271
     3  C    0.078345
     7  Cl  -0.665862
     8  C    0.054264
     9  N   -0.585533
 Electronic spatial extent (au):  <R**2>=            976.2008
 Charge=             -1.0000 electrons
 Dipole moment (field-independent basis, Debye):
    X=              1.8062    Y=              6.1276    Z=             -2.7605  Tot=              6.9591
 Quadrupole moment (field-independent basis, Debye-Ang):
   XX=            -75.5450   YY=            -52.5540   ZZ=            -48.6230
   XY=              5.7379   XZ=             -1.4432   YZ=             -5.1104
 Traceless Quadrupole moment (field-independent basis, Debye-Ang):
   XX=            -16.6377   YY=              6.3533   ZZ=             10.2843
   XY=              5.7379   XZ=             -1.4432   YZ=             -5.1104
 Octapole moment (field-independent basis, Debye-Ang**2):
  XXX=             -5.9761  YYY=             27.9230  ZZZ=             -4.6984  XYY=            -12.9679
  XXY=             41.0287  XXZ=              2.7140  XZZ=             -0.0725  YZZ=              1.4508
  YYZ=             -4.3977  XYZ=             -3.0916
 Hexadecapole moment (field-independent basis, Debye-Ang**3):
 XXXX=          -1022.9555 YYYY=           -403.3608 ZZZZ=           -184.2345 XXXY=             69.9388
 XXXZ=              3.5549 YYYX=             38.8716 YYYZ=             -9.8174 ZZZX=             -1.6977
 ZZZY=             -5.8224 XXYY=           -254.0115 XXZZ=           -174.4915 YYZZ=            -98.9452
 XXYZ=             -5.0874 YYXZ=             -0.1899 ZZXY=              2.3552
 N-N= 2.226277425458D+02 E-N=-2.122598800631D+03  KE= 7.019014915303D+02
 No NMR shielding tensors so no spin-rotation constants.
 Leave Link  601 at Wed Jan  8 01:40:25 2020, MaxMem=  4294967296 cpu:               9.7 elap:               1.1
 (Enter /home/cwagen/sw/g16/g16/l701.exe)
 ... and contract with generalized density number  0.
 Compute integral first derivatives.
 D1PCM: PCM CHGder 1st derivatives, ID1Alg=3 FixD1E=F DoIter=F DoCFld=F I1PDM=0.
 GePol: Maximum number of non-zero 1st derivatives   =     395
 Leave Link  701 at Wed Jan  8 01:40:30 2020, MaxMem=  4294967296 cpu:              71.2 elap:               5.1
 (Enter /home/cwagen/sw/g16/g16/l702.exe)
 L702 exits ... SP integral derivatives will be done elsewhere.
 Leave Link  702 at Wed Jan  8 01:40:31 2020, MaxMem=  4294967296 cpu:               1.3 elap:               0.7
 (Enter /home/cwagen/sw/g16/g16/l703.exe)
 Integral derivatives from FoFJK, PRISM(SPDF).
 Compute integral first derivatives, UseDBF=F ICtDFT=           0.
 Calling FoFJK, ICntrl=      2127 FMM=F ISym2X=0 I1Cent= 0 IOpClX= 0 NMat=1 NMatS=1 NMatT=0.
 FoFJK:  IHMeth= 1 ICntrl=    2127 DoSepK=F KAlg= 0 I1Cent=           0 FoldK=F
 IRaf=         0 NMat=       1 IRICut=       1 DoRegI=T DoRafI=F ISym2E= 0 IDoP0=0 IntGTp=1.
 FoFCou: FMM=F IPFlag=           0 FMFlag=      100000 FMFlg1=         800
         NFxFlg=           0 DoJE=F BraDBF=F KetDBF=F FulRan=T
         wScrn=  0.000000 ICntrl=      2127 IOpCl=  0 I1Cent=           0 NGrid=           0
         NMat0=    1 NMatS0=      1 NMatT0=    0 NMatD0=    1 NMtDS0=    0 NMtDT0=    0
 Symmetry not used in FoFCou.
 Leave Link  703 at Wed Jan  8 01:40:33 2020, MaxMem=  4294967296 cpu:              35.6 elap:               2.4
 (Enter /home/cwagen/sw/g16/g16/l716.exe)
 Dipole        = 7.10607191D-01 2.41077991D+00-1.08604502D+00
 ***** Axes restored to original set *****
 -------------------------------------------------------------------
 Center     Atomic                   Forces (Hartrees/Bohr)
 Number     Number              X              Y              Z
 -------------------------------------------------------------------
      1        6           0.052080211   -0.080315279   -0.101413433
      2        8          -0.006144450    0.062475952    0.109582280
      3        6          -0.018609551    0.025404941    0.010821076
      4        1          -0.000532012    0.001702028   -0.003824417
      5        1           0.001158840    0.001085277    0.000218102
      6        1           0.002354303    0.005527167   -0.004700932
      7       17           0.012128656   -0.014880028   -0.003592278
      8        6          -0.042307244    0.000004829   -0.008268367
      9        7          -0.000128752   -0.001004887    0.001177968
 -------------------------------------------------------------------
 Cartesian Forces:  Max     0.109582280 RMS     0.037921140
 Leave Link  716 at Wed Jan  8 01:40:34 2020, MaxMem=  4294967296 cpu:               1.3 elap:               0.1
 (Enter /home/cwagen/sw/g16/g16/l103.exe)

 GradGradGradGradGradGradGradGradGradGradGradGradGradGradGradGradGradGrad
 Berny optimization.
 FormGI is forming the generalized inverse of G from B-inverse, IUseBI=4.
 Internal  Forces:  Max     0.122507973 RMS     0.026815068
 Search for a local minimum.
 Step number   1 out of a maximum of   41
 All quantities printed in internal units (Hartrees-Bohrs-Radians)
 RMS Force = .26414D-01 SwitMx=.10000D-02 MixMth= 1
 Mixed Optimization -- RFO/linear search
 Second derivative matrix not updated -- first step.
 ITU=  0
     Eigenvalues ---    0.00230   0.04746   0.04746   0.05330   0.05908
     Eigenvalues ---    0.07453   0.10176   0.16000   0.16000   0.16000
     Eigenvalues ---    0.25000   0.25000   0.25000   0.26946   0.33918
     Eigenvalues ---    0.33999   0.34275   0.67840   1.220341000.00000
     Eigenvalues --- 1000.000001000.000001000.000001000.000001000.00000
     Eigenvalues --- 1000.000001000.000001000.000001000.000001000.00000
     Eigenvalues --- 1000.00000
 RFO step:  Lambda=-4.29995612D-02 EMin= 2.30000000D-03
 Linear search not attempted -- first point.
 Maximum step size (   0.300) exceeded in Quadratic search.
    -- Step size scaled by   0.943
 Iteration  1 RMS(Cart)=  0.07401770 RMS(Int)=  0.00795759
 Iteration  2 RMS(Cart)=  0.00808985 RMS(Int)=  0.00414378
 Iteration  3 RMS(Cart)=  0.00006176 RMS(Int)=  0.00414342
 Iteration  4 RMS(Cart)=  0.00000140 RMS(Int)=  0.00414342
 Iteration  5 RMS(Cart)=  0.00000002 RMS(Int)=  0.00414342
 Iteration  1 RMS(Cart)=  0.00000000 RMS(Int)=  0.00000000
 ITry= 1 IFail=0 DXMaxC= 1.84D-01 DCOld= 1.00D+10 DXMaxT= 3.00D-01 DXLimC= 3.00D+00 Rises=F
 Variable       Old X    -DE/DX   Delta X   Delta X   Delta X     New X
                                 (Linear)    (Quad)   (Total)
    R1        2.45227  -0.12251   0.00000  -0.16022  -0.16022   2.29205
    R2        2.94503  -0.02209   0.00000  -0.06670  -0.06670   2.87833
    R3        5.10226  -0.01947   0.00000   0.00000   0.00000   5.10226
    R4        3.77945  -0.04096   0.00000   0.00000   0.00000   3.77945
    R5        2.07331  -0.00319   0.00000  -0.00785  -0.00785   2.06547
    R6        2.07468  -0.00149   0.00000  -0.00367  -0.00367   2.07101
    R7        2.06868  -0.00145   0.00000  -0.00355  -0.00355   2.06513
    R8        2.20923  -0.00033   0.00000  -0.00024  -0.00024   2.20899
    A1        1.99667   0.04832   0.00000   0.16560   0.15971   2.15638
    A2        2.01908  -0.02052   0.00000  -0.08279  -0.07825   1.94083
    A3        1.89239  -0.01038   0.00000   0.02067   0.00518   1.89757
    A4        1.92419  -0.02265   0.00000  -0.09517  -0.09136   1.83283
    A5        1.77194   0.01824   0.00000   0.07182   0.06161   1.83355
    A6        1.83479  -0.01289   0.00000  -0.07626  -0.07455   1.76023
    A7        1.97398  -0.00223   0.00000  -0.01121  -0.01150   1.96248
    A8        1.87942   0.00186   0.00000   0.01179   0.01185   1.89128
    A9        1.90140  -0.01018   0.00000  -0.04965  -0.04995   1.85145
   A10        1.90356   0.00115   0.00000   0.00956   0.00960   1.91316
   A11        1.90837   0.00542   0.00000   0.01956   0.01892   1.92729
   A12        1.89554   0.00419   0.00000   0.02124   0.02135   1.91690
   A13        3.09684  -0.00269   0.00000  -0.02811  -0.02811   3.06874
   A14        2.90208   0.00163   0.00000   0.01702   0.01702   2.91910
    D1        3.04510   0.00837   0.00000   0.06255   0.06733   3.11243
    D2       -1.13357   0.00969   0.00000   0.07561   0.08023  -1.05334
    D3        0.91915   0.01021   0.00000   0.08056   0.08495   1.00410
    D4       -0.92685   0.00167   0.00000   0.00509   0.00478  -0.92207
    D5        1.17766   0.00299   0.00000   0.01815   0.01767   1.19534
    D6       -3.05280   0.00352   0.00000   0.02311   0.02240  -3.03040
    D7        1.01121  -0.01236   0.00000  -0.08099  -0.08491   0.92630
    D8        3.11572  -0.01103   0.00000  -0.06793  -0.07201   3.04371
    D9       -1.11475  -0.01051   0.00000  -0.06297  -0.06728  -1.18203
         Item               Value     Threshold  Converged?
 Maximum Force            0.122508     0.000450     NO 
 RMS     Force            0.026414     0.000300     NO 
 Maximum Displacement     0.184476     0.001800     NO 
 RMS     Displacement     0.073243     0.001200     NO 
 Predicted change in Energy=-2.446979D-02
 Lowest energy point so far.  Saving SCF results.
 GradGradGradGradGradGradGradGradGradGradGradGradGradGradGradGradGradGrad

 Leave Link  103 at Wed Jan  8 01:40:38 2020, MaxMem=  4294967296 cpu:              66.9 elap:               4.8
 (Enter /home/cwagen/sw/g16/g16/l202.exe)
                          Input orientation:                          
 ---------------------------------------------------------------------
 Center     Atomic      Atomic             Coordinates (Angstroms)
 Number     Number       Type             X           Y           Z
 ---------------------------------------------------------------------
      1          6           0       -0.150412   -0.389619   -0.246983
      2          8           0       -0.244019   -0.602068   -1.437458
      3          6           0       -0.356580   -1.459104    0.817759
      4          1           0       -0.200216   -1.076233    1.829492
      5          1           0       -1.377481   -1.846623    0.724717
      6          1           0        0.362409   -2.251194    0.594375
      7         17           0       -1.735647    1.662086    0.506368
      8          6           0        1.659112    0.375067    0.128353
      9          7           0        2.781986    0.692519    0.197721
 ---------------------------------------------------------------------
                    Distance matrix (angstroms):
                    1          2          3          4          5
     1  C    0.000000
     2  O    1.212901   0.000000
     3  C    1.523147   2.415199   0.000000
     4  H    2.187616   3.301471   1.092997   0.000000
     5  H    2.138401   2.740192   1.095932   1.788849   0.000000
     6  H    2.106260   2.686208   1.092818   1.795159   1.791056
     7  Cl   2.700000   3.336137   3.426458   3.406845   3.533695
     8  C    2.000000   2.651125   2.811134   2.908134   3.809521
     9  N    3.157174   3.675115   3.855454   3.832061   4.901646
                    6          7          8          9
     6  H    0.000000
     7  Cl   4.441097   0.000000
     8  C    2.965782   3.650165   0.000000
     9  N    3.831076   4.630803   1.168946   0.000000
 Stoichiometry    C3H3ClNO(1-)
 Framework group  C1[X(C3H3ClNO)]
 Deg. of freedom    21
 Full point group                 C1      NOp   1
 RotChk:  IX=0 Diff= 7.95D-02
 Largest Abelian subgroup         C1      NOp   1
 Largest concise Abelian subgroup C1      NOp   1
                         Standard orientation:                         
 ---------------------------------------------------------------------
 Center     Atomic      Atomic             Coordinates (Angstroms)
 Number     Number       Type             X           Y           Z
 ---------------------------------------------------------------------
      1          6           0        0.254506    0.665918    0.233290
      2          8           0        0.380240    1.073100    1.368861
      3          6           0        0.340747    1.560758   -0.996264
      4          1           0        0.229867    1.000861   -1.928393
      5          1           0       -0.446944    2.319576   -0.926943
      6          1           0        1.321955    2.039993   -0.953639
      7         17           0       -2.051076   -0.707842   -0.061786
      8          6           0        1.598290   -0.781384   -0.082244
      9          7           0        2.508605   -1.511952   -0.145749
 ---------------------------------------------------------------------
 Rotational constants (GHZ):           2.9985605           1.5782988           1.2861059
 Leave Link  202 at Wed Jan  8 01:40:38 2020, MaxMem=  4294967296 cpu:               1.2 elap:               0.1
 (Enter /home/cwagen/sw/g16/g16/l301.exe)
 Standard basis: 6-31+G(d) (6D, 7F)
 Ernie: Thresh=  0.10000D-02 Tol=  0.10000D-05 Strict=F.
 There are   124 symmetry adapted cartesian basis functions of A   symmetry.
 There are   124 symmetry adapted basis functions of A   symmetry.
   124 basis functions,   228 primitive gaussians,   124 cartesian basis functions
    27 alpha electrons       27 beta electrons
       nuclear repulsion energy       226.7694104156 Hartrees.
 IExCor=  402 DFT=T Ex+Corr=B3LYP ExCW=0 ScaHFX=  0.200000
 ScaDFX=  0.800000  0.720000  1.000000  0.810000 ScalE2=  1.000000  1.000000
 IRadAn=      5 IRanWt=     -1 IRanGd=            0 ICorTp=0 IEmpDi=  4
 NAtoms=    9 NActive=    9 NUniq=    9 SFac= 1.00D+00 NAtFMM=   60 NAOKFM=F Big=F
 Integral buffers will be    131072 words long.
 Raffenetti 2 integral format.
 Two-electron integral symmetry is turned on.
 ------------------------------------------------------------------------------
 Polarizable Continuum Model (PCM)
 =================================
 Model                : PCM.
 Atomic radii         : SMD-Coulomb.
 Polarization charges : Total charges.
 Charge compensation  : None.
 Solution method      : On-the-fly selection.
 Cavity type          : VdW (van der Waals Surface) (Alpha=1.000).
 Cavity algorithm     : GePol (No added spheres)
                        Default sphere list used, NSphG=    9.
                        Lebedev-Laikov grids with approx.  5.0 points / Ang**2.
                        Smoothing algorithm: York/Karplus (Gamma=1.0000).
                        Polarization charges: spherical gaussians, with
                                              point-specific exponents (IZeta= 3).
                        Self-potential: point-specific (ISelfS= 7).
                        Self-field    : sphere-specific E.n sum rule (ISelfD= 2).
 1st derivatives      : Analytical E(r).r(x)/FMM algorithm (CHGder, D1EAlg=3).
                        Cavity 1st derivative terms included.
 Solvent              : TetraHydroFuran, Eps=   7.425700 Eps(inf)=   1.974025
 ------------------------------------------------------------------------------
 Spheres list:
 ISph  on   Nord     Re0    Alpha      Xe            Ye            Ze
    1   C      1    1.8500  1.000      0.254506      0.665918      0.233290
    2   O      2    2.2940  1.000      0.380240      1.073100      1.368861
    3   C      3    1.8500  1.000      0.340747      1.560758     -0.996264
    4   H      4    1.2000  1.000      0.229867      1.000861     -1.928393
    5   H      5    1.2000  1.000     -0.446944      2.319576     -0.926943
    6   H      6    1.2000  1.000      1.321955      2.039993     -0.953639
    7  Cl      7    2.3800  1.000     -2.051076     -0.707842     -0.061786
    8   C      8    1.8500  1.000      1.598290     -0.781384     -0.082244
    9   N      9    1.8900  1.000      2.508605     -1.511952     -0.145749
 ------------------------------------------------------------------------------
 GePol: Number of generator spheres                  =       9
 GePol: Total number of spheres                      =       9
 GePol: Number of exposed spheres                    =       9 (100.00%)
 GePol: Number of points                             =    1256
 GePol: Average weight of points                     =       0.14
 GePol: Minimum weight of points                     =   0.25D-06
 GePol: Maximum weight of points                     =    0.18138
 GePol: Number of points with low weight             =      44
 GePol: Fraction of low-weight points (<1% of avg)   =       3.50%
 GePol: Cavity surface area                          =    170.939 Ang**2
 GePol: Cavity volume                                =    153.907 Ang**3
 ------------------------------------------------------------------------------
 Atomic radii for non-electrostatic terms: SMD-CDS.
 ------------------------------------------------------------------------------
 PCM non-electrostatic energy =         0.0000268122 Hartrees.
 Nuclear repulsion after PCM non-electrostatic terms =      226.7694372278 Hartrees.
 Leave Link  301 at Wed Jan  8 01:40:39 2020, MaxMem=  4294967296 cpu:               2.4 elap:               0.2
 (Enter /home/cwagen/sw/g16/g16/l302.exe)
 NPDir=0 NMtPBC=     1 NCelOv=     1 NCel=       1 NClECP=     1 NCelD=      1
         NCelK=      1 NCelE2=     1 NClLst=     1 CellRange=     0.0.
 One-electron integrals computed using PRISM.
 One-electron integral symmetry used in STVInt
 NBasis=   124 RedAO= T EigKep=  1.15D-04  NBF=   124
 NBsUse=   124 1.00D-06 EigRej= -1.00D+00 NBFU=   124
 Precomputing XC quadrature grid using
 IXCGrd= 4 IRadAn=           5 IRanWt=          -1 IRanGd=           0 AccXCQ= 0.00D+00.
 Generated NRdTot=       0 NPtTot=           0 NUsed=           0 NTot=          32
 NSgBfM=   124   124   124   124   124 MxSgAt=     9 MxSgA2=     9.
 Leave Link  302 at Wed Jan  8 01:40:40 2020, MaxMem=  4294967296 cpu:              21.5 elap:               1.6
 (Enter /home/cwagen/sw/g16/g16/l303.exe)
 DipDrv:  MaxL=1.
 Leave Link  303 at Wed Jan  8 01:40:41 2020, MaxMem=  4294967296 cpu:               2.9 elap:               0.8
 (Enter /home/cwagen/sw/g16/g16/l401.exe)
 Initial guess from the checkpoint file:  "/scratch/users/cwagen/cwagen_scan_270_200/Gau-60579.chk"
 B after Tr=     0.000000    0.000000    0.000000
         Rot=    0.999719   -0.009175   -0.004217   -0.021469 Ang=  -2.72 deg.
 Guess basis will be translated and rotated to current coordinates.
 JPrj=2 DoOrth=T DoCkMO=T.
 Generating alternative initial guess.
 ExpMin= 4.38D-02 ExpMax= 2.52D+04 ExpMxC= 3.78D+03 IAcc=2 IRadAn=         4 AccDes= 0.00D+00
 Harris functional with IExCor=  402 and IRadAn=       4 diagonalized for initial guess.
 HarFok:  IExCor=  402 AccDes= 0.00D+00 IRadAn=         4 IDoV= 1 UseB2=F ITyADJ=14
 ICtDFT=  3500011 ScaDFX=  1.000000  1.000000  1.000000  1.000000
 FoFCou: FMM=F IPFlag=           0 FMFlag=      100000 FMFlg1=           0
         NFxFlg=           0 DoJE=T BraDBF=F KetDBF=T FulRan=T
         wScrn=  0.000000 ICntrl=       500 IOpCl=  0 I1Cent=   200000004 NGrid=           0
         NMat0=    1 NMatS0=      1 NMatT0=    0 NMatD0=    1 NMtDS0=    0 NMtDT0=    0
 Petite list used in FoFCou.
 Harris En= -706.381476388303    
 Leave Link  401 at Wed Jan  8 01:40:44 2020, MaxMem=  4294967296 cpu:              42.2 elap:               3.1
 (Enter /home/cwagen/sw/g16/g16/l502.exe)
 Keep R1 ints in memory in canonical form, NReq=45236517.
 FoFCou: FMM=F IPFlag=           0 FMFlag=           0 FMFlg1=           0
         NFxFlg=           0 DoJE=F BraDBF=F KetDBF=F FulRan=T
         wScrn=  0.000000 ICntrl=       600 IOpCl=  0 I1Cent=           0 NGrid=           0
         NMat0=    1 NMatS0=   7750 NMatT0=    0 NMatD0=    1 NMtDS0=    0 NMtDT0=    0
 Symmetry not used in FoFCou.
 Two-electron integral symmetry not used.
 Closed shell SCF:
 Using DIIS extrapolation, IDIIS=  1040.
 NGot=  4294967296 LenX=  4264898079 LenY=  4264882262
 Requested convergence on RMS density matrix=1.00D-08 within 128 cycles.
 Requested convergence on MAX density matrix=1.00D-06.
 Requested convergence on             energy=1.00D-06.
 No special actions if energy rises.

 Cycle   1  Pass 1  IDiag  1:
 Inv3:  Mode=1 IEnd=     4732608.
 Iteration    1 A*A^-1 deviation from unit magnitude is 3.33D-15 for   1254.
 Iteration    1 A*A^-1 deviation from orthogonality  is 1.46D-15 for    318     73.
 Iteration    1 A^-1*A deviation from unit magnitude is 3.55D-15 for   1254.
 Iteration    1 A^-1*A deviation from orthogonality  is 1.01D-15 for   1253   1242.
 E= -706.385820293055    
 DIIS: error= 5.33D-03 at cycle   1 NSaved=   1.
 NSaved= 1 IEnMin= 1 EnMin= -706.385820293055     IErMin= 1 ErrMin= 5.33D-03
 ErrMax= 5.33D-03  0.00D+00 EMaxC= 1.00D-01 BMatC= 1.01D-02 BMatP= 1.01D-02
 IDIUse=3 WtCom= 9.47D-01 WtEn= 5.33D-02
 Coeff-Com:  0.100D+01
 Coeff-En:   0.100D+01
 Coeff:      0.100D+01
 Gap=     0.573 Goal=   None    Shift=    0.000
 GapD=    0.573 DampG=2.000 DampE=1.000 DampFc=2.0000 IDamp=-1.
 RMSDP=2.04D-03 MaxDP=4.76D-02              OVMax= 4.36D-02

 Cycle   2  Pass 1  IDiag  1:
 E= -706.401752443152     Delta-E=       -0.015932150097 Rises=F Damp=F
 DIIS: error= 1.65D-03 at cycle   2 NSaved=   2.
 NSaved= 2 IEnMin= 2 EnMin= -706.401752443152     IErMin= 2 ErrMin= 1.65D-03
 ErrMax= 1.65D-03  0.00D+00 EMaxC= 1.00D-01 BMatC= 7.96D-04 BMatP= 1.01D-02
 IDIUse=3 WtCom= 9.83D-01 WtEn= 1.65D-02
 Coeff-Com:  0.897D-01 0.910D+00
 Coeff-En:   0.000D+00 0.100D+01
 Coeff:      0.882D-01 0.912D+00
 Gap=     0.171 Goal=   None    Shift=    0.000
 RMSDP=5.80D-04 MaxDP=1.44D-02 DE=-1.59D-02 OVMax= 2.52D-02

 Cycle   3  Pass 1  IDiag  1:
 E= -706.401020491151     Delta-E=        0.000731952002 Rises=F Damp=F
 DIIS: error= 2.54D-03 at cycle   3 NSaved=   3.
 NSaved= 3 IEnMin= 2 EnMin= -706.401752443152     IErMin= 2 ErrMin= 1.65D-03
 ErrMax= 2.54D-03  0.00D+00 EMaxC= 1.00D-01 BMatC= 1.67D-03 BMatP= 7.96D-04
 IDIUse=3 WtCom= 1.66D-01 WtEn= 8.34D-01
 Coeff-Com: -0.214D-01 0.606D+00 0.415D+00
 Coeff-En:   0.000D+00 0.647D+00 0.353D+00
 Coeff:     -0.354D-02 0.640D+00 0.364D+00
 Gap=     0.164 Goal=   None    Shift=    0.000
 RMSDP=3.96D-04 MaxDP=1.01D-02 DE= 7.32D-04 OVMax= 1.47D-02

 Cycle   4  Pass 1  IDiag  1:
 E= -706.402461034298     Delta-E=       -0.001440543147 Rises=F Damp=F
 DIIS: error= 6.26D-04 at cycle   4 NSaved=   4.
 NSaved= 4 IEnMin= 4 EnMin= -706.402461034298     IErMin= 4 ErrMin= 6.26D-04
 ErrMax= 6.26D-04  0.00D+00 EMaxC= 1.00D-01 BMatC= 8.09D-05 BMatP= 7.96D-04
 IDIUse=3 WtCom= 9.94D-01 WtEn= 6.26D-03
 Coeff-Com: -0.234D-01 0.273D+00 0.225D+00 0.525D+00
 Coeff-En:   0.000D+00 0.000D+00 0.000D+00 0.100D+01
 Coeff:     -0.233D-01 0.271D+00 0.224D+00 0.528D+00
 Gap=     0.162 Goal=   None    Shift=    0.000
 RMSDP=1.26D-04 MaxDP=3.33D-03 DE=-1.44D-03 OVMax= 2.71D-03

 Cycle   5  Pass 1  IDiag  1:
 E= -706.402520069196     Delta-E=       -0.000059034898 Rises=F Damp=F
 DIIS: error= 2.32D-04 at cycle   5 NSaved=   5.
 NSaved= 5 IEnMin= 5 EnMin= -706.402520069196     IErMin= 5 ErrMin= 2.32D-04
 ErrMax= 2.32D-04  0.00D+00 EMaxC= 1.00D-01 BMatC= 1.30D-05 BMatP= 8.09D-05
 IDIUse=3 WtCom= 9.98D-01 WtEn= 2.32D-03
 Coeff-Com: -0.811D-02 0.835D-01 0.891D-01 0.310D+00 0.526D+00
 Coeff-En:   0.000D+00 0.000D+00 0.000D+00 0.137D+00 0.863D+00
 Coeff:     -0.809D-02 0.833D-01 0.889D-01 0.310D+00 0.526D+00
 Gap=     0.163 Goal=   None    Shift=    0.000
 RMSDP=7.21D-05 MaxDP=2.82D-03 DE=-5.90D-05 OVMax= 1.91D-03

 Cycle   6  Pass 1  IDiag  1:
 E= -706.402534303533     Delta-E=       -0.000014234337 Rises=F Damp=F
 DIIS: error= 6.99D-05 at cycle   6 NSaved=   6.
 NSaved= 6 IEnMin= 6 EnMin= -706.402534303533     IErMin= 6 ErrMin= 6.99D-05
 ErrMax= 6.99D-05  0.00D+00 EMaxC= 1.00D-01 BMatC= 1.21D-06 BMatP= 1.30D-05
 IDIUse=1 WtCom= 1.00D+00 WtEn= 0.00D+00
 Coeff-Com: -0.234D-02 0.170D-01 0.259D-01 0.119D+00 0.295D+00 0.545D+00
 Coeff:     -0.234D-02 0.170D-01 0.259D-01 0.119D+00 0.295D+00 0.545D+00
 Gap=     0.163 Goal=   None    Shift=    0.000
 RMSDP=1.44D-05 MaxDP=4.42D-04 DE=-1.42D-05 OVMax= 4.01D-04

 Cycle   7  Pass 1  IDiag  1:
 E= -706.402535328423     Delta-E=       -0.000001024890 Rises=F Damp=F
 DIIS: error= 4.29D-05 at cycle   7 NSaved=   7.
 NSaved= 7 IEnMin= 7 EnMin= -706.402535328423     IErMin= 7 ErrMin= 4.29D-05
 ErrMax= 4.29D-05  0.00D+00 EMaxC= 1.00D-01 BMatC= 2.64D-07 BMatP= 1.21D-06
 IDIUse=1 WtCom= 1.00D+00 WtEn= 0.00D+00
 Coeff-Com: -0.509D-03-0.334D-03 0.501D-02 0.410D-01 0.139D+00 0.360D+00
 Coeff-Com:  0.455D+00
 Coeff:     -0.509D-03-0.334D-03 0.501D-02 0.410D-01 0.139D+00 0.360D+00
 Coeff:      0.455D+00
 Gap=     0.163 Goal=   None    Shift=    0.000
 RMSDP=4.80D-06 MaxDP=1.14D-04 DE=-1.02D-06 OVMax= 2.10D-04

 Cycle   8  Pass 1  IDiag  1:
 E= -706.402535546481     Delta-E=       -0.000000218058 Rises=F Damp=F
 DIIS: error= 1.52D-05 at cycle   8 NSaved=   8.
 NSaved= 8 IEnMin= 8 EnMin= -706.402535546481     IErMin= 8 ErrMin= 1.52D-05
 ErrMax= 1.52D-05  0.00D+00 EMaxC= 1.00D-01 BMatC= 2.91D-08 BMatP= 2.64D-07
 IDIUse=1 WtCom= 1.00D+00 WtEn= 0.00D+00
 Coeff-Com:  0.152D-03-0.352D-02-0.239D-02 0.152D-02 0.310D-01 0.104D+00
 Coeff-Com:  0.279D+00 0.590D+00
 Coeff:      0.152D-03-0.352D-02-0.239D-02 0.152D-02 0.310D-01 0.104D+00
 Coeff:      0.279D+00 0.590D+00
 Gap=     0.163 Goal=   None    Shift=    0.000
 RMSDP=2.20D-06 MaxDP=6.58D-05 DE=-2.18D-07 OVMax= 5.55D-05

 Cycle   9  Pass 1  IDiag  1:
 E= -706.402535572474     Delta-E=       -0.000000025993 Rises=F Damp=F
 DIIS: error= 2.49D-06 at cycle   9 NSaved=   9.
 NSaved= 9 IEnMin= 9 EnMin= -706.402535572474     IErMin= 9 ErrMin= 2.49D-06
 ErrMax= 2.49D-06  0.00D+00 EMaxC= 1.00D-01 BMatC= 1.85D-09 BMatP= 2.91D-08
 IDIUse=1 WtCom= 1.00D+00 WtEn= 0.00D+00
 Coeff-Com:  0.103D-03-0.164D-02-0.177D-02-0.224D-02 0.573D-02 0.195D-01
 Coeff-Com:  0.999D-01 0.276D+00 0.605D+00
 Coeff:      0.103D-03-0.164D-02-0.177D-02-0.224D-02 0.573D-02 0.195D-01
 Coeff:      0.999D-01 0.276D+00 0.605D+00
 Gap=     0.163 Goal=   None    Shift=    0.000
 RMSDP=7.50D-07 MaxDP=2.69D-05 DE=-2.60D-08 OVMax= 2.88D-05

 Cycle  10  Pass 1  IDiag  1:
 E= -706.402535574788     Delta-E=       -0.000000002314 Rises=F Damp=F
 DIIS: error= 6.68D-07 at cycle  10 NSaved=  10.
 NSaved=10 IEnMin=10 EnMin= -706.402535574788     IErMin=10 ErrMin= 6.68D-07
 ErrMax= 6.68D-07  0.00D+00 EMaxC= 1.00D-01 BMatC= 1.37D-10 BMatP= 1.85D-09
 IDIUse=1 WtCom= 1.00D+00 WtEn= 0.00D+00
 Coeff-Com:  0.263D-04-0.220D-03-0.503D-03-0.101D-02-0.969D-03-0.529D-02
 Coeff-Com:  0.485D-02 0.394D-01 0.247D+00 0.717D+00
 Coeff:      0.263D-04-0.220D-03-0.503D-03-0.101D-02-0.969D-03-0.529D-02
 Coeff:      0.485D-02 0.394D-01 0.247D+00 0.717D+00
 Gap=     0.163 Goal=   None    Shift=    0.000
 RMSDP=1.87D-07 MaxDP=6.47D-06 DE=-2.31D-09 OVMax= 5.54D-06

 Cycle  11  Pass 1  IDiag  1:
 E= -706.402535574952     Delta-E=       -0.000000000165 Rises=F Damp=F
 DIIS: error= 1.77D-07 at cycle  11 NSaved=  11.
 NSaved=11 IEnMin=11 EnMin= -706.402535574952     IErMin=11 ErrMin= 1.77D-07
 ErrMax= 1.77D-07  0.00D+00 EMaxC= 1.00D-01 BMatC= 2.45D-12 BMatP= 1.37D-10
 IDIUse=1 WtCom= 1.00D+00 WtEn= 0.00D+00
 Coeff-Com:  0.238D-05 0.186D-04-0.474D-04-0.188D-03-0.522D-03-0.230D-02
 Coeff-Com: -0.380D-02-0.147D-02 0.372D-01 0.189D+00 0.782D+00
 Coeff:      0.238D-05 0.186D-04-0.474D-04-0.188D-03-0.522D-03-0.230D-02
 Coeff:     -0.380D-02-0.147D-02 0.372D-01 0.189D+00 0.782D+00
 Gap=     0.163 Goal=   None    Shift=    0.000
 RMSDP=7.45D-08 MaxDP=3.23D-06 DE=-1.65D-10 OVMax= 8.84D-07

 Cycle  12  Pass 1  IDiag  1:
 E= -706.402535574958     Delta-E=       -0.000000000006 Rises=F Damp=F
 DIIS: error= 2.76D-08 at cycle  12 NSaved=  12.
 NSaved=12 IEnMin=12 EnMin= -706.402535574958     IErMin=12 ErrMin= 2.76D-08
 ErrMax= 2.76D-08  0.00D+00 EMaxC= 1.00D-01 BMatC= 1.65D-13 BMatP= 2.45D-12
 IDIUse=1 WtCom= 1.00D+00 WtEn= 0.00D+00
 Coeff-Com: -0.287D-06 0.110D-04 0.108D-04-0.127D-04-0.822D-04-0.264D-03
 Coeff-Com: -0.113D-02-0.145D-02-0.534D-03 0.146D-01 0.188D+00 0.801D+00
 Coeff:     -0.287D-06 0.110D-04 0.108D-04-0.127D-04-0.822D-04-0.264D-03
 Coeff:     -0.113D-02-0.145D-02-0.534D-03 0.146D-01 0.188D+00 0.801D+00
 Gap=     0.163 Goal=   None    Shift=    0.000
 RMSDP=1.12D-08 MaxDP=4.40D-07 DE=-6.03D-12 OVMax= 2.04D-07

 Cycle  13  Pass 1  IDiag  1:
 E= -706.402535574956     Delta-E=        0.000000000002 Rises=F Damp=F
 DIIS: error= 7.29D-09 at cycle  13 NSaved=  13.
 NSaved=13 IEnMin=12 EnMin= -706.402535574958     IErMin=13 ErrMin= 7.29D-09
 ErrMax= 7.29D-09  0.00D+00 EMaxC= 1.00D-01 BMatC= 1.61D-14 BMatP= 1.65D-13
 IDIUse=1 WtCom= 1.00D+00 WtEn= 0.00D+00
 Coeff-Com: -0.284D-06 0.372D-05 0.708D-05 0.393D-05-0.697D-05 0.811D-05
 Coeff-Com: -0.274D-03-0.484D-03-0.216D-02-0.453D-02 0.352D-01 0.337D+00
 Coeff-Com:  0.635D+00
 Coeff:     -0.284D-06 0.372D-05 0.708D-05 0.393D-05-0.697D-05 0.811D-05
 Coeff:     -0.274D-03-0.484D-03-0.216D-02-0.453D-02 0.352D-01 0.337D+00
 Coeff:      0.635D+00
 Gap=     0.163 Goal=   None    Shift=    0.000
 RMSDP=1.58D-09 MaxDP=3.62D-08 DE= 1.93D-12 OVMax= 7.36D-08

 Error on total polarization charges =  0.02411
 SCF Done:  E(RB3LYP) =  -706.402535575     A.U. after   13 cycles
            NFock= 13  Conv=0.16D-08     -V/T= 2.0060
 KE= 7.021962079724D+02 PE=-2.131151754053D+03 EE= 4.957835732781D+02
 SMD-CDS (non-electrostatic) energy       (kcal/mol) =       0.02
 (included in total energy above)
 Leave Link  502 at Wed Jan  8 01:41:19 2020, MaxMem=  4294967296 cpu:             502.1 elap:              35.0
 (Enter /home/cwagen/sw/g16/g16/l701.exe)
 ... and contract with generalized density number  0.
 Compute integral first derivatives.
 D1PCM: PCM CHGder 1st derivatives, ID1Alg=3 FixD1E=F DoIter=F DoCFld=F I1PDM=0.
 GePol: Maximum number of non-zero 1st derivatives   =     394
 Leave Link  701 at Wed Jan  8 01:41:24 2020, MaxMem=  4294967296 cpu:              63.7 elap:               5.0
 (Enter /home/cwagen/sw/g16/g16/l702.exe)
 L702 exits ... SP integral derivatives will be done elsewhere.
 Leave Link  702 at Wed Jan  8 01:41:25 2020, MaxMem=  4294967296 cpu:               1.2 elap:               0.6
 (Enter /home/cwagen/sw/g16/g16/l703.exe)
 Integral derivatives from FoFJK, PRISM(SPDF).
 Compute integral first derivatives, UseDBF=F ICtDFT=           0.
 Calling FoFJK, ICntrl=      2127 FMM=F ISym2X=0 I1Cent= 0 IOpClX= 0 NMat=1 NMatS=1 NMatT=0.
 FoFJK:  IHMeth= 1 ICntrl=    2127 DoSepK=F KAlg= 0 I1Cent=           0 FoldK=F
 IRaf=         0 NMat=       1 IRICut=       1 DoRegI=T DoRafI=F ISym2E= 0 IDoP0=0 IntGTp=1.
 FoFCou: FMM=F IPFlag=           0 FMFlag=      100000 FMFlg1=         800
         NFxFlg=           0 DoJE=F BraDBF=F KetDBF=F FulRan=T
         wScrn=  0.000000 ICntrl=      2127 IOpCl=  0 I1Cent=           0 NGrid=           0
         NMat0=    1 NMatS0=      1 NMatT0=    0 NMatD0=    1 NMtDS0=    0 NMtDT0=    0
 Symmetry not used in FoFCou.
 Leave Link  703 at Wed Jan  8 01:41:27 2020, MaxMem=  4294967296 cpu:              35.4 elap:               2.3
 (Enter /home/cwagen/sw/g16/g16/l716.exe)
 Dipole        = 8.03978315D-01 2.85733594D+00-9.21743166D-01
 ***** Axes restored to original set *****
 -------------------------------------------------------------------
 Center     Atomic                   Forces (Hartrees/Bohr)
 Number     Number              X              Y              Z
 -------------------------------------------------------------------
      1        6           0.045227339   -0.031276643   -0.041887034
      2        8          -0.008889733    0.026223792    0.042517484
      3        6          -0.011124318    0.021228904    0.007062498
      4        1           0.000367952   -0.000017513   -0.001922377
      5        1           0.000816747    0.000173195   -0.000509151
      6        1           0.002098216    0.000411871   -0.001222087
      7       17           0.007809602   -0.010071253   -0.002164299
      8        6          -0.036970313   -0.007094171   -0.001924196
      9        7           0.000664507    0.000421817    0.000049161
 -------------------------------------------------------------------
 Cartesian Forces:  Max     0.045227339 RMS     0.018833013
 Leave Link  716 at Wed Jan  8 01:41:27 2020, MaxMem=  4294967296 cpu:               1.3 elap:               0.1
 (Enter /home/cwagen/sw/g16/g16/l103.exe)

 GradGradGradGradGradGradGradGradGradGradGradGradGradGradGradGradGradGrad
 Berny optimization.
 Using GEDIIS/GDIIS optimizer.
 FormGI is forming the generalized inverse of G from B-inverse, IUseBI=4.
 Internal  Forces:  Max     0.045643398 RMS     0.013150506
 Search for a local minimum.
 Step number   2 out of a maximum of   41
 All quantities printed in internal units (Hartrees-Bohrs-Radians)
 RMS Force = .11622D-01 SwitMx=.10000D-02 MixMth= 1
 Mixed Optimization -- RFO/linear search
 Update second derivatives using D2CorX and points    1    2
 DE= -3.07D-02 DEPred=-2.45D-02 R= 1.26D+00
 TightC=F SS=  1.41D+00  RLast= 3.47D-01 DXNew= 5.0454D-01 1.0404D+00
 Trust test= 1.26D+00 RLast= 3.47D-01 DXMaxT set to 5.05D-01
 ITU=  1  0
 Use linear search instead of GDIIS.
     Eigenvalues ---    0.00230   0.04746   0.04759   0.05452   0.05519
     Eigenvalues ---    0.06096   0.08934   0.15996   0.16000   0.16130
     Eigenvalues ---    0.21325   0.25000   0.26087   0.26761   0.33916
     Eigenvalues ---    0.33988   0.34304   0.60607   1.220411000.00000
     Eigenvalues --- 1000.000001000.000001000.000001000.000001000.00000
     Eigenvalues --- 1000.000001000.000001000.000001000.000001000.00000
     Eigenvalues --- 1000.00000
 RFO step:  Lambda=-3.60658700D-03 EMin= 2.30107245D-03
 Quartic linear search produced a step of  0.69315.
 Iteration  1 RMS(Cart)=  0.08880766 RMS(Int)=  0.01162943
 Iteration  2 RMS(Cart)=  0.01014833 RMS(Int)=  0.00728528
 Iteration  3 RMS(Cart)=  0.00011069 RMS(Int)=  0.00728472
 Iteration  4 RMS(Cart)=  0.00000262 RMS(Int)=  0.00728472
 Iteration  5 RMS(Cart)=  0.00000004 RMS(Int)=  0.00728472
 Iteration  1 RMS(Cart)=  0.00000000 RMS(Int)=  0.00000000
 ITry= 1 IFail=0 DXMaxC= 2.11D-01 DCOld= 1.00D+10 DXMaxT= 5.05D-01 DXLimC= 3.00D+00 Rises=F
 Variable       Old X    -DE/DX   Delta X   Delta X   Delta X     New X
                                 (Linear)    (Quad)   (Total)
    R1        2.29205  -0.04564  -0.11106   0.00739  -0.10367   2.18838
    R2        2.87833  -0.01186  -0.04623  -0.01256  -0.05879   2.81954
    R3        5.10226  -0.01283   0.00000   0.00000   0.00000   5.10226
    R4        3.77945  -0.03577   0.00000   0.00000   0.00000   3.77945
    R5        2.06547  -0.00172  -0.00544  -0.00175  -0.00719   2.05827
    R6        2.07101  -0.00077  -0.00255  -0.00066  -0.00320   2.06781
    R7        2.06513   0.00132  -0.00246   0.00961   0.00715   2.07228
    R8        2.20899   0.00076  -0.00017   0.00124   0.00107   2.21005
    A1        2.15638   0.02763   0.11070   0.05456   0.15260   2.30898
    A2        1.94083  -0.00993  -0.05424  -0.02670  -0.06976   1.87107
    A3        1.89757  -0.00264   0.00359   0.06436   0.04289   1.94046
    A4        1.83283  -0.01525  -0.06333  -0.05789  -0.11298   1.71985
    A5        1.83355   0.00041   0.04270  -0.02471  -0.00346   1.83009
    A6        1.76023  -0.00604  -0.05168  -0.02608  -0.07863   1.68160
    A7        1.96248  -0.00069  -0.00797   0.00598  -0.00221   1.96027
    A8        1.89128   0.00023   0.00822  -0.00946  -0.00121   1.89007
    A9        1.85145  -0.00274  -0.03462   0.02558  -0.00927   1.84218
   A10        1.91316   0.00084   0.00665   0.00094   0.00762   1.92078
   A11        1.92729   0.00107   0.01311  -0.01129   0.00133   1.92862
   A12        1.91690   0.00123   0.01480  -0.01164   0.00322   1.92012
   A13        3.06874   0.00037  -0.01948   0.07191   0.05243   3.12116
   A14        2.91910  -0.00001   0.01180  -0.03656  -0.02476   2.89434
    D1        3.11243   0.00810   0.04667   0.02984   0.08331  -3.08745
    D2       -1.05334   0.00888   0.05561   0.02836   0.09064  -0.96270
    D3        1.00410   0.00898   0.05889   0.02354   0.08893   1.09303
    D4       -0.92207   0.00134   0.00331  -0.02375  -0.02298  -0.94505
    D5        1.19534   0.00211   0.01225  -0.02523  -0.01565   1.17969
    D6       -3.03040   0.00222   0.01553  -0.03005  -0.01736  -3.04776
    D7        0.92630  -0.01056  -0.05885  -0.08171  -0.14441   0.78189
    D8        3.04371  -0.00979  -0.04991  -0.08319  -0.13707   2.90664
    D9       -1.18203  -0.00968  -0.04664  -0.08801  -0.13878  -1.32081
         Item               Value     Threshold  Converged?
 Maximum Force            0.045643     0.000450     NO 
 RMS     Force            0.011622     0.000300     NO 
 Maximum Displacement     0.210738     0.001800     NO 
 RMS     Displacement     0.091308     0.001200     NO 
 Predicted change in Energy=-1.274099D-02
 Lowest energy point so far.  Saving SCF results.
 GradGradGradGradGradGradGradGradGradGradGradGradGradGradGradGradGradGrad

 Leave Link  103 at Wed Jan  8 01:41:34 2020, MaxMem=  4294967296 cpu:              87.0 elap:               6.3
 (Enter /home/cwagen/sw/g16/g16/l202.exe)
                          Input orientation:                          
 ---------------------------------------------------------------------
 Center     Atomic      Atomic             Coordinates (Angstroms)
 Number     Number       Type             X           Y           Z
 ---------------------------------------------------------------------
      1          6           0       -0.106646   -0.488962   -0.308776
      2          8           0       -0.251205   -0.569979   -1.454899
      3          6           0       -0.364331   -1.446675    0.805923
      4          1           0       -0.158560   -1.009947    1.782275
      5          1           0       -1.409657   -1.765333    0.750214
      6          1           0        0.298633   -2.300048    0.619457
      7         17           0       -1.653996    1.550568    0.549143
      8          6           0        1.647557    0.360345    0.140055
      9          7           0        2.737359    0.774861    0.230953
 ---------------------------------------------------------------------
                    Distance matrix (angstroms):
                    1          2          3          4          5
     1  C    0.000000
     2  O    1.158042   0.000000
     3  C    1.492034   2.427490   0.000000
     4  H    2.155600   3.268249   1.089190   0.000000
     5  H    2.109127   2.762862   1.094237   1.789134   0.000000
     6  H    2.075066   2.756522   1.096602   1.795977   1.794790
     7  Cl   2.700000   3.237396   3.273016   3.211414   3.330965
     8  C    2.000000   2.648524   2.785030   2.799401   3.773242
     9  N    3.158627   3.685405   3.858276   3.738781   4.890804
                    6          7          8          9
     6  H    0.000000
     7  Cl   4.317980   0.000000
     8  C    3.021112   3.533304   0.000000
     9  N    3.943779   4.470679   1.169511   0.000000
 Stoichiometry    C3H3ClNO(1-)
 Framework group  C1[X(C3H3ClNO)]
 Deg. of freedom    21
 Full point group                 C1      NOp   1
 RotChk:  IX=0 Diff= 1.04D-01
 Largest Abelian subgroup         C1      NOp   1
 Largest concise Abelian subgroup C1      NOp   1
                         Standard orientation:                         
 ---------------------------------------------------------------------
 Center     Atomic      Atomic             Coordinates (Angstroms)
 Number     Number       Type             X           Y           Z
 ---------------------------------------------------------------------
      1          6           0        0.272123    0.759058    0.251583
      2          8           0        0.301648    1.107397    1.355598
      3          6           0        0.193110    1.508712   -1.036028
      4          1           0        0.130552    0.845341   -1.897632
      5          1           0       -0.684634    2.161126   -1.000312
      6          1           0        1.107650    2.112109   -1.081476
      7         17           0       -1.929105   -0.776508   -0.042748
      8          6           0        1.603049   -0.695843   -0.082928
      9          7           0        2.488335   -1.458384   -0.133489
 ---------------------------------------------------------------------
 Rotational constants (GHZ):           2.9866875           1.6807151           1.3556157
 Leave Link  202 at Wed Jan  8 01:41:34 2020, MaxMem=  4294967296 cpu:               1.3 elap:               0.3
 (Enter /home/cwagen/sw/g16/g16/l301.exe)
 Standard basis: 6-31+G(d) (6D, 7F)
 Ernie: Thresh=  0.10000D-02 Tol=  0.10000D-05 Strict=F.
 There are   124 symmetry adapted cartesian basis functions of A   symmetry.
 There are   124 symmetry adapted basis functions of A   symmetry.
   124 basis functions,   228 primitive gaussians,   124 cartesian basis functions
    27 alpha electrons       27 beta electrons
       nuclear repulsion energy       230.8065682604 Hartrees.
 IExCor=  402 DFT=T Ex+Corr=B3LYP ExCW=0 ScaHFX=  0.200000
 ScaDFX=  0.800000  0.720000  1.000000  0.810000 ScalE2=  1.000000  1.000000
 IRadAn=      5 IRanWt=     -1 IRanGd=            0 ICorTp=0 IEmpDi=  4
 NAtoms=    9 NActive=    9 NUniq=    9 SFac= 1.00D+00 NAtFMM=   60 NAOKFM=F Big=F
 Integral buffers will be    131072 words long.
 Raffenetti 2 integral format.
 Two-electron integral symmetry is turned on.
 ------------------------------------------------------------------------------
 Polarizable Continuum Model (PCM)
 =================================
 Model                : PCM.
 Atomic radii         : SMD-Coulomb.
 Polarization charges : Total charges.
 Charge compensation  : None.
 Solution method      : On-the-fly selection.
 Cavity type          : VdW (van der Waals Surface) (Alpha=1.000).
 Cavity algorithm     : GePol (No added spheres)
                        Default sphere list used, NSphG=    9.
                        Lebedev-Laikov grids with approx.  5.0 points / Ang**2.
                        Smoothing algorithm: York/Karplus (Gamma=1.0000).
                        Polarization charges: spherical gaussians, with
                                              point-specific exponents (IZeta= 3).
                        Self-potential: point-specific (ISelfS= 7).
                        Self-field    : sphere-specific E.n sum rule (ISelfD= 2).
 1st derivatives      : Analytical E(r).r(x)/FMM algorithm (CHGder, D1EAlg=3).
                        Cavity 1st derivative terms included.
 Solvent              : TetraHydroFuran, Eps=   7.425700 Eps(inf)=   1.974025
 ------------------------------------------------------------------------------
 Spheres list:
 ISph  on   Nord     Re0    Alpha      Xe            Ye            Ze
    1   C      1    1.8500  1.000      0.272123      0.759058      0.251583
    2   O      2    2.2940  1.000      0.301648      1.107397      1.355598
    3   C      3    1.8500  1.000      0.193110      1.508712     -1.036028
    4   H      4    1.2000  1.000      0.130552      0.845341     -1.897632
    5   H      5    1.2000  1.000     -0.684634      2.161126     -1.000312
    6   H      6    1.2000  1.000      1.107650      2.112109     -1.081476
    7  Cl      7    2.3800  1.000     -1.929105     -0.776508     -0.042748
    8   C      8    1.8500  1.000      1.603049     -0.695843     -0.082928
    9   N      9    1.8900  1.000      2.488335     -1.458384     -0.133489
 ------------------------------------------------------------------------------
 GePol: Number of generator spheres                  =       9
 GePol: Total number of spheres                      =       9
 GePol: Number of exposed spheres                    =       9 (100.00%)
 GePol: Number of points                             =    1237
 GePol: Average weight of points                     =       0.14
 GePol: Minimum weight of points                     =   0.12D-05
 GePol: Maximum weight of points                     =    0.18138
 GePol: Number of points with low weight             =      30
 GePol: Fraction of low-weight points (<1% of avg)   =       2.43%
 GePol: Cavity surface area                          =    168.057 Ang**2
 GePol: Cavity volume                                =    152.508 Ang**3
 ------------------------------------------------------------------------------
 Atomic radii for non-electrostatic terms: SMD-CDS.
[...]
      6        1           0.000015632   -0.000013622   -0.000032816
      7       17          -0.000646158    0.000865041    0.000464979
      8        6          -0.031897957   -0.016739400   -0.008445918
      9        7          -0.000008273    0.000018398    0.000000468
 -------------------------------------------------------------------
 Cartesian Forces:  Max     0.032515065 RMS     0.010081647
 Leave Link  716 at Wed Jan  8 01:46:24 2020, MaxMem=  4294967296 cpu:               1.5 elap:               0.9
 (Enter /home/cwagen/sw/g16/g16/l103.exe)

 GradGradGradGradGradGradGradGradGradGradGradGradGradGradGradGradGradGrad
 Berny optimization.
 Using GEDIIS/GDIIS optimizer.
 FormGI is forming the generalized inverse of G from B-inverse, IUseBI=4.
 Internal  Forces:  Max     0.037000378 RMS     0.006648769
 Search for a local minimum.
 Step number   9 out of a maximum of   41
 All quantities printed in internal units (Hartrees-Bohrs-Radians)
 RMS Force = .11414D-04 SwitMx=.10000D-02 MixMth= 2
 Mixed Optimization -- En-DIIS/RFO-DIIS
 Swapping is turned off.
 Update second derivatives using D2CorX and points    3    4    5    6    7
                                                      8    9
 DE= -5.20D-07 DEPred=-2.52D-07 R= 2.07D+00
 Trust test= 2.07D+00 RLast= 7.23D-03 DXMaxT set to 9.71D-01
 ITU=  0  1  1  1  1  1  1  1  0
     Eigenvalues ---    0.00282   0.01697   0.03557   0.04563   0.05575
     Eigenvalues ---    0.05914   0.09677   0.14603   0.16118   0.16494
     Eigenvalues ---    0.20337   0.22087   0.25763   0.29297   0.33966
     Eigenvalues ---    0.33999   0.34382   1.01892   1.221371000.00000
     Eigenvalues --- 1000.000001000.000001000.000001000.000001000.00000
     Eigenvalues --- 1000.000001000.000001000.000001000.000001000.00000
     Eigenvalues --- 1000.00000
 En-DIIS/RFO-DIIS/Sim-DIIS IScMMF=       -3 using points:     9    8    7    6    5
 RFO step:  Lambda=-1.40360301D-06.
 NNeg= 0 NGDIIS= 5 SimSw=  2.50D-01 Rises=F DC= -5.20D-07 SmlDif=  1.00D-05
 NRisDI= 0 DoIntr=F SqrtH=F CThrHd= 10.0 CDAdj=  3.0
 RMS Error=  0.1529424493D-03 NUsed= 5 OKEnD=F EnDIS=F
 InvSVX:  RCond= 7.56D-08 Info=           0 Equed=N FErr=  2.65D-13 BErr=  1.10D-16
 DIIS inversion failure, remove point   5.
 InvSVX:  RCond= 6.56D-07 Info=           0 Equed=N FErr=  1.58D-14 BErr=  6.08D-17
 RFO-DIIS uses    4 points instead of    5
 DidBck=F Rises=F RFO-DIIS coefs:    0.86755    0.19709   -0.09745    0.03281    0.00000
 Iteration  1 RMS(Cart)=  0.00025938 RMS(Int)=  0.00000010
 Iteration  2 RMS(Cart)=  0.00000007 RMS(Int)=  0.00000007
 Iteration  1 RMS(Cart)=  0.00000000 RMS(Int)=  0.00000000
 ITry= 1 IFail=0 DXMaxC= 9.09D-04 DCOld= 1.00D+10 DXMaxT= 9.71D-01 DXLimC= 3.00D+00 Rises=F
 Variable       Old X    -DE/DX   Delta X   Delta X   Delta X     New X
                                 (Linear)    (Quad)   (Total)
    R1        2.21871   0.00001   0.00002  -0.00002   0.00000   2.21871
    R2        2.80357   0.00000   0.00006  -0.00009  -0.00003   2.80355
    R3        5.10226   0.00117   0.00000   0.00000   0.00000   5.10226
    R4        3.77945  -0.03700   0.00000   0.00000   0.00000   3.77945
    R5        2.05520  -0.00001   0.00001  -0.00003  -0.00002   2.05518
    R6        2.06726   0.00001  -0.00001   0.00004   0.00002   2.06728
    R7        2.07765   0.00001   0.00000   0.00003   0.00002   2.07767
    R8        2.20944   0.00000   0.00001  -0.00001   0.00000   2.20944
    A1        2.37148   0.00001  -0.00003   0.00008   0.00004   2.37153
    A2        1.81009   0.00000   0.00003  -0.00007  -0.00003   1.81005
    A3        1.98920   0.00003  -0.00009   0.00022   0.00014   1.98934
    A4        1.62839   0.00000   0.00004  -0.00006  -0.00002   1.62837
    A5        1.84361  -0.00004   0.00006  -0.00024  -0.00018   1.84342
    A6        1.60481   0.00001   0.00009  -0.00003   0.00007   1.60488
    A7        1.94178   0.00000   0.00007  -0.00004   0.00003   1.94181
    A8        1.89984   0.00002   0.00007   0.00003   0.00010   1.89995
    A9        1.85783   0.00000  -0.00010   0.00006  -0.00004   1.85779
   A10        1.93416  -0.00001  -0.00006   0.00000  -0.00007   1.93409
   A11        1.91335   0.00000   0.00005   0.00006   0.00010   1.91346
   A12        1.91527  -0.00001  -0.00003  -0.00010  -0.00013   1.91514
   A13        3.14233  -0.00002  -0.00009  -0.00031  -0.00040   3.14193
   A14        3.02657  -0.00001  -0.00038  -0.00004  -0.00042   3.02615
    D1       -2.83436   0.00000  -0.00002   0.00017   0.00015  -2.83420
    D2       -0.69810   0.00000   0.00000   0.00016   0.00016  -0.69794
    D3        1.36524   0.00000  -0.00005   0.00009   0.00004   1.36527
    D4       -0.85156   0.00000   0.00006   0.00004   0.00010  -0.85146
    D5        1.28470   0.00000   0.00008   0.00003   0.00010   1.28481
    D6       -2.93515  -0.00001   0.00002  -0.00004  -0.00002  -2.93517
    D7        0.77077   0.00000   0.00017  -0.00002   0.00015   0.77092
    D8        2.90703   0.00000   0.00019  -0.00003   0.00015   2.90718
    D9       -1.31282   0.00000   0.00013  -0.00010   0.00003  -1.31279
         Item               Value     Threshold  Converged?
 Maximum Force            0.000040     0.000450     YES
 RMS     Force            0.000011     0.000300     YES
 Maximum Displacement     0.000909     0.001800     YES
 RMS     Displacement     0.000259     0.001200     YES
 Predicted change in Energy=-1.638109D-08
 Optimization completed.
    -- Stationary point found.
                           ----------------------------
                           !   Optimized Parameters   !
                           ! (Angstroms and Degrees)  !
 --------------------------                            --------------------------
 ! Name  Definition              Value          Derivative Info.                !
 --------------------------------------------------------------------------------
 ! R1    R(1,2)                  1.1741         -DE/DX =    0.0                 !
 ! R2    R(1,3)                  1.4836         -DE/DX =    0.0                 !
 ! R3    R(1,7)                  2.7            -DE/DX =    0.0012              !
 ! R4    R(1,8)                  2.0            -DE/DX =   -0.037               !
 ! R5    R(3,4)                  1.0876         -DE/DX =    0.0                 !
 ! R6    R(3,5)                  1.0939         -DE/DX =    0.0                 !
 ! R7    R(3,6)                  1.0994         -DE/DX =    0.0                 !
 ! R8    R(8,9)                  1.1692         -DE/DX =    0.0                 !
 ! A1    A(2,1,3)              135.876          -DE/DX =    0.0                 !
 ! A2    A(2,1,7)              103.7103         -DE/DX =    0.0                 !
 ! A3    A(2,1,8)              113.9728         -DE/DX =    0.0                 !
 ! A4    A(3,1,7)               93.3            -DE/DX =    0.0                 !
 ! A5    A(3,1,8)              105.631          -DE/DX =    0.0                 !
 ! A6    A(7,1,8)               91.949          -DE/DX =    0.0                 !
 ! A7    A(1,3,4)              111.2558         -DE/DX =    0.0                 !
 ! A8    A(1,3,5)              108.853          -DE/DX =    0.0                 !
 ! A9    A(1,3,6)              106.4457         -DE/DX =    0.0                 !
 ! A10   A(4,3,5)              110.8191         -DE/DX =    0.0                 !
 ! A11   A(4,3,6)              109.6271         -DE/DX =    0.0                 !
 ! A12   A(5,3,6)              109.737          -DE/DX =    0.0                 !
 ! A13   L(1,8,9,6,-1)         180.042          -DE/DX =    0.0                 !
 ! A14   L(1,8,9,6,-2)         173.4099         -DE/DX =    0.0                 !
 ! D1    D(2,1,3,4)           -162.3967         -DE/DX =    0.0                 !
 ! D2    D(2,1,3,5)            -39.998          -DE/DX =    0.0                 !
 ! D3    D(2,1,3,6)             78.2223         -DE/DX =    0.0                 !
 ! D4    D(7,1,3,4)            -48.7905         -DE/DX =    0.0                 !
 ! D5    D(7,1,3,5)             73.6082         -DE/DX =    0.0                 !
 ! D6    D(7,1,3,6)           -168.1716         -DE/DX =    0.0                 !
 ! D7    D(8,1,3,4)             44.1619         -DE/DX =    0.0                 !
 ! D8    D(8,1,3,5)            166.5606         -DE/DX =    0.0                 !
 ! D9    D(8,1,3,6)            -75.2191         -DE/DX =    0.0                 !
 --------------------------------------------------------------------------------
 Lowest energy point so far.  Saving SCF results.
 Largest change from initial coordinates is atom    6       0.167 Angstoms.
 GradGradGradGradGradGradGradGradGradGradGradGradGradGradGradGradGradGrad

 Leave Link  103 at Wed Jan  8 01:46:27 2020, MaxMem=  4294967296 cpu:              37.6 elap:               2.6
 (Enter /home/cwagen/sw/g16/g16/l202.exe)
                          Input orientation:                          
 ---------------------------------------------------------------------
 Center     Atomic      Atomic             Coordinates (Angstroms)
 Number     Number       Type             X           Y           Z
 ---------------------------------------------------------------------
      1          6           0       -0.070300   -0.560572   -0.358808
      2          8           0       -0.323081   -0.553476   -1.505341
      3          6           0       -0.376408   -1.443099    0.793786
      4          1           0       -0.207158   -0.931115    1.738258
      5          1           0       -1.414035   -1.780475    0.714901
      6          1           0        0.301352   -2.305140    0.714378
      7         17           0       -1.519002    1.492781    0.628617
      8          6           0        1.652865    0.345570    0.099022
      9          7           0        2.694921    0.840357    0.289530
 ---------------------------------------------------------------------
                    Distance matrix (angstroms):
                    1          2          3          4          5
     1  C    0.000000
     2  O    1.174089   0.000000
     3  C    1.483587   2.465818   0.000000
     4  H    2.133945   3.267565   1.087566   0.000000
     5  H    2.108706   2.761373   1.093946   1.795891   0.000000
     6  H    2.081675   2.895754   1.099444   1.787416   1.793830
     7  Cl   2.700000   3.189227   3.154710   2.971112   3.276075
     8  C    2.000000   2.699376   2.792845   2.788674   3.782229
     9  N    3.166922   3.777919   3.860247   3.695807   4.892160
                    6          7          8          9
     6  H    0.000000
     7  Cl   4.212510   0.000000
     8  C    3.038340   3.414279   0.000000
     9  N    3.975402   4.277591   1.169183   0.000000
 Stoichiometry    C3H3ClNO(1-)
 Framework group  C1[X(C3H3ClNO)]
 Deg. of freedom    21
 Full point group                 C1      NOp   1
 RotChk:  IX=0 Diff= 7.03D-16
 Largest Abelian subgroup         C1      NOp   1
 Largest concise Abelian subgroup C1      NOp   1
                         Standard orientation:                         
 ---------------------------------------------------------------------
 Center     Atomic      Atomic             Coordinates (Angstroms)
 Number     Number       Type             X           Y           Z
 ---------------------------------------------------------------------
      1          6           0        0.276957    0.852148    0.232983
      2          8           0        0.192707    1.232247    1.340643
      3          6           0        0.062768    1.437886   -1.113146
      4          1           0       -0.044093    0.662390   -1.868121
      5          1           0       -0.824817    2.076663   -1.083565
      6          1           0        0.951399    2.046958   -1.332561
      7         17           0       -1.792221   -0.864745   -0.013555
      8          6           0        1.612824   -0.614006   -0.023631
      9          7           0        2.446903   -1.428500   -0.112527
 ---------------------------------------------------------------------
 Rotational constants (GHZ):           2.8628232           1.8000602           1.4163452
 Leave Link  202 at Wed Jan  8 01:46:27 2020, MaxMem=  4294967296 cpu:               2.2 elap:               0.2
 (Enter /home/cwagen/sw/g16/g16/l601.exe)
 Copying SCF densities to generalized density rwf, IOpCl= 0 IROHF=0.

 **********************************************************************

            Population analysis using the SCF density.

 **********************************************************************

 Orbital symmetries:
       Occupied  (A) (A) (A) (A) (A) (A) (A) (A) (A) (A) (A) (A)
                 (A) (A) (A) (A) (A) (A) (A) (A) (A) (A) (A) (A)
                 (A) (A) (A)
       Virtual   (A) (A) (A) (A) (A) (A) (A) (A) (A) (A) (A) (A)
                 (A) (A) (A) (A) (A) (A) (A) (A) (A) (A) (A) (A)
                 (A) (A) (A) (A) (A) (A) (A) (A) (A) (A) (A) (A)
                 (A) (A) (A) (A) (A) (A) (A) (A) (A) (A) (A) (A)
                 (A) (A) (A) (A) (A) (A) (A) (A) (A) (A) (A) (A)
                 (A) (A) (A) (A) (A) (A) (A) (A) (A) (A) (A) (A)
                 (A) (A) (A) (A) (A) (A) (A) (A) (A) (A) (A) (A)
                 (A) (A) (A) (A) (A) (A) (A) (A) (A) (A) (A) (A)
                 (A)
 The electronic state is 1-A.
 Alpha  occ. eigenvalues -- -101.42478 -19.19403 -14.31112 -10.34496 -10.19964
 Alpha  occ. eigenvalues --  -10.19565  -9.33858  -7.09730  -7.09586  -7.09580
 Alpha  occ. eigenvalues --   -1.10066  -0.87020  -0.76223  -0.67893  -0.55162
 Alpha  occ. eigenvalues --   -0.48904  -0.46432  -0.45652  -0.39918  -0.38558
 Alpha  occ. eigenvalues --   -0.36923  -0.31343  -0.31225  -0.28476  -0.22441
 Alpha  occ. eigenvalues --   -0.22069  -0.22046
 Alpha virt. eigenvalues --   -0.03460  -0.00047   0.02657   0.04643   0.05061
 Alpha virt. eigenvalues --    0.06135   0.06736   0.07667   0.08976   0.09891
 Alpha virt. eigenvalues --    0.10226   0.10410   0.10816   0.12851   0.13570
 Alpha virt. eigenvalues --    0.14036   0.14242   0.16903   0.17156   0.20804
 Alpha virt. eigenvalues --    0.22947   0.23911   0.24955   0.24986   0.26096
 Alpha virt. eigenvalues --    0.27394   0.28827   0.30066   0.32245   0.34751
 Alpha virt. eigenvalues --    0.37011   0.41310   0.48046   0.61288   0.62324
 Alpha virt. eigenvalues --    0.64781   0.66135   0.68005   0.69507   0.72576
 Alpha virt. eigenvalues --    0.75029   0.77819   0.79611   0.80087   0.81918
 Alpha virt. eigenvalues --    0.83207   0.88545   0.94040   0.97682   0.98399
 Alpha virt. eigenvalues --    0.99494   0.99879   1.01042   1.01855   1.02616
 Alpha virt. eigenvalues --    1.04015   1.08706   1.15053   1.17390   1.26317
 Alpha virt. eigenvalues --    1.27688   1.31104   1.32165   1.37018   1.43817
 Alpha virt. eigenvalues --    1.52485   1.54010   1.56403   1.57953   1.58650
 Alpha virt. eigenvalues --    1.62836   1.66208   1.80435   1.82722   1.85520
 Alpha virt. eigenvalues --    1.90494   1.99070   1.99783   2.04422   2.13845
 Alpha virt. eigenvalues --    2.23168   2.26588   2.41130   2.55308   2.59309
 Alpha virt. eigenvalues --    2.62921   2.67677   2.71265   2.90991   3.09802
 Alpha virt. eigenvalues --    3.15688   4.08314   4.18778   4.26145   4.37445
 Alpha virt. eigenvalues --    4.42244   4.47521
          Condensed to atoms (all electrons):
               1          2          3          4          5          6
     1  C    5.498423   0.561626  -0.075798  -0.082601  -0.088020   0.020871
     2  O    0.561626   7.906519  -0.074226   0.006993   0.002201  -0.006192
     3  C   -0.075798  -0.074226   5.841108   0.404682   0.391874   0.329516
     4  H   -0.082601   0.006993   0.404682   0.422858  -0.018537  -0.023247
     5  H   -0.088020   0.002201   0.391874  -0.018537   0.442894  -0.022276
     6  H    0.020871  -0.006192   0.329516  -0.023247  -0.022276   0.450846
     7  Cl   0.238214  -0.064068  -0.117367  -0.004036  -0.004886   0.004732
     8  C   -0.512600  -0.088210  -0.036921   0.012354   0.027907  -0.025609
     9  N   -0.017389   0.000168  -0.005413   0.000074  -0.000120  -0.000584
               7          8          9
     1  C    0.238214  -0.512600  -0.017389
     2  O   -0.064068  -0.088210   0.000168
     3  C   -0.117367  -0.036921  -0.005413
     4  H   -0.004036   0.012354   0.000074
     5  H   -0.004886   0.027907  -0.000120
     6  H    0.004732  -0.025609  -0.000584
     7  Cl  17.853282  -0.082902  -0.011684
     8  C   -0.082902   6.036381   0.624429
     9  N   -0.011684   0.624429   7.021779
 Mulliken charges:
               1
     1  C    0.457274
     2  O   -0.244811
     3  C   -0.657454
     4  H    0.281458
     5  H    0.268964
     6  H    0.271942
     7  Cl  -0.811285
     8  C    0.045172
     9  N   -0.611260
 Sum of Mulliken charges =  -1.00000
 Mulliken charges with hydrogens summed into heavy atoms:
               1
     1  C    0.457274
     2  O   -0.244811
     3  C    0.164910
     7  Cl  -0.811285
     8  C    0.045172
     9  N   -0.611260
 Electronic spatial extent (au):  <R**2>=            880.1921
 Charge=             -1.0000 electrons
 Dipole moment (field-independent basis, Debye):
    X=              1.9661    Y=              8.3227    Z=             -2.6517  Tot=              8.9534
 Quadrupole moment (field-independent basis, Debye-Ang):
   XX=            -74.1904   YY=            -52.7946   ZZ=            -46.9097
   XY=              2.6238   XZ=              0.3242   YZ=             -4.8424
 Traceless Quadrupole moment (field-independent basis, Debye-Ang):
   XX=            -16.2255   YY=              5.1703   ZZ=             11.0552
   XY=              2.6238   XZ=              0.3242   YZ=             -4.8424
 Octapole moment (field-independent basis, Debye-Ang**2):
  XXX=            -11.2837  YYY=             32.5341  ZZZ=             -3.5597  XYY=             -7.5134
  XXY=             43.0651  XXZ=              2.9199  XZZ=              0.7361  YZZ=              4.2243
  YYZ=             -4.7048  XYZ=             -1.8375
 Hexadecapole moment (field-independent basis, Debye-Ang**3):
 XXXX=           -867.2627 YYYY=           -409.4354 ZZZZ=           -185.6218 XXXY=             45.9789
 XXXZ=              6.5733 YYYX=             20.9040 YYYZ=             -9.6913 ZZZX=              0.5961
 ZZZY=             -4.0571 XXYY=           -228.8610 XXZZ=           -150.9941 YYZZ=            -99.2693
 XXYZ=             -4.5921 YYXZ=              1.3255 ZZXY=              0.5703
 N-N= 2.323866908189D+02 E-N=-2.142677568629D+03  KE= 7.023962785782D+02
 No NMR shielding tensors so no spin-rotation constants.
 Leave Link  601 at Wed Jan  8 01:46:28 2020, MaxMem=  4294967296 cpu:              16.4 elap:               1.2
 (Enter /home/cwagen/sw/g16/g16/l9999.exe)
 1\1\GINC-NODE082\FOpt\RB3LYP\6-31+G(d)\C3H3Cl1N1O1(1-)\CWAGEN\08-Jan-2
 020\0\\#p opt=modredundant b3lyp/6-31+g(d) scrf=(smd, solvent=tetrahyd
 rofuran)\\title\\-1,1\C,-0.0703004915,-0.5605715658,-0.3588079451\O,-0
 .3230814191,-0.553476282,-1.505340529\C,-0.3764077411,-1.4430989257,0.
 7937862446\H,-0.2071578658,-0.9311149904,1.7382583906\H,-1.4140354307,
 -1.7804753555,0.7149013933\H,0.3013516704,-2.3051397049,0.7143779393\C
 l,-1.5190016931,1.4927809456,0.6286171502\C,1.6528650677,0.3455696669,
 0.0990222947\N,2.6949214732,0.8403568719,0.2895302214\\Version=AS64L-G
 16RevA.03\State=1-A\HF=-706.416886\RMSD=6.349e-09\RMSF=1.008e-02\Dipol
 e=-0.1803199,-3.5179353,-0.0028361\Quadrupole=-11.8437736,5.988145,5.8
 556287,2.6734162,0.6075384,-4.2456087\PG=C01 [X(C3H3Cl1N1O1)]\\@


 DEPRESSION IS WAITING FOR YOUR SHIP TO COME IN,
 AND FINDING OUT IT'S THE TITANIC.
 Job cpu time:       0 days  1 hours 31 minutes 49.5 seconds.
 Elapsed time:       0 days  0 hours  6 minutes 45.8 seconds.
 File lengths (MBytes):  RWF=     38 Int=      0 D2E=      0 Chk=      4 Scr=      1
 Normal termination of Gaussian 16 at Wed Jan  8 01:46:29 2020.
