 Entering Gaussian System, Link 0=g16
 Input=scan_250_270.gjf
 Output=scan_250_270.out
 Initial command:
 /home/cwagen/sw/g16/g16/l1.exe "/scratch/users/cwagen/cwagen_scan_250_270/Gau-40755.inp" -scrdir="/scratch/users/cwagen/cwagen_scan_250_270/"
 Entering Link 1 = /home/cwagen/sw/g16/g16/l1.exe PID=     40756.
  
 Copyright (c) 1988,1990,1992,1993,1995,1998,2003,2009,2016,
            Gaussian, Inc.  All Rights Reserved.
  
 This is part of the Gaussian(R) 16 program.  It is based on
 the Gaussian(R) 09 system (copyright 2009, Gaussian, Inc.),
 the Gaussian(R) 03 system (copyright 2003, Gaussian, Inc.),
 the Gaussian(R) 98 system (copyright 1998, Gaussian, Inc.),
 the Gaussian(R) 94 system (copyright 1995, Gaussian, Inc.),
 the Gaussian 92(TM) system (copyright 1992, Gaussian, Inc.),
 the Gaussian 90(TM) system (copyright 1990, Gaussian, Inc.),
 the Gaussian 88(TM) system (copyright 1988, Gaussian, Inc.),
 the Gaussian 86(TM) system (copyright 1986, Carnegie Mellon
 University), and the Gaussian 82(TM) system (copyright 1983,
 Carnegie Mellon University). Gaussian is a federally registered
 trademark of Gaussian, Inc.
  
 This software contains proprietary and confidential information,
 including trade secrets, belonging to Gaussian, Inc.
  
 This software is provided under written license and may be
 used, copied, transmitted, or stored only in accord with that
 written license.
  
 The following legend is applicable only to US Government
 contracts under FAR:
  
                    RESTRICTED RIGHTS LEGEND
  
 Use, reproduction and disclosure by the US Government is
 subject to restrictions as set forth in subparagraphs (a)
 and (c) of the Commercial Computer Software - Restricted
 Rights clause in FAR 52.227-19.
  
 Gaussian, Inc.
 340 Quinnipiac St., Bldg. 40, Wallingford CT 06492
  
  
 ---------------------------------------------------------------
 Warning -- This program may not be used in any manner that
 competes with the business of Gaussian, Inc. or will provide
 assistance to any competitor of Gaussian, Inc.  The licensee
 of this program is prohibited from giving any competitor of
 Gaussian, Inc. access to this program.  By using this program,
 the user acknowledges that Gaussian, Inc. is engaged in the
 business of creating and licensing software in the field of
 computational chemistry and represents and warrants to the
 licensee that it is not a competitor of Gaussian, Inc. and that
 it will not use this program in any manner prohibited above.
 ---------------------------------------------------------------
  

 Cite this work as:
 Gaussian 16, Revision A.03,
 M. J. Frisch, G. W. Trucks, H. B. Schlegel, G. E. Scuseria, 
 M. A. Robb, J. R. Cheeseman, G. Scalmani, V. Barone, 
 G. A. Petersson, H. Nakatsuji, X. Li, M. Caricato, A. V. Marenich, 
 J. Bloino, B. G. Janesko, R. Gomperts, B. Mennucci, H. P. Hratchian, 
 J. V. Ortiz, A. F. Izmaylov, J. L. Sonnenberg, D. Williams-Young, 
 F. Ding, F. Lipparini, F. Egidi, J. Goings, B. Peng, A. Petrone, 
 T. Henderson, D. Ranasinghe, V. G. Zakrzewski, J. Gao, N. Rega, 
 G. Zheng, W. Liang, M. Hada, M. Ehara, K. Toyota, R. Fukuda, 
 J. Hasegawa, M. Ishida, T. Nakajima, Y. Honda, O. Kitao, H. Nakai, 
 T. Vreven, K. Throssell, J. A. Montgomery, Jr., J. E. Peralta, 
 F. Ogliaro, M. J. Bearpark, J. J. Heyd, E. N. Brothers, K. N. Kudin, 
 V. N. Staroverov, T. A. Keith, R. Kobayashi, J. Normand, 
 K. Raghavachari, A. P. Rendell, J. C. Burant, S. S. Iyengar, 
 J. Tomasi, M. Cossi, J. M. Millam, M. Klene, C. Adamo, R. Cammi, 
 J. W. Ochterski, R. L. Martin, K. Morokuma, O. Farkas, 
 J. B. Foresman, and D. J. Fox, Gaussian, Inc., Wallingford CT, 2016.
 
 ******************************************
 Gaussian 16:  AS64L-G16RevA.03 25-Dec-2016
                 8-Jan-2020 
 ******************************************
 %nprocshared=16
 Will use up to   16 processors via shared memory.
 %mem=32GB
 ----------------------------------------------------------------------
 #p opt=modredundant b3lyp/6-31+g(d) scrf=(smd, solvent=tetrahydrofuran
 )
 ----------------------------------------------------------------------
 1/18=120,19=15,26=3,38=1/1,3;
 2/9=110,12=2,17=6,18=5,40=1/2;
 3/5=1,6=6,7=11,11=2,25=1,30=1,70=32201,71=1,72=20,74=-5/1,2,3;
 4//1;
 5/5=2,38=5,53=20/2;
 6/7=2,8=2,9=2,10=2,28=1/1;
 7//1,2,3,16;
 1/18=20,19=15,26=3/3(2);
 2/9=110/2;
 99//99;
 2/9=110/2;
 3/5=1,6=6,7=11,11=2,25=1,30=1,70=32205,71=1,72=20,74=-5/1,2,3;
 4/5=5,16=3,69=1/1;
 5/5=2,38=5,53=20/2;
 7//1,2,3,16;
 1/18=20,19=15,26=3/3(-5);
 2/9=110/2;
 6/7=2,8=2,9=2,10=2,19=2,28=1/1;
 99/9=1/99;
 Leave Link    1 at Wed Jan  8 01:20:03 2020, MaxMem=  4294967296 cpu:               2.6 elap:               0.2
 (Enter /home/cwagen/sw/g16/g16/l101.exe)
 -----
 title
 -----
 Symbolic Z-matrix:
 Charge = -1 Multiplicity = 1
 6                    -0.19426  -0.292    -0.21291 
 8                    -0.25532  -0.66526  -1.45426 
 6                    -0.33095  -1.45422   0.81632 
 1                    -0.18039  -1.13044   1.85373 
 1                    -1.34067  -1.87301   0.71427 
 1                     0.39707  -2.23395   0.57058 
 17                   -1.69111   1.60688   0.42247 
 6                     2.30897   0.58457   0.29254 
 7                     3.44354   0.86486   0.32285 
 
 Add virtual bond connecting atoms Cl7        and C1         Dist= 4.72D+00.
 Add virtual bond connecting atoms C8         and C1         Dist= 5.10D+00.
 The following ModRedundant input section has been read:
 B       1       7 F                                                           
 B       1       8 F                                                           
 
 ITRead=  0  0  0  0  0  0  0  0  0
 MicOpt= -1 -1 -1 -1 -1 -1 -1 -1 -1
 NAtoms=      9 NQM=        9 NQMF=       0 NMMI=      0 NMMIF=      0
                NMic=       0 NMicF=      0.
                    Isotopes and Nuclear Properties:
 (Nuclear quadrupole moments (NQMom) in fm**2, nuclear magnetic moments (NMagM)
  in nuclear magnetons)

  Atom         1           2           3           4           5           6           7           8           9
 IAtWgt=          12          16          12           1           1           1          35          12          14
 AtmWgt=  12.0000000  15.9949146  12.0000000   1.0078250   1.0078250   1.0078250  34.9688527  12.0000000  14.0030740
 NucSpn=           0           0           0           1           1           1           3           0           2
 AtZEff=   0.0000000   0.0000000   0.0000000   0.0000000   0.0000000   0.0000000   0.0000000   0.0000000   0.0000000
 NQMom=    0.0000000   0.0000000   0.0000000   0.0000000   0.0000000   0.0000000  -8.1650000   0.0000000   2.0440000
 NMagM=    0.0000000   0.0000000   0.0000000   2.7928460   2.7928460   2.7928460   0.8218740   0.0000000   0.4037610
 AtZNuc=   6.0000000   8.0000000   6.0000000   1.0000000   1.0000000   1.0000000  17.0000000   6.0000000   7.0000000
 Leave Link  101 at Wed Jan  8 01:20:04 2020, MaxMem=  4294967296 cpu:              11.7 elap:               1.0
 (Enter /home/cwagen/sw/g16/g16/l103.exe)

 GradGradGradGradGradGradGradGradGradGradGradGradGradGradGradGradGradGrad
 Berny optimization.
 Initialization pass.
                           ----------------------------
                           !    Initial Parameters    !
                           ! (Angstroms and Degrees)  !
 --------------------------                            --------------------------
 ! Name  Definition              Value          Derivative Info.                !
 --------------------------------------------------------------------------------
 ! R1    R(1,2)                  1.2977         estimate D2E/DX2                !
 ! R2    R(1,3)                  1.5584         estimate D2E/DX2                !
 ! R3    R(1,7)                  2.5            Frozen                          !
 ! R4    R(1,8)                  2.7            Frozen                          !
 ! R5    R(3,4)                  1.0971         estimate D2E/DX2                !
 ! R6    R(3,5)                  1.0979         estimate D2E/DX2                !
 ! R7    R(3,6)                  1.0947         estimate D2E/DX2                !
 ! R8    R(8,9)                  1.1691         estimate D2E/DX2                !
 ! A1    A(2,1,3)              114.4006         estimate D2E/DX2                !
 ! A2    A(2,1,7)              115.6846         estimate D2E/DX2                !
 ! A3    A(2,1,8)              108.426          estimate D2E/DX2                !
 ! A4    A(3,1,7)              110.248          estimate D2E/DX2                !
 ! A5    A(3,1,8)              101.5248         estimate D2E/DX2                !
 ! A6    A(7,1,8)              105.1256         estimate D2E/DX2                !
 ! A7    A(1,3,4)              113.1005         estimate D2E/DX2                !
 ! A8    A(1,3,5)              107.683          estimate D2E/DX2                !
 ! A9    A(1,3,6)              108.9421         estimate D2E/DX2                !
 ! A10   A(4,3,5)              109.0662         estimate D2E/DX2                !
 ! A11   A(4,3,6)              109.3417         estimate D2E/DX2                !
 ! A12   A(5,3,6)              108.6067         estimate D2E/DX2                !
 ! A13   L(1,8,9,6,-1)         177.1471         estimate D2E/DX2                !
 ! A14   L(1,8,9,6,-2)         164.1512         estimate D2E/DX2                !
 ! D1    D(2,1,3,4)            174.4714         estimate D2E/DX2                !
 ! D2    D(2,1,3,5)            -64.9488         estimate D2E/DX2                !
 ! D3    D(2,1,3,6)             52.6633         estimate D2E/DX2                !
 ! D4    D(7,1,3,4)            -53.1046         estimate D2E/DX2                !
 ! D5    D(7,1,3,5)             67.4752         estimate D2E/DX2                !
 ! D6    D(7,1,3,6)           -174.9127         estimate D2E/DX2                !
 ! D7    D(8,1,3,4)             57.938          estimate D2E/DX2                !
 ! D8    D(8,1,3,5)            178.5177         estimate D2E/DX2                !
 ! D9    D(8,1,3,6)            -63.8702         estimate D2E/DX2                !
 --------------------------------------------------------------------------------
 Trust Radius=3.00D-01 FncErr=1.00D-07 GrdErr=1.00D-06 EigMax=2.50D+02 EigMin=1.00D-04
 Number of steps in this run=     41 maximum allowed number of steps=    100.
 GradGradGradGradGradGradGradGradGradGradGradGradGradGradGradGradGradGrad

 Leave Link  103 at Wed Jan  8 01:20:04 2020, MaxMem=  4294967296 cpu:               0.6 elap:               0.1
 (Enter /home/cwagen/sw/g16/g16/l202.exe)
                          Input orientation:                          
 ---------------------------------------------------------------------
 Center     Atomic      Atomic             Coordinates (Angstroms)
 Number     Number       Type             X           Y           Z
 ---------------------------------------------------------------------
      1          6           0       -0.194263   -0.291999   -0.212908
      2          8           0       -0.255321   -0.665256   -1.454255
      3          6           0       -0.330945   -1.454221    0.816316
      4          1           0       -0.180394   -1.130438    1.853734
      5          1           0       -1.340665   -1.873010    0.714272
      6          1           0        0.397068   -2.233949    0.570583
      7         17           0       -1.691111    1.606880    0.422470
      8          6           0        2.308966    0.584565    0.292543
      9          7           0        3.443537    0.864863    0.322846
 ---------------------------------------------------------------------
                    Distance matrix (angstroms):
                    1          2          3          4          5
     1  C    0.000000
     2  O    1.297687   0.000000
     3  C    1.558443   2.404928   0.000000
     4  H    2.230287   3.341377   1.097150   0.000000
     5  H    2.161827   2.709087   1.097876   1.787740   0.000000
     6  H    2.175937   2.643176   1.094698   1.788205   1.780629
     7  Cl   2.500000   3.278138   3.372759   3.438560   3.509643
     8  C    2.700000   3.344985   3.376406   3.402274   4.420106
     9  N    3.854731   4.379601   4.457396   4.411091   5.526097
                    6          7          8          9
     6  H    0.000000
     7  Cl   4.374288   0.000000
     8  C    3.417116   4.130693   0.000000
     9  N    4.352583   5.188942   1.169075   0.000000
 Stoichiometry    C3H3ClNO(1-)
 Framework group  C1[X(C3H3ClNO)]
 Deg. of freedom    21
 Full point group                 C1      NOp   1
 Largest Abelian subgroup         C1      NOp   1
 Largest concise Abelian subgroup C1      NOp   1
                         Standard orientation:                         
 ---------------------------------------------------------------------
 Center     Atomic      Atomic             Coordinates (Angstroms)
 Number     Number       Type             X           Y           Z
 ---------------------------------------------------------------------
      1          6           0       -0.171588    0.670273    0.206686
      2          8           0       -0.175585    1.283548    1.350307
      3          6           0       -0.173705    1.616751   -1.031426
      4          1           0       -0.073047    1.080562   -1.983322
      5          1           0       -1.123526    2.167353   -1.028652
      6          1           0        0.646538    2.334754   -0.931240
      7         17           0       -1.895460   -1.119175   -0.069252
      8          6           0        2.200766   -0.586765   -0.079311
      9          7           0        3.292099   -1.003806   -0.036806
 ---------------------------------------------------------------------
 Rotational constants (GHZ):           2.7383420           1.3079313           1.0637969
 Leave Link  202 at Wed Jan  8 01:20:05 2020, MaxMem=  4294967296 cpu:               1.3 elap:               0.1
 (Enter /home/cwagen/sw/g16/g16/l301.exe)
 Standard basis: 6-31+G(d) (6D, 7F)
 Ernie: Thresh=  0.10000D-02 Tol=  0.10000D-05 Strict=F.
 There are   124 symmetry adapted cartesian basis functions of A   symmetry.
 There are   124 symmetry adapted basis functions of A   symmetry.
   124 basis functions,   228 primitive gaussians,   124 cartesian basis functions
    27 alpha electrons       27 beta electrons
       nuclear repulsion energy       214.4673256073 Hartrees.
 IExCor=  402 DFT=T Ex+Corr=B3LYP ExCW=0 ScaHFX=  0.200000
 ScaDFX=  0.800000  0.720000  1.000000  0.810000 ScalE2=  1.000000  1.000000
 IRadAn=      5 IRanWt=     -1 IRanGd=            0 ICorTp=0 IEmpDi=  4
 NAtoms=    9 NActive=    9 NUniq=    9 SFac= 1.00D+00 NAtFMM=   60 NAOKFM=F Big=F
 Integral buffers will be    131072 words long.
 Raffenetti 2 integral format.
 Two-electron integral symmetry is turned on.
 ------------------------------------------------------------------------------
 Polarizable Continuum Model (PCM)
 =================================
 Model                : PCM.
 Atomic radii         : SMD-Coulomb.
 Polarization charges : Total charges.
 Charge compensation  : None.
 Solution method      : On-the-fly selection.
 Cavity type          : VdW (van der Waals Surface) (Alpha=1.000).
 Cavity algorithm     : GePol (No added spheres)
                        Default sphere list used, NSphG=    9.
                        Lebedev-Laikov grids with approx.  5.0 points / Ang**2.
                        Smoothing algorithm: York/Karplus (Gamma=1.0000).
                        Polarization charges: spherical gaussians, with
                                              point-specific exponents (IZeta= 3).
                        Self-potential: point-specific (ISelfS= 7).
                        Self-field    : sphere-specific E.n sum rule (ISelfD= 2).
 1st derivatives      : Analytical E(r).r(x)/FMM algorithm (CHGder, D1EAlg=3).
                        Cavity 1st derivative terms included.
 Solvent              : TetraHydroFuran, Eps=   7.425700 Eps(inf)=   1.974025
 ------------------------------------------------------------------------------
 Spheres list:
 ISph  on   Nord     Re0    Alpha      Xe            Ye            Ze
    1   C      1    1.8500  1.000     -0.171588      0.670273      0.206686
    2   O      2    2.2940  1.000     -0.175585      1.283548      1.350307
    3   C      3    1.8500  1.000     -0.173705      1.616751     -1.031426
    4   H      4    1.2000  1.000     -0.073047      1.080562     -1.983322
    5   H      5    1.2000  1.000     -1.123526      2.167353     -1.028652
    6   H      6    1.2000  1.000      0.646538      2.334754     -0.931240
    7  Cl      7    2.3800  1.000     -1.895460     -1.119175     -0.069252
    8   C      8    1.8500  1.000      2.200766     -0.586765     -0.079311
    9   N      9    1.8900  1.000      3.292099     -1.003806     -0.036806
 ------------------------------------------------------------------------------
 GePol: Number of generator spheres                  =       9
 GePol: Total number of spheres                      =       9
 GePol: Number of exposed spheres                    =       9 (100.00%)
 GePol: Number of points                             =    1337
 GePol: Average weight of points                     =       0.13
 GePol: Minimum weight of points                     =   0.90D-07
 GePol: Maximum weight of points                     =    0.18138
 GePol: Number of points with low weight             =      34
 GePol: Fraction of low-weight points (<1% of avg)   =       2.54%
 GePol: Cavity surface area                          =    180.150 Ang**2
 GePol: Cavity volume                                =    158.694 Ang**3
 ------------------------------------------------------------------------------
 Atomic radii for non-electrostatic terms: SMD-CDS.
 ------------------------------------------------------------------------------
 PCM non-electrostatic energy =         0.0010569430 Hartrees.
 Nuclear repulsion after PCM non-electrostatic terms =      214.4683825503 Hartrees.
 Leave Link  301 at Wed Jan  8 01:20:05 2020, MaxMem=  4294967296 cpu:               3.0 elap:               0.3
 (Enter /home/cwagen/sw/g16/g16/l302.exe)
 NPDir=0 NMtPBC=     1 NCelOv=     1 NCel=       1 NClECP=     1 NCelD=      1
         NCelK=      1 NCelE2=     1 NClLst=     1 CellRange=     0.0.
 One-electron integrals computed using PRISM.
 One-electron integral symmetry used in STVInt
 NBasis=   124 RedAO= T EigKep=  1.92D-04  NBF=   124
 NBsUse=   124 1.00D-06 EigRej= -1.00D+00 NBFU=   124
 Precomputing XC quadrature grid using
 IXCGrd= 4 IRadAn=           5 IRanWt=          -1 IRanGd=           0 AccXCQ= 0.00D+00.
 Generated NRdTot=       0 NPtTot=           0 NUsed=           0 NTot=          32
 NSgBfM=   124   124   124   124   124 MxSgAt=     9 MxSgA2=     9.
 Leave Link  302 at Wed Jan  8 01:20:07 2020, MaxMem=  4294967296 cpu:              23.1 elap:               1.7
 (Enter /home/cwagen/sw/g16/g16/l303.exe)
 DipDrv:  MaxL=1.
 Leave Link  303 at Wed Jan  8 01:20:07 2020, MaxMem=  4294967296 cpu:               3.0 elap:               0.4
 (Enter /home/cwagen/sw/g16/g16/l401.exe)
 ExpMin= 4.38D-02 ExpMax= 2.52D+04 ExpMxC= 3.78D+03 IAcc=3 IRadAn=         5 AccDes= 0.00D+00
 Harris functional with IExCor=  402 and IRadAn=       5 diagonalized for initial guess.
 HarFok:  IExCor=  402 AccDes= 0.00D+00 IRadAn=         5 IDoV= 1 UseB2=F ITyADJ=14
 ICtDFT=  3500011 ScaDFX=  1.000000  1.000000  1.000000  1.000000
 FoFCou: FMM=F IPFlag=           0 FMFlag=      100000 FMFlg1=           0
         NFxFlg=           0 DoJE=T BraDBF=F KetDBF=T FulRan=T
         wScrn=  0.000000 ICntrl=       500 IOpCl=  0 I1Cent=   200000004 NGrid=           0
         NMat0=    1 NMatS0=      1 NMatT0=    0 NMatD0=    1 NMtDS0=    0 NMtDT0=    0
 Petite list used in FoFCou.
 Harris En= -706.344348715543    
 JPrj=0 DoOrth=F DoCkMO=F.
 Leave Link  401 at Wed Jan  8 01:20:09 2020, MaxMem=  4294967296 cpu:              25.4 elap:               1.8
 (Enter /home/cwagen/sw/g16/g16/l502.exe)
 Keep R1 ints in memory in canonical form, NReq=45236517.
 FoFCou: FMM=F IPFlag=           0 FMFlag=           0 FMFlg1=           0
         NFxFlg=           0 DoJE=F BraDBF=F KetDBF=F FulRan=T
         wScrn=  0.000000 ICntrl=       600 IOpCl=  0 I1Cent=           0 NGrid=           0
         NMat0=    1 NMatS0=   7750 NMatT0=    0 NMatD0=    1 NMtDS0=    0 NMtDT0=    0
 Symmetry not used in FoFCou.
 Two-electron integral symmetry not used.
 Closed shell SCF:
 Using DIIS extrapolation, IDIIS=  1040.
 NGot=  4294967296 LenX=  4264898079 LenY=  4264882262
 Requested convergence on RMS density matrix=1.00D-08 within 128 cycles.
 Requested convergence on MAX density matrix=1.00D-06.
 Requested convergence on             energy=1.00D-06.
 No special actions if energy rises.

 Cycle   1  Pass 1  IDiag  1:
 Inv3:  Mode=1 IEnd=     5362707.
 Iteration    1 A*A^-1 deviation from unit magnitude is 4.88D-15 for   1335.
 Iteration    1 A*A^-1 deviation from orthogonality  is 1.55D-15 for   1320   1207.
 Iteration    1 A^-1*A deviation from unit magnitude is 4.66D-15 for   1323.
 Iteration    1 A^-1*A deviation from orthogonality  is 1.37D-15 for   1334   1188.
 E= -706.154657087287    
 DIIS: error= 2.62D-02 at cycle   1 NSaved=   1.
 NSaved= 1 IEnMin= 1 EnMin= -706.154657087287     IErMin= 1 ErrMin= 2.62D-02
 ErrMax= 2.62D-02  0.00D+00 EMaxC= 1.00D-01 BMatC= 1.99D-01 BMatP= 1.99D-01
 IDIUse=3 WtCom= 7.38D-01 WtEn= 2.62D-01
 Coeff-Com:  0.100D+01
 Coeff-En:   0.100D+01
 Coeff:      0.100D+01
 Gap=     0.127 Goal=   None    Shift=    0.000
 GapD=    0.127 DampG=1.000 DampE=0.500 DampFc=0.5000 IDamp=-1.
 Damping current iteration by 5.00D-01
 RMSDP=1.07D-02 MaxDP=2.04D-01              OVMax= 3.65D-01

 Cycle   2  Pass 1  IDiag  1:
 E= -706.097409171699     Delta-E=        0.057247915588 Rises=F Damp=T
 DIIS: error= 2.00D-02 at cycle   2 NSaved=   2.
 NSaved= 2 IEnMin= 1 EnMin= -706.154657087287     IErMin= 2 ErrMin= 2.00D-02
 ErrMax= 2.00D-02  0.00D+00 EMaxC= 1.00D-01 BMatC= 1.09D-01 BMatP= 1.99D-01
 IDIUse=3 WtCom= 8.00D-01 WtEn= 2.00D-01
 Coeff-Com:  0.407D+00 0.593D+00
 Coeff-En:   0.587D+00 0.413D+00
 Coeff:      0.443D+00 0.557D+00
 Gap=     0.092 Goal=   None    Shift=    0.000
 RMSDP=3.67D-03 MaxDP=8.42D-02 DE= 5.72D-02 OVMax= 2.69D-01

 Cycle   3  Pass 1  IDiag  1:
 E= -706.296999223377     Delta-E=       -0.199590051678 Rises=F Damp=F
 DIIS: error= 1.44D-02 at cycle   3 NSaved=   3.
 NSaved= 3 IEnMin= 3 EnMin= -706.296999223377     IErMin= 3 ErrMin= 1.44D-02
 ErrMax= 1.44D-02  0.00D+00 EMaxC= 1.00D-01 BMatC= 5.36D-02 BMatP= 1.09D-01
 IDIUse=3 WtCom= 8.56D-01 WtEn= 1.44D-01
 Coeff-Com:  0.180D+00 0.394D+00 0.426D+00
 Coeff-En:   0.000D+00 0.000D+00 0.100D+01
 Coeff:      0.154D+00 0.337D+00 0.509D+00
 Gap=     0.142 Goal=   None    Shift=    0.000
 RMSDP=2.50D-03 MaxDP=6.63D-02 DE=-2.00D-01 OVMax= 1.09D-01

 Cycle   4  Pass 1  IDiag  1:
 E= -706.333716123860     Delta-E=       -0.036716900483 Rises=F Damp=F
 DIIS: error= 9.60D-03 at cycle   4 NSaved=   4.
 NSaved= 4 IEnMin= 4 EnMin= -706.333716123860     IErMin= 4 ErrMin= 9.60D-03
 ErrMax= 9.60D-03  0.00D+00 EMaxC= 1.00D-01 BMatC= 1.58D-02 BMatP= 5.36D-02
 IDIUse=3 WtCom= 9.04D-01 WtEn= 9.60D-02
 Coeff-Com:  0.546D-01 0.975D-01 0.345D+00 0.503D+00
 Coeff-En:   0.000D+00 0.000D+00 0.264D+00 0.736D+00
 Coeff:      0.494D-01 0.881D-01 0.337D+00 0.526D+00
 Gap=     0.134 Goal=   None    Shift=    0.000
 RMSDP=1.19D-03 MaxDP=3.38D-02 DE=-3.67D-02 OVMax= 6.05D-02

 Cycle   5  Pass 1  IDiag  1:
 E= -706.345803589241     Delta-E=       -0.012087465380 Rises=F Damp=F
 DIIS: error= 2.77D-03 at cycle   5 NSaved=   5.
 NSaved= 5 IEnMin= 5 EnMin= -706.345803589241     IErMin= 5 ErrMin= 2.77D-03
 ErrMax= 2.77D-03  0.00D+00 EMaxC= 1.00D-01 BMatC= 1.89D-03 BMatP= 1.58D-02
 IDIUse=3 WtCom= 9.72D-01 WtEn= 2.77D-02
 Coeff-Com:  0.608D-02 0.730D-02 0.160D+00 0.364D+00 0.463D+00
 Coeff-En:   0.000D+00 0.000D+00 0.000D+00 0.132D+00 0.868D+00
 Coeff:      0.591D-02 0.709D-02 0.156D+00 0.357D+00 0.474D+00
 Gap=     0.128 Goal=   None    Shift=    0.000
 RMSDP=4.77D-04 MaxDP=1.03D-02 DE=-1.21D-02 OVMax= 3.06D-02

 Cycle   6  Pass 1  IDiag  1:
 E= -706.347623626625     Delta-E=       -0.001820037384 Rises=F Damp=F
 DIIS: error= 7.94D-04 at cycle   6 NSaved=   6.
 NSaved= 6 IEnMin= 6 EnMin= -706.347623626625     IErMin= 6 ErrMin= 7.94D-04
 ErrMax= 7.94D-04  0.00D+00 EMaxC= 1.00D-01 BMatC= 1.65D-04 BMatP= 1.89D-03
 IDIUse=3 WtCom= 9.92D-01 WtEn= 7.94D-03
 Coeff-Com:  0.121D-02-0.687D-03 0.720D-01 0.172D+00 0.300D+00 0.456D+00
 Coeff-En:   0.000D+00 0.000D+00 0.000D+00 0.000D+00 0.688D-01 0.931D+00
 Coeff:      0.120D-02-0.682D-03 0.715D-01 0.170D+00 0.298D+00 0.460D+00
 Gap=     0.130 Goal=   None    Shift=    0.000
 RMSDP=1.52D-04 MaxDP=5.37D-03 DE=-1.82D-03 OVMax= 7.24D-03

 Cycle   7  Pass 1  IDiag  1:
 E= -706.347805220082     Delta-E=       -0.000181593458 Rises=F Damp=F
 DIIS: error= 2.07D-04 at cycle   7 NSaved=   7.
 NSaved= 7 IEnMin= 7 EnMin= -706.347805220082     IErMin= 7 ErrMin= 2.07D-04
 ErrMax= 2.07D-04  0.00D+00 EMaxC= 1.00D-01 BMatC= 8.78D-06 BMatP= 1.65D-04
 IDIUse=3 WtCom= 9.98D-01 WtEn= 2.07D-03
 Coeff-Com:  0.170D-03-0.250D-02 0.134D-01 0.310D-01 0.829D-01 0.223D+00
 Coeff-Com:  0.652D+00
 Coeff-En:   0.000D+00 0.000D+00 0.000D+00 0.000D+00 0.000D+00 0.000D+00
 Coeff-En:   0.100D+01
 Coeff:      0.170D-03-0.250D-02 0.134D-01 0.309D-01 0.828D-01 0.223D+00
 Coeff:      0.653D+00
 Gap=     0.129 Goal=   None    Shift=    0.000
 RMSDP=3.91D-05 MaxDP=7.82D-04 DE=-1.82D-04 OVMax= 1.84D-03

 Cycle   8  Pass 1  IDiag  1:
 E= -706.347812514231     Delta-E=       -0.000007294149 Rises=F Damp=F
 DIIS: error= 1.07D-04 at cycle   8 NSaved=   8.
 NSaved= 8 IEnMin= 8 EnMin= -706.347812514231     IErMin= 8 ErrMin= 1.07D-04
 ErrMax= 1.07D-04  0.00D+00 EMaxC= 1.00D-01 BMatC= 1.94D-06 BMatP= 8.78D-06
 IDIUse=3 WtCom= 9.99D-01 WtEn= 1.07D-03
 Coeff-Com:  0.374D-04-0.133D-02 0.221D-02 0.399D-02 0.253D-01 0.927D-01
 Coeff-Com:  0.402D+00 0.475D+00
 Coeff-En:   0.000D+00 0.000D+00 0.000D+00 0.000D+00 0.000D+00 0.000D+00
 Coeff-En:   0.161D+00 0.839D+00
 Coeff:      0.374D-04-0.132D-02 0.221D-02 0.398D-02 0.253D-01 0.926D-01
 Coeff:      0.402D+00 0.475D+00
 Gap=     0.129 Goal=   None    Shift=    0.000
 RMSDP=1.62D-05 MaxDP=4.51D-04 DE=-7.29D-06 OVMax= 8.60D-04

 Cycle   9  Pass 1  IDiag  1:
 E= -706.347814384860     Delta-E=       -0.000001870628 Rises=F Damp=F
 DIIS: error= 2.65D-05 at cycle   9 NSaved=   9.
 NSaved= 9 IEnMin= 9 EnMin= -706.347814384860     IErMin= 9 ErrMin= 2.65D-05
 ErrMax= 2.65D-05  0.00D+00 EMaxC= 1.00D-01 BMatC= 2.68D-07 BMatP= 1.94D-06
 IDIUse=1 WtCom= 1.00D+00 WtEn= 0.00D+00
 Coeff-Com:  0.488D-04-0.445D-03-0.659D-03-0.267D-02 0.437D-02 0.272D-01
 Coeff-Com:  0.168D+00 0.315D+00 0.489D+00
 Coeff:      0.488D-04-0.445D-03-0.659D-03-0.267D-02 0.437D-02 0.272D-01
 Coeff:      0.168D+00 0.315D+00 0.489D+00
 Gap=     0.129 Goal=   None    Shift=    0.000
 RMSDP=5.85D-06 MaxDP=1.78D-04 DE=-1.87D-06 OVMax= 3.15D-04

 Cycle  10  Pass 1  IDiag  1:
 E= -706.347814707327     Delta-E=       -0.000000322468 Rises=F Damp=F
 DIIS: error= 6.90D-06 at cycle  10 NSaved=  10.
 NSaved=10 IEnMin=10 EnMin= -706.347814707327     IErMin=10 ErrMin= 6.90D-06
 ErrMax= 6.90D-06  0.00D+00 EMaxC= 1.00D-01 BMatC= 1.29D-08 BMatP= 2.68D-07
 IDIUse=1 WtCom= 1.00D+00 WtEn= 0.00D+00
 Coeff-Com: -0.225D-06-0.265D-04-0.490D-03-0.146D-02-0.459D-03-0.429D-04
 Coeff-Com:  0.138D-01 0.857D-01 0.217D+00 0.686D+00
 Coeff:     -0.225D-06-0.265D-04-0.490D-03-0.146D-02-0.459D-03-0.429D-04
 Coeff:      0.138D-01 0.857D-01 0.217D+00 0.686D+00
 Gap=     0.129 Goal=   None    Shift=    0.000
 RMSDP=1.30D-06 MaxDP=2.33D-05 DE=-3.22D-07 OVMax= 4.03D-05

 Cycle  11  Pass 1  IDiag  1:
 E= -706.347814723516     Delta-E=       -0.000000016189 Rises=F Damp=F
 DIIS: error= 1.13D-06 at cycle  11 NSaved=  11.
 NSaved=11 IEnMin=11 EnMin= -706.347814723516     IErMin=11 ErrMin= 1.13D-06
 ErrMax= 1.13D-06  0.00D+00 EMaxC= 1.00D-01 BMatC= 3.94D-10 BMatP= 1.29D-08
 IDIUse=1 WtCom= 1.00D+00 WtEn= 0.00D+00
 Coeff-Com: -0.169D-04 0.465D-04-0.645D-04-0.104D-03-0.289D-03-0.185D-02
 Coeff-Com: -0.125D-01-0.821D-02-0.361D-02 0.671D-01 0.959D+00
 Coeff:     -0.169D-04 0.465D-04-0.645D-04-0.104D-03-0.289D-03-0.185D-02
 Coeff:     -0.125D-01-0.821D-02-0.361D-02 0.671D-01 0.959D+00
 Gap=     0.129 Goal=   None    Shift=    0.000
 RMSDP=4.02D-07 MaxDP=5.94D-06 DE=-1.62D-08 OVMax= 1.67D-05

 Cycle  12  Pass 1  IDiag  1:
 E= -706.347814724204     Delta-E=       -0.000000000688 Rises=F Damp=F
 DIIS: error= 2.84D-07 at cycle  12 NSaved=  12.
 NSaved=12 IEnMin=12 EnMin= -706.347814724204     IErMin=12 ErrMin= 2.84D-07
 ErrMax= 2.84D-07  0.00D+00 EMaxC= 1.00D-01 BMatC= 1.93D-11 BMatP= 3.94D-10
 IDIUse=1 WtCom= 1.00D+00 WtEn= 0.00D+00
 Coeff-Com: -0.564D-05 0.113D-04 0.178D-05 0.233D-04-0.113D-04-0.169D-03
 Coeff-Com: -0.221D-02-0.314D-02-0.752D-02-0.211D-01 0.128D+00 0.906D+00
 Coeff:     -0.564D-05 0.113D-04 0.178D-05 0.233D-04-0.113D-04-0.169D-03
 Coeff:     -0.221D-02-0.314D-02-0.752D-02-0.211D-01 0.128D+00 0.906D+00
 Gap=     0.129 Goal=   None    Shift=    0.000
 RMSDP=7.60D-08 MaxDP=1.67D-06 DE=-6.88D-10 OVMax= 3.39D-06

 Cycle  13  Pass 1  IDiag  1:
 E= -706.347814724235     Delta-E=       -0.000000000031 Rises=F Damp=F
 DIIS: error= 6.97D-08 at cycle  13 NSaved=  13.
 NSaved=13 IEnMin=13 EnMin= -706.347814724235     IErMin=13 ErrMin= 6.97D-08
 ErrMax= 6.97D-08  0.00D+00 EMaxC= 1.00D-01 BMatC= 6.14D-13 BMatP= 1.93D-11
 IDIUse=1 WtCom= 1.00D+00 WtEn= 0.00D+00
 Coeff-Com: -0.231D-06-0.394D-06 0.317D-05 0.648D-05 0.152D-04 0.691D-04
 Coeff-Com:  0.287D-03 0.118D-03-0.112D-02-0.780D-02-0.295D-01 0.163D+00
 Coeff-Com:  0.875D+00
 Coeff:     -0.231D-06-0.394D-06 0.317D-05 0.648D-05 0.152D-04 0.691D-04
 Coeff:      0.287D-03 0.118D-03-0.112D-02-0.780D-02-0.295D-01 0.163D+00
 Coeff:      0.875D+00
 Gap=     0.129 Goal=   None    Shift=    0.000
 RMSDP=1.59D-08 MaxDP=2.01D-07 DE=-3.10D-11 OVMax= 4.95D-07

 Cycle  14  Pass 1  IDiag  1:
 E= -706.347814724235     Delta-E=        0.000000000001 Rises=F Damp=F
 DIIS: error= 2.12D-08 at cycle  14 NSaved=  14.
 NSaved=14 IEnMin=13 EnMin= -706.347814724235     IErMin=14 ErrMin= 2.12D-08
 ErrMax= 2.12D-08  0.00D+00 EMaxC= 1.00D-01 BMatC= 7.60D-14 BMatP= 6.14D-13
 IDIUse=1 WtCom= 1.00D+00 WtEn= 0.00D+00
 Coeff-Com:  0.259D-06-0.617D-06 0.108D-05 0.124D-05 0.387D-05 0.161D-04
 Coeff-Com:  0.111D-03 0.831D-04-0.558D-04-0.120D-02-0.104D-01 0.132D-01
 Coeff-Com:  0.219D+00 0.780D+00
 Coeff:      0.259D-06-0.617D-06 0.108D-05 0.124D-05 0.387D-05 0.161D-04
 Coeff:      0.111D-03 0.831D-04-0.558D-04-0.120D-02-0.104D-01 0.132D-01
 Coeff:      0.219D+00 0.780D+00
 Gap=     0.129 Goal=   None    Shift=    0.000
 RMSDP=3.34D-09 MaxDP=9.41D-08 DE= 6.82D-13 OVMax= 7.70D-08

 Error on total polarization charges =  0.02481
 SCF Done:  E(RB3LYP) =  -706.347814724     A.U. after   14 cycles
            NFock= 14  Conv=0.33D-08     -V/T= 2.0064
 KE= 7.018465329436D+02 PE=-2.105672303599D+03 EE= 4.830095733804D+02
 SMD-CDS (non-electrostatic) energy       (kcal/mol) =       0.66
 (included in total energy above)
 Leave Link  502 at Wed Jan  8 01:20:50 2020, MaxMem=  4294967296 cpu:             560.1 elap:              40.6
 (Enter /home/cwagen/sw/g16/g16/l601.exe)
 Copying SCF densities to generalized density rwf, IOpCl= 0 IROHF=0.

 **********************************************************************

            Population analysis using the SCF density.

 **********************************************************************

 Orbital symmetries:
       Occupied  (A) (A) (A) (A) (A) (A) (A) (A) (A) (A) (A) (A)
                 (A) (A) (A) (A) (A) (A) (A) (A) (A) (A) (A) (A)
                 (A) (A) (A)
       Virtual   (A) (A) (A) (A) (A) (A) (A) (A) (A) (A) (A) (A)
                 (A) (A) (A) (A) (A) (A) (A) (A) (A) (A) (A) (A)
                 (A) (A) (A) (A) (A) (A) (A) (A) (A) (A) (A) (A)
                 (A) (A) (A) (A) (A) (A) (A) (A) (A) (A) (A) (A)
                 (A) (A) (A) (A) (A) (A) (A) (A) (A) (A) (A) (A)
                 (A) (A) (A) (A) (A) (A) (A) (A) (A) (A) (A) (A)
                 (A) (A) (A) (A) (A) (A) (A) (A) (A) (A) (A) (A)
                 (A) (A) (A) (A) (A) (A) (A) (A) (A) (A) (A) (A)
                 (A)
 The electronic state is 1-A.
 Alpha  occ. eigenvalues -- -101.48901 -19.21276 -14.28101 -10.36830 -10.21604
 Alpha  occ. eigenvalues --  -10.15577  -9.40132  -7.16333  -7.15709  -7.15694
 Alpha  occ. eigenvalues --   -1.04718  -0.84149  -0.74978  -0.72997  -0.55474
 Alpha  occ. eigenvalues --   -0.44773  -0.44585  -0.44336  -0.37768  -0.37316
 Alpha  occ. eigenvalues --   -0.35992  -0.28744  -0.28709  -0.27619  -0.26743
 Alpha  occ. eigenvalues --   -0.26509  -0.25581
 Alpha virt. eigenvalues --   -0.12646  -0.04748   0.03058   0.04565   0.05069
 Alpha virt. eigenvalues --    0.05393   0.07223   0.08156   0.08608   0.09255
 Alpha virt. eigenvalues --    0.10277   0.10706   0.11139   0.11934   0.13057
 Alpha virt. eigenvalues --    0.14100   0.15020   0.16126   0.16785   0.19901
 Alpha virt. eigenvalues --    0.21727   0.22860   0.24281   0.24632   0.25368
 Alpha virt. eigenvalues --    0.25954   0.26770   0.28121   0.30506   0.32333
 Alpha virt. eigenvalues --    0.33771   0.37052   0.40138   0.54070   0.61030
 Alpha virt. eigenvalues --    0.63670   0.65287   0.66411   0.66946   0.69826
 Alpha virt. eigenvalues --    0.72459   0.74400   0.75689   0.76857   0.78402
 Alpha virt. eigenvalues --    0.80346   0.84440   0.91705   0.93365   0.93951
 Alpha virt. eigenvalues --    0.94737   0.96020   0.97273   0.99565   1.01583
 Alpha virt. eigenvalues --    1.03083   1.07785   1.13808   1.15278   1.19431
 Alpha virt. eigenvalues --    1.26032   1.27910   1.30077   1.32112   1.44283
 Alpha virt. eigenvalues --    1.48288   1.49803   1.58522   1.59092   1.59290
 Alpha virt. eigenvalues --    1.60760   1.63204   1.68590   1.74263   1.79462
 Alpha virt. eigenvalues --    1.86269   1.95058   2.01955   2.02062   2.10322
 Alpha virt. eigenvalues --    2.17924   2.22662   2.26432   2.46528   2.48190
 Alpha virt. eigenvalues --    2.52210   2.65655   2.65857   2.70244   2.92287
 Alpha virt. eigenvalues --    3.08441   3.99845   4.13669   4.19066   4.28324
 Alpha virt. eigenvalues --    4.36496   4.40222
          Condensed to atoms (all electrons):
               1          2          3          4          5          6
     1  C    5.025058   0.508709   0.039294  -0.053568  -0.012457  -0.031171
     2  O    0.508709   7.928610  -0.116335   0.007366  -0.007794  -0.006311
     3  C    0.039294  -0.116335   5.760834   0.377397   0.350813   0.375926
     4  H   -0.053568   0.007366   0.377397   0.442169  -0.023195  -0.022719
     5  H   -0.012457  -0.007794   0.350813  -0.023195   0.435310  -0.022298
     6  H   -0.031171  -0.006311   0.375926  -0.022719  -0.022298   0.429422
     7  Cl   0.024495  -0.032087   0.006394   0.004134  -0.004244   0.002212
     8  C    0.211948  -0.054784  -0.171442   0.001822   0.005261  -0.006872
     9  N   -0.004613   0.000115  -0.000260  -0.000158  -0.000031   0.000147
               7          8          9
     1  C    0.024495   0.211948  -0.004613
     2  O   -0.032087  -0.054784   0.000115
     3  C    0.006394  -0.171442  -0.000260
     4  H    0.004134   0.001822  -0.000158
     5  H   -0.004244   0.005261  -0.000031
     6  H    0.002212  -0.006872   0.000147
     7  Cl  17.517359  -0.035323  -0.001201
     8  C   -0.035323   5.574427   0.648200
     9  N   -0.001201   0.648200   6.972075
 Mulliken charges:
               1
     1  C    0.292305
     2  O   -0.227488
     3  C   -0.622620
     4  H    0.266751
     5  H    0.278635
     6  H    0.281665
     7  Cl  -0.481738
     8  C   -0.173237
     9  N   -0.614274
 Sum of Mulliken charges =  -1.00000
 Mulliken charges with hydrogens summed into heavy atoms:
               1
     1  C    0.292305
     2  O   -0.227488
     3  C    0.204431
     7  Cl  -0.481738
     8  C   -0.173237
     9  N   -0.614274
 Electronic spatial extent (au):  <R**2>=           1096.9568
 Charge=             -1.0000 electrons
 Dipole moment (field-independent basis, Debye):
    X=             -6.1245    Y=              7.4966    Z=             -2.6481  Tot=             10.0360
 Quadrupole moment (field-independent basis, Debye-Ang):
   XX=            -88.0057   YY=            -49.0139   ZZ=            -47.3535
   XY=              5.0536   XZ=              0.8862   YZ=             -5.1904
 Traceless Quadrupole moment (field-independent basis, Debye-Ang):
   XX=            -26.5480   YY=             12.4438   ZZ=             14.1042
   XY=              5.0536   XZ=              0.8862   YZ=             -5.1904
 Octapole moment (field-independent basis, Debye-Ang**2):
  XXX=           -117.6451  YYY=             27.8155  ZZZ=             -4.1640  XYY=            -13.1688
  XXY=             49.1537  XXZ=              2.3670  XZZ=             -5.6521  YZZ=              3.9957
  YYZ=             -6.5449  XYZ=              0.6183
 Hexadecapole moment (field-independent basis, Debye-Ang**3):
 XXXX=          -1443.2525 YYYY=           -404.1112 ZZZZ=           -177.8514 XXXY=            120.1373
 XXXZ=              5.7595 YYYX=             21.8545 YYYZ=            -11.3967 ZZZX=              1.8040
 ZZZY=             -5.6933 XXYY=           -277.4720 XXZZ=           -202.7973 YYZZ=            -99.9660
 XXYZ=             -2.3970 YYXZ=              2.2257 ZZXY=              4.1627
 N-N= 2.144683825503D+02 E-N=-2.105672303705D+03  KE= 7.018465329436D+02
 No NMR shielding tensors so no spin-rotation constants.
 Leave Link  601 at Wed Jan  8 01:20:51 2020, MaxMem=  4294967296 cpu:              12.8 elap:               1.1
 (Enter /home/cwagen/sw/g16/g16/l701.exe)
 ... and contract with generalized density number  0.
 Compute integral first derivatives.
 D1PCM: PCM CHGder 1st derivatives, ID1Alg=3 FixD1E=F DoIter=F DoCFld=F I1PDM=0.
 GePol: Maximum number of non-zero 1st derivatives   =     397
 Leave Link  701 at Wed Jan  8 01:20:55 2020, MaxMem=  4294967296 cpu:              57.4 elap:               4.0
 (Enter /home/cwagen/sw/g16/g16/l702.exe)
 L702 exits ... SP integral derivatives will be done elsewhere.
 Leave Link  702 at Wed Jan  8 01:20:55 2020, MaxMem=  4294967296 cpu:               1.1 elap:               0.2
 (Enter /home/cwagen/sw/g16/g16/l703.exe)
 Integral derivatives from FoFJK, PRISM(SPDF).
 Compute integral first derivatives, UseDBF=F ICtDFT=           0.
 Calling FoFJK, ICntrl=      2127 FMM=F ISym2X=0 I1Cent= 0 IOpClX= 0 NMat=1 NMatS=1 NMatT=0.
 FoFJK:  IHMeth= 1 ICntrl=    2127 DoSepK=F KAlg= 0 I1Cent=           0 FoldK=F
 IRaf=         0 NMat=       1 IRICut=       1 DoRegI=T DoRafI=F ISym2E= 0 IDoP0=0 IntGTp=1.
 FoFCou: FMM=F IPFlag=           0 FMFlag=      100000 FMFlg1=         800
         NFxFlg=           0 DoJE=F BraDBF=F KetDBF=F FulRan=T
         wScrn=  0.000000 ICntrl=      2127 IOpCl=  0 I1Cent=           0 NGrid=           0
         NMat0=    1 NMatS0=      1 NMatT0=    0 NMatD0=    1 NMtDS0=    0 NMtDT0=    0
 Symmetry not used in FoFCou.
 Leave Link  703 at Wed Jan  8 01:20:58 2020, MaxMem=  4294967296 cpu:              38.9 elap:               2.7
 (Enter /home/cwagen/sw/g16/g16/l716.exe)
 Dipole        =-2.40958164D+00 2.94939137D+00-1.04185382D+00
 ***** Axes restored to original set *****
 -------------------------------------------------------------------
 Center     Atomic                   Forces (Hartrees/Bohr)
 Number     Number              X              Y              Z
 -------------------------------------------------------------------
      1        6          -0.025412842   -0.083926666   -0.135304677
      2        8           0.012707115    0.072953156    0.139177596
      3        6           0.004527159    0.024322313    0.016775782
      4        1          -0.000308149    0.001588666   -0.004885898
      5        1           0.000199239    0.005459053   -0.003117932
      6        1           0.002191001    0.004944680   -0.004103278
      7       17           0.020780304   -0.021871207   -0.006762169
      8        6          -0.030283153   -0.007337465   -0.002578075
      9        7           0.015599325    0.003867470    0.000798651
 -------------------------------------------------------------------
 Cartesian Forces:  Max     0.139177596 RMS     0.044741610
 Leave Link  716 at Wed Jan  8 01:20:58 2020, MaxMem=  4294967296 cpu:               1.2 elap:               0.1
 (Enter /home/cwagen/sw/g16/g16/l103.exe)

 GradGradGradGradGradGradGradGradGradGradGradGradGradGradGradGradGradGrad
 Berny optimization.
 FormGI is forming the generalized inverse of G from B-inverse, IUseBI=4.
 Internal  Forces:  Max     0.154723952 RMS     0.031326110
 Search for a local minimum.
 Step number   1 out of a maximum of   41
 All quantities printed in internal units (Hartrees-Bohrs-Radians)
 RMS Force = .31757D-01 SwitMx=.10000D-02 MixMth= 1
 Mixed Optimization -- RFO/linear search
 Second derivative matrix not updated -- first step.
 ITU=  0
     Eigenvalues ---    0.00230   0.04746   0.04746   0.05330   0.05908
     Eigenvalues ---    0.07453   0.10176   0.16000   0.16000   0.16000
     Eigenvalues ---    0.25000   0.25000   0.25000   0.26946   0.33918
     Eigenvalues ---    0.33999   0.34275   0.67840   1.220341000.00000
     Eigenvalues --- 1000.000001000.000001000.000001000.000001000.00000
     Eigenvalues --- 1000.000001000.000001000.000001000.000001000.00000
     Eigenvalues --- 1000.00000
 RFO step:  Lambda=-5.15709223D-02 EMin= 2.30000000D-03
 Linear search not attempted -- first point.
 Maximum step size (   0.300) exceeded in Quadratic search.
    -- Step size scaled by   0.925
 Iteration  1 RMS(Cart)=  0.06657148 RMS(Int)=  0.00543982
 Iteration  2 RMS(Cart)=  0.00731142 RMS(Int)=  0.00108589
 Iteration  3 RMS(Cart)=  0.00004967 RMS(Int)=  0.00108501
 Iteration  4 RMS(Cart)=  0.00000010 RMS(Int)=  0.00108501
 Iteration  1 RMS(Cart)=  0.00000000 RMS(Int)=  0.00000000
 ITry= 1 IFail=0 DXMaxC= 1.62D-01 DCOld= 1.00D+10 DXMaxT= 3.00D-01 DXLimC= 3.00D+00 Rises=F
 Variable       Old X    -DE/DX   Delta X   Delta X   Delta X     New X
                                 (Linear)    (Quad)   (Total)
    R1        2.45227  -0.15472   0.00000  -0.19616  -0.19616   2.25611
    R2        2.94503  -0.02458   0.00000  -0.07086  -0.07086   2.87417
    R3        4.72432  -0.03076   0.00000   0.00000   0.00000   4.72432
    R4        5.10226  -0.01507   0.00000   0.00000   0.00000   5.10226
    R5        2.07331  -0.00418   0.00000  -0.00987  -0.00987   2.06344
    R6        2.07468  -0.00197   0.00000  -0.00467  -0.00467   2.07002
    R7        2.06868  -0.00119   0.00000  -0.00280  -0.00280   2.06588
    R8        2.20923   0.01610   0.00000   0.01171   0.01171   2.22094
    A1        1.99667   0.05551   0.00000   0.18395   0.18157   2.17824
    A2        2.01908  -0.02056   0.00000  -0.04420  -0.04761   1.97147
    A3        1.89239  -0.01418   0.00000  -0.03959  -0.03954   1.85285
    A4        1.92419  -0.01194   0.00000  -0.03508  -0.03831   1.88588
    A5        1.77194  -0.00818   0.00000  -0.03761  -0.03836   1.73358
    A6        1.83479  -0.00465   0.00000  -0.04872  -0.05091   1.78388
    A7        1.97398  -0.00150   0.00000  -0.00697  -0.00712   1.96685
    A8        1.87942  -0.00658   0.00000  -0.02849  -0.02880   1.85063
    A9        1.90140  -0.00769   0.00000  -0.03355  -0.03388   1.86752
   A10        1.90356   0.00426   0.00000   0.01842   0.01828   1.92185
   A11        1.90837   0.00493   0.00000   0.02104   0.02086   1.92923
   A12        1.89554   0.00682   0.00000   0.03068   0.03013   1.92568
   A13        3.09180  -0.00023   0.00000  -0.00217  -0.00217   3.08963
   A14        2.86498   0.00046   0.00000   0.00428   0.00428   2.86926
    D1        3.04510  -0.00224   0.00000  -0.01961  -0.02028   3.02482
    D2       -1.13357  -0.00233   0.00000  -0.02035  -0.02115  -1.15472
    D3        0.91915  -0.00203   0.00000  -0.01782  -0.01839   0.90076
    D4       -0.92685   0.00777   0.00000   0.05202   0.05202  -0.87483
    D5        1.17766   0.00768   0.00000   0.05128   0.05115   1.22882
    D6       -3.05280   0.00798   0.00000   0.05381   0.05391  -2.99889
    D7        1.01121  -0.00564   0.00000  -0.03325  -0.03255   0.97866
    D8        3.11572  -0.00573   0.00000  -0.03399  -0.03342   3.08230
    D9       -1.11475  -0.00543   0.00000  -0.03146  -0.03066  -1.14541
         Item               Value     Threshold  Converged?
 Maximum Force            0.154724     0.000450     NO 
 RMS     Force            0.031757     0.000300     NO 
 Maximum Displacement     0.161877     0.001800     NO 
 RMS     Displacement     0.065112     0.001200     NO 
 Predicted change in Energy=-2.827551D-02
 Lowest energy point so far.  Saving SCF results.
 GradGradGradGradGradGradGradGradGradGradGradGradGradGradGradGradGradGrad

 Leave Link  103 at Wed Jan  8 01:21:06 2020, MaxMem=  4294967296 cpu:              97.5 elap:               7.9
 (Enter /home/cwagen/sw/g16/g16/l202.exe)
                          Input orientation:                          
 ---------------------------------------------------------------------
 Center     Atomic      Atomic             Coordinates (Angstroms)
 Number     Number       Type             X           Y           Z
 ---------------------------------------------------------------------
      1          6           0       -0.215853   -0.373713   -0.255744
      2          8           0       -0.242983   -0.579594   -1.431427
      3          6           0       -0.322024   -1.447395    0.816268
      4          1           0       -0.158452   -1.055786    1.822344
      5          1           0       -1.333385   -1.859733    0.732362
      6          1           0        0.421220   -2.212557    0.577029
      7         17           0       -1.655663    1.551371    0.430548
      8          6           0        2.263821    0.545090    0.289252
      9          7           0        3.400191    0.839750    0.344969
 ---------------------------------------------------------------------
                    Distance matrix (angstroms):
                    1          2          3          4          5
     1  C    0.000000
     2  O    1.193882   0.000000
     3  C    1.520946   2.410697   0.000000
     4  H    2.187914   3.289518   1.091926   0.000000
     5  H    2.105585   2.740385   1.095405   1.793003   0.000000
     6  H    2.116771   2.672382   1.093216   1.795814   1.796455
     7  Cl   2.500000   3.162851   3.304538   3.313005   3.439561
     8  C    2.700000   3.241870   3.306711   3.283379   4.349644
     9  N    3.861233   4.294513   4.394092   4.294139   5.462968
                    6          7          8          9
     6  H    0.000000
     7  Cl   4.301401   0.000000
     8  C    3.329055   4.049064   0.000000
     9  N    4.271381   5.106407   1.175273   0.000000
 Stoichiometry    C3H3ClNO(1-)
 Framework group  C1[X(C3H3ClNO)]
 Deg. of freedom    21
 Full point group                 C1      NOp   1
 RotChk:  IX=0 Diff= 9.45D-03
 Largest Abelian subgroup         C1      NOp   1
 Largest concise Abelian subgroup C1      NOp   1
                         Standard orientation:                         
 ---------------------------------------------------------------------
 Center     Atomic      Atomic             Coordinates (Angstroms)
 Number     Number       Type             X           Y           Z
 ---------------------------------------------------------------------
      1          6           0       -0.191871    0.741551    0.240735
      2          8           0       -0.187920    1.172886    1.353968
      3          6           0       -0.177935    1.592300   -1.019943
      4          1           0       -0.067126    0.997054   -1.928626
      5          1           0       -1.133617    2.127441   -1.034377
      6          1           0        0.651084    2.297925   -0.920232
      7         17           0       -1.850932   -1.099922   -0.085603
      8          6           0        2.160105   -0.546405   -0.074506
      9          7           0        3.253865   -0.975930   -0.052996
 ---------------------------------------------------------------------
 Rotational constants (GHZ):           2.8535759           1.3474025           1.1072778
 Leave Link  202 at Wed Jan  8 01:21:06 2020, MaxMem=  4294967296 cpu:               1.4 elap:               0.2
 (Enter /home/cwagen/sw/g16/g16/l301.exe)
 Standard basis: 6-31+G(d) (6D, 7F)
 Ernie: Thresh=  0.10000D-02 Tol=  0.10000D-05 Strict=F.
 There are   124 symmetry adapted cartesian basis functions of A   symmetry.
 There are   124 symmetry adapted basis functions of A   symmetry.
   124 basis functions,   228 primitive gaussians,   124 cartesian basis functions
    27 alpha electrons       27 beta electrons
       nuclear repulsion energy       218.9066824585 Hartrees.
 IExCor=  402 DFT=T Ex+Corr=B3LYP ExCW=0 ScaHFX=  0.200000
 ScaDFX=  0.800000  0.720000  1.000000  0.810000 ScalE2=  1.000000  1.000000
 IRadAn=      5 IRanWt=     -1 IRanGd=            0 ICorTp=0 IEmpDi=  4
 NAtoms=    9 NActive=    9 NUniq=    9 SFac= 1.00D+00 NAtFMM=   60 NAOKFM=F Big=F
 Integral buffers will be    131072 words long.
 Raffenetti 2 integral format.
 Two-electron integral symmetry is turned on.
 ------------------------------------------------------------------------------
 Polarizable Continuum Model (PCM)
 =================================
 Model                : PCM.
 Atomic radii         : SMD-Coulomb.
 Polarization charges : Total charges.
 Charge compensation  : None.
 Solution method      : On-the-fly selection.
 Cavity type          : VdW (van der Waals Surface) (Alpha=1.000).
 Cavity algorithm     : GePol (No added spheres)
                        Default sphere list used, NSphG=    9.
                        Lebedev-Laikov grids with approx.  5.0 points / Ang**2.
                        Smoothing algorithm: York/Karplus (Gamma=1.0000).
                        Polarization charges: spherical gaussians, with
                                              point-specific exponents (IZeta= 3).
                        Self-potential: point-specific (ISelfS= 7).
                        Self-field    : sphere-specific E.n sum rule (ISelfD= 2).
 1st derivatives      : Analytical E(r).r(x)/FMM algorithm (CHGder, D1EAlg=3).
                        Cavity 1st derivative terms included.
 Solvent              : TetraHydroFuran, Eps=   7.425700 Eps(inf)=   1.974025
 ------------------------------------------------------------------------------
 Spheres list:
 ISph  on   Nord     Re0    Alpha      Xe            Ye            Ze
    1   C      1    1.8500  1.000     -0.191871      0.741551      0.240735
    2   O      2    2.2940  1.000     -0.187920      1.172886      1.353968
    3   C      3    1.8500  1.000     -0.177935      1.592300     -1.019943
    4   H      4    1.2000  1.000     -0.067126      0.997054     -1.928626
    5   H      5    1.2000  1.000     -1.133617      2.127441     -1.034377
    6   H      6    1.2000  1.000      0.651084      2.297925     -0.920232
    7  Cl      7    2.3800  1.000     -1.850932     -1.099922     -0.085603
    8   C      8    1.8500  1.000      2.160105     -0.546405     -0.074506
    9   N      9    1.8900  1.000      3.253865     -0.975930     -0.052996
 ------------------------------------------------------------------------------
 GePol: Number of generator spheres                  =       9
 GePol: Total number of spheres                      =       9
 GePol: Number of exposed spheres                    =       9 (100.00%)
 GePol: Number of points                             =    1321
 GePol: Average weight of points                     =       0.13
 GePol: Minimum weight of points                     =   0.82D-11
 GePol: Maximum weight of points                     =    0.18138
 GePol: Number of points with low weight             =      49
 GePol: Fraction of low-weight points (<1% of avg)   =       3.71%
 GePol: Cavity surface area                          =    177.391 Ang**2
 GePol: Cavity volume                                =    156.989 Ang**3
 ------------------------------------------------------------------------------
 Atomic radii for non-electrostatic terms: SMD-CDS.
 ------------------------------------------------------------------------------
 PCM non-electrostatic energy =         0.0008755690 Hartrees.
 Nuclear repulsion after PCM non-electrostatic terms =      218.9075580274 Hartrees.
 Leave Link  301 at Wed Jan  8 01:21:06 2020, MaxMem=  4294967296 cpu:               3.1 elap:               0.3
 (Enter /home/cwagen/sw/g16/g16/l302.exe)
 NPDir=0 NMtPBC=     1 NCelOv=     1 NCel=       1 NClECP=     1 NCelD=      1
         NCelK=      1 NCelE2=     1 NClLst=     1 CellRange=     0.0.
 One-electron integrals computed using PRISM.
 One-electron integral symmetry used in STVInt
 NBasis=   124 RedAO= T EigKep=  1.54D-04  NBF=   124
 NBsUse=   124 1.00D-06 EigRej= -1.00D+00 NBFU=   124
 Precomputing XC quadrature grid using
 IXCGrd= 4 IRadAn=           5 IRanWt=          -1 IRanGd=           0 AccXCQ= 0.00D+00.
 Generated NRdTot=       0 NPtTot=           0 NUsed=           0 NTot=          32
 NSgBfM=   124   124   124   124   124 MxSgAt=     9 MxSgA2=     9.
 Leave Link  302 at Wed Jan  8 01:21:08 2020, MaxMem=  4294967296 cpu:              23.1 elap:               1.7
 (Enter /home/cwagen/sw/g16/g16/l303.exe)
 DipDrv:  MaxL=1.
 Leave Link  303 at Wed Jan  8 01:21:08 2020, MaxMem=  4294967296 cpu:               3.1 elap:               0.4
 (Enter /home/cwagen/sw/g16/g16/l401.exe)
 Initial guess from the checkpoint file:  "/scratch/users/cwagen/cwagen_scan_250_270/Gau-40756.chk"
 B after Tr=     0.000000    0.000000    0.000000
         Rot=    0.999965   -0.007777    0.000871   -0.002913 Ang=  -0.96 deg.
 Guess basis will be translated and rotated to current coordinates.
 JPrj=2 DoOrth=T DoCkMO=T.
 Generating alternative initial guess.
 ExpMin= 4.38D-02 ExpMax= 2.52D+04 ExpMxC= 3.78D+03 IAcc=2 IRadAn=         4 AccDes= 0.00D+00
 Harris functional with IExCor=  402 and IRadAn=       4 diagonalized for initial guess.
 HarFok:  IExCor=  402 AccDes= 0.00D+00 IRadAn=         4 IDoV= 1 UseB2=F ITyADJ=14
 ICtDFT=  3500011 ScaDFX=  1.000000  1.000000  1.000000  1.000000
 FoFCou: FMM=F IPFlag=           0 FMFlag=      100000 FMFlg1=           0
         NFxFlg=           0 DoJE=T BraDBF=F KetDBF=T FulRan=T
         wScrn=  0.000000 ICntrl=       500 IOpCl=  0 I1Cent=   200000004 NGrid=           0
         NMat0=    1 NMatS0=      1 NMatT0=    0 NMatD0=    1 NMtDS0=    0 NMtDT0=    0
 Petite list used in FoFCou.
 Harris En= -706.373484702978    
 Leave Link  401 at Wed Jan  8 01:21:11 2020, MaxMem=  4294967296 cpu:              35.4 elap:               2.6
 (Enter /home/cwagen/sw/g16/g16/l502.exe)
 Keep R1 ints in memory in canonical form, NReq=45236517.
 FoFCou: FMM=F IPFlag=           0 FMFlag=           0 FMFlg1=           0
         NFxFlg=           0 DoJE=F BraDBF=F KetDBF=F FulRan=T
         wScrn=  0.000000 ICntrl=       600 IOpCl=  0 I1Cent=           0 NGrid=           0
         NMat0=    1 NMatS0=   7750 NMatT0=    0 NMatD0=    1 NMtDS0=    0 NMtDT0=    0
 Symmetry not used in FoFCou.
 Two-electron integral symmetry not used.
 Closed shell SCF:
 Using DIIS extrapolation, IDIIS=  1040.
 NGot=  4294967296 LenX=  4264898079 LenY=  4264882262
 Requested convergence on RMS density matrix=1.00D-08 within 128 cycles.
 Requested convergence on MAX density matrix=1.00D-06.
 Requested convergence on             energy=1.00D-06.
 No special actions if energy rises.

 Cycle   1  Pass 1  IDiag  1:
 Inv3:  Mode=1 IEnd=     5235123.
 Iteration    1 A*A^-1 deviation from unit magnitude is 3.55D-15 for   1301.
 Iteration    1 A*A^-1 deviation from orthogonality  is 1.67D-15 for    624    174.
 Iteration    1 A^-1*A deviation from unit magnitude is 3.55D-15 for   1301.
 Iteration    1 A^-1*A deviation from orthogonality  is 1.52D-15 for   1302   1156.
 E= -706.367010399396    
 DIIS: error= 8.10D-03 at cycle   1 NSaved=   1.
 NSaved= 1 IEnMin= 1 EnMin= -706.367010399396     IErMin= 1 ErrMin= 8.10D-03
 ErrMax= 8.10D-03  0.00D+00 EMaxC= 1.00D-01 BMatC= 1.10D-02 BMatP= 1.10D-02
 IDIUse=3 WtCom= 9.19D-01 WtEn= 8.10D-02
 Coeff-Com:  0.100D+01
 Coeff-En:   0.100D+01
 Coeff:      0.100D+01
 Gap=     0.597 Goal=   None    Shift=    0.000
 GapD=    0.597 DampG=2.000 DampE=1.000 DampFc=2.0000 IDamp=-1.
 RMSDP=1.96D-03 MaxDP=4.30D-02              OVMax= 4.36D-02

 Cycle   2  Pass 1  IDiag  1:
 E= -706.383426219669     Delta-E=       -0.016415820273 Rises=F Damp=F
 DIIS: error= 2.55D-03 at cycle   2 NSaved=   2.
 NSaved= 2 IEnMin= 2 EnMin= -706.383426219669     IErMin= 2 ErrMin= 2.55D-03
 ErrMax= 2.55D-03  0.00D+00 EMaxC= 1.00D-01 BMatC= 9.73D-04 BMatP= 1.10D-02
 IDIUse=3 WtCom= 9.75D-01 WtEn= 2.55D-02
 Coeff-Com:  0.116D+00 0.884D+00
 Coeff-En:   0.000D+00 0.100D+01
 Coeff:      0.113D+00 0.887D+00
 Gap=     0.156 Goal=   None    Shift=    0.000
 RMSDP=5.65D-04 MaxDP=1.70D-02 DE=-1.64D-02 OVMax= 3.26D-02

 Cycle   3  Pass 1  IDiag  1:
 E= -706.382323076558     Delta-E=        0.001103143110 Rises=F Damp=F
 DIIS: error= 4.83D-03 at cycle   3 NSaved=   3.
 NSaved= 3 IEnMin= 2 EnMin= -706.383426219669     IErMin= 2 ErrMin= 2.55D-03
 ErrMax= 4.83D-03  0.00D+00 EMaxC= 1.00D-01 BMatC= 2.26D-03 BMatP= 9.73D-04
 IDIUse=3 WtCom= 1.26D-01 WtEn= 8.74D-01
 Coeff-Com: -0.888D-02 0.615D+00 0.394D+00
 Coeff-En:   0.000D+00 0.670D+00 0.330D+00
 Coeff:     -0.112D-02 0.663D+00 0.338D+00
 Gap=     0.150 Goal=   None    Shift=    0.000
 RMSDP=3.52D-04 MaxDP=1.17D-02 DE= 1.10D-03 OVMax= 1.98D-02

 Cycle   4  Pass 1  IDiag  1:
 E= -706.384238556773     Delta-E=       -0.001915480215 Rises=F Damp=F
 DIIS: error= 5.72D-04 at cycle   4 NSaved=   4.
 NSaved= 4 IEnMin= 4 EnMin= -706.384238556773     IErMin= 4 ErrMin= 5.72D-04
 ErrMax= 5.72D-04  0.00D+00 EMaxC= 1.00D-01 BMatC= 7.81D-05 BMatP= 9.73D-04
 IDIUse=3 WtCom= 9.94D-01 WtEn= 5.72D-03
 Coeff-Com: -0.216D-01 0.262D+00 0.191D+00 0.569D+00
 Coeff-En:   0.000D+00 0.000D+00 0.000D+00 0.100D+01
 Coeff:     -0.215D-01 0.261D+00 0.190D+00 0.571D+00
 Gap=     0.148 Goal=   None    Shift=    0.000
 RMSDP=1.15D-04 MaxDP=2.23D-03 DE=-1.92D-03 OVMax= 3.35D-03

 Cycle   5  Pass 1  IDiag  1:
 E= -706.384299269261     Delta-E=       -0.000060712488 Rises=F Damp=F
 DIIS: error= 1.88D-04 at cycle   5 NSaved=   5.
 NSaved= 5 IEnMin= 5 EnMin= -706.384299269261     IErMin= 5 ErrMin= 1.88D-04
 ErrMax= 1.88D-04  0.00D+00 EMaxC= 1.00D-01 BMatC= 1.33D-05 BMatP= 7.81D-05
 IDIUse=3 WtCom= 9.98D-01 WtEn= 1.88D-03
 Coeff-Com: -0.722D-02 0.832D-01 0.770D-01 0.315D+00 0.532D+00
 Coeff-En:   0.000D+00 0.000D+00 0.000D+00 0.133D+00 0.867D+00
 Coeff:     -0.720D-02 0.831D-01 0.769D-01 0.315D+00 0.532D+00
 Gap=     0.149 Goal=   None    Shift=    0.000
 RMSDP=5.48D-05 MaxDP=1.20D-03 DE=-6.07D-05 OVMax= 3.02D-03

 Cycle   6  Pass 1  IDiag  1:
 E= -706.384315283289     Delta-E=       -0.000016014028 Rises=F Damp=F
 DIIS: error= 1.02D-04 at cycle   6 NSaved=   6.
 NSaved= 6 IEnMin= 6 EnMin= -706.384315283289     IErMin= 6 ErrMin= 1.02D-04
 ErrMax= 1.02D-04  0.00D+00 EMaxC= 1.00D-01 BMatC= 1.76D-06 BMatP= 1.33D-05
 IDIUse=3 WtCom= 9.99D-01 WtEn= 1.02D-03
 Coeff-Com: -0.226D-02 0.165D-01 0.222D-01 0.117D+00 0.318D+00 0.528D+00
 Coeff-En:   0.000D+00 0.000D+00 0.000D+00 0.000D+00 0.630D-01 0.937D+00
 Coeff:     -0.226D-02 0.165D-01 0.222D-01 0.117D+00 0.318D+00 0.529D+00
 Gap=     0.149 Goal=   None    Shift=    0.000
 RMSDP=1.71D-05 MaxDP=6.58D-04 DE=-1.60D-05 OVMax= 8.31D-04

 Cycle   7  Pass 1  IDiag  1:
 E= -706.384317388017     Delta-E=       -0.000002104727 Rises=F Damp=F
 DIIS: error= 1.45D-05 at cycle   7 NSaved=   7.
 NSaved= 7 IEnMin= 7 EnMin= -706.384317388017     IErMin= 7 ErrMin= 1.45D-05
 ErrMax= 1.45D-05  0.00D+00 EMaxC= 1.00D-01 BMatC= 7.42D-08 BMatP= 1.76D-06
 IDIUse=1 WtCom= 1.00D+00 WtEn= 0.00D+00
 Coeff-Com: -0.212D-03-0.173D-02 0.137D-02 0.211D-01 0.102D+00 0.227D+00
 Coeff-Com:  0.650D+00
 Coeff:     -0.212D-03-0.173D-02 0.137D-02 0.211D-01 0.102D+00 0.227D+00
 Coeff:      0.650D+00
 Gap=     0.149 Goal=   None    Shift=    0.000
 RMSDP=4.98D-06 MaxDP=1.26D-04 DE=-2.10D-06 OVMax= 1.71D-04

 Cycle   8  Pass 1  IDiag  1:
 E= -706.384317466936     Delta-E=       -0.000000078919 Rises=F Damp=F
 DIIS: error= 6.35D-06 at cycle   8 NSaved=   8.
 NSaved= 8 IEnMin= 8 EnMin= -706.384317466936     IErMin= 8 ErrMin= 6.35D-06
 ErrMax= 6.35D-06  0.00D+00 EMaxC= 1.00D-01 BMatC= 1.29D-08 BMatP= 7.42D-08
 IDIUse=1 WtCom= 1.00D+00 WtEn= 0.00D+00
 Coeff-Com:  0.928D-04-0.227D-02-0.188D-02-0.105D-02 0.233D-01 0.526D-01
 Coeff-Com:  0.317D+00 0.613D+00
 Coeff:      0.928D-04-0.227D-02-0.188D-02-0.105D-02 0.233D-01 0.526D-01
 Coeff:      0.317D+00 0.613D+00
 Gap=     0.149 Goal=   None    Shift=    0.000
 RMSDP=1.95D-06 MaxDP=5.08D-05 DE=-7.89D-08 OVMax= 5.57D-05

 Cycle   9  Pass 1  IDiag  1:
 E= -706.384317480586     Delta-E=       -0.000000013650 Rises=F Damp=F
 DIIS: error= 5.89D-06 at cycle   9 NSaved=   9.
 NSaved= 9 IEnMin= 9 EnMin= -706.384317480586     IErMin= 9 ErrMin= 5.89D-06
 ErrMax= 5.89D-06  0.00D+00 EMaxC= 1.00D-01 BMatC= 3.33D-09 BMatP= 1.29D-08
 IDIUse=1 WtCom= 1.00D+00 WtEn= 0.00D+00
 Coeff-Com:  0.927D-04-0.149D-02-0.163D-02-0.284D-02 0.701D-02 0.133D-01
 Coeff-Com:  0.151D+00 0.403D+00 0.432D+00
 Coeff:      0.927D-04-0.149D-02-0.163D-02-0.284D-02 0.701D-02 0.133D-01
 Coeff:      0.151D+00 0.403D+00 0.432D+00
 Gap=     0.149 Goal=   None    Shift=    0.000
 RMSDP=4.44D-07 MaxDP=1.31D-05 DE=-1.36D-08 OVMax= 2.24D-05

 Cycle  10  Pass 1  IDiag  1:
 E= -706.384317483419     Delta-E=       -0.000000002833 Rises=F Damp=F
 DIIS: error= 1.38D-06 at cycle  10 NSaved=  10.
 NSaved=10 IEnMin=10 EnMin= -706.384317483419     IErMin=10 ErrMin= 1.38D-06
 ErrMax= 1.38D-06  0.00D+00 EMaxC= 1.00D-01 BMatC= 3.96D-10 BMatP= 3.33D-09
 IDIUse=1 WtCom= 1.00D+00 WtEn= 0.00D+00
 Coeff-Com:  0.327D-04-0.278D-03-0.598D-03-0.148D-02-0.133D-02-0.686D-02
 Coeff-Com:  0.685D-02 0.942D-01 0.266D+00 0.643D+00
 Coeff:      0.327D-04-0.278D-03-0.598D-03-0.148D-02-0.133D-02-0.686D-02
 Coeff:      0.685D-02 0.942D-01 0.266D+00 0.643D+00
 Gap=     0.149 Goal=   None    Shift=    0.000
 RMSDP=1.71D-07 MaxDP=4.07D-06 DE=-2.83D-09 OVMax= 6.54D-06

 Cycle  11  Pass 1  IDiag  1:
 E= -706.384317483824     Delta-E=       -0.000000000404 Rises=F Damp=F
 DIIS: error= 2.68D-07 at cycle  11 NSaved=  11.
 NSaved=11 IEnMin=11 EnMin= -706.384317483824     IErMin=11 ErrMin= 2.68D-07
 ErrMax= 2.68D-07  0.00D+00 EMaxC= 1.00D-01 BMatC= 5.58D-12 BMatP= 3.96D-10
 IDIUse=1 WtCom= 1.00D+00 WtEn= 0.00D+00
 Coeff-Com:  0.501D-05 0.413D-06-0.855D-04-0.303D-03-0.707D-03-0.262D-02
 Coeff-Com: -0.687D-02 0.855D-02 0.510D-01 0.196D+00 0.755D+00
 Coeff:      0.501D-05 0.413D-06-0.855D-04-0.303D-03-0.707D-03-0.262D-02
 Coeff:     -0.687D-02 0.855D-02 0.510D-01 0.196D+00 0.755D+00
 Gap=     0.149 Goal=   None    Shift=    0.000
 RMSDP=5.00D-08 MaxDP=1.32D-06 DE=-4.04D-10 OVMax= 1.47D-06

 Cycle  12  Pass 1  IDiag  1:
 E= -706.384317483831     Delta-E=       -0.000000000008 Rises=F Damp=F
 DIIS: error= 5.70D-08 at cycle  12 NSaved=  12.
 NSaved=12 IEnMin=12 EnMin= -706.384317483831     IErMin=12 ErrMin= 5.70D-08
 ErrMax= 5.70D-08  0.00D+00 EMaxC= 1.00D-01 BMatC= 6.30D-13 BMatP= 5.58D-12
 IDIUse=1 WtCom= 1.00D+00 WtEn= 0.00D+00
 Coeff-Com:  0.908D-07 0.137D-04 0.750D-05-0.325D-04-0.177D-03-0.435D-03
 Coeff-Com: -0.286D-02-0.118D-02 0.529D-03 0.309D-01 0.255D+00 0.718D+00
 Coeff:      0.908D-07 0.137D-04 0.750D-05-0.325D-04-0.177D-03-0.435D-03
 Coeff:     -0.286D-02-0.118D-02 0.529D-03 0.309D-01 0.255D+00 0.718D+00
 Gap=     0.149 Goal=   None    Shift=    0.000
 RMSDP=1.12D-08 MaxDP=2.86D-07 DE=-7.50D-12 OVMax= 3.13D-07

 Cycle  13  Pass 1  IDiag  1:
 E= -706.384317483833     Delta-E=       -0.000000000002 Rises=F Damp=F
 DIIS: error= 1.82D-08 at cycle  13 NSaved=  13.
 NSaved=13 IEnMin=13 EnMin= -706.384317483833     IErMin=13 ErrMin= 1.82D-08
 ErrMax= 1.82D-08  0.00D+00 EMaxC= 1.00D-01 BMatC= 6.99D-14 BMatP= 6.30D-13
 IDIUse=1 WtCom= 1.00D+00 WtEn= 0.00D+00
 Coeff-Com: -0.423D-06 0.540D-05 0.113D-04 0.105D-04-0.155D-04 0.630D-04
 Coeff-Com: -0.620D-03-0.897D-03-0.468D-02-0.480D-02 0.423D-01 0.323D+00
 Coeff-Com:  0.645D+00
 Coeff:     -0.423D-06 0.540D-05 0.113D-04 0.105D-04-0.155D-04 0.630D-04
 Coeff:     -0.620D-03-0.897D-03-0.468D-02-0.480D-02 0.423D-01 0.323D+00
 Coeff:      0.645D+00
 Gap=     0.149 Goal=   None    Shift=    0.000
 RMSDP=3.76D-09 MaxDP=8.34D-08 DE=-2.05D-12 OVMax= 1.26D-07

 Error on total polarization charges =  0.02564
 SCF Done:  E(RB3LYP) =  -706.384317484     A.U. after   13 cycles
            NFock= 13  Conv=0.38D-08     -V/T= 2.0060
 KE= 7.021782460571D+02 PE=-2.114772552886D+03 EE= 4.873024313174D+02
 SMD-CDS (non-electrostatic) energy       (kcal/mol) =       0.55
 (included in total energy above)
 Leave Link  502 at Wed Jan  8 01:21:47 2020, MaxMem=  4294967296 cpu:             506.5 elap:              36.6
 (Enter /home/cwagen/sw/g16/g16/l701.exe)
 ... and contract with generalized density number  0.
 Compute integral first derivatives.
 D1PCM: PCM CHGder 1st derivatives, ID1Alg=3 FixD1E=F DoIter=F DoCFld=F I1PDM=0.
 GePol: Maximum number of non-zero 1st derivatives   =     397
 Leave Link  701 at Wed Jan  8 01:21:52 2020, MaxMem=  4294967296 cpu:              56.1 elap:               4.4
 (Enter /home/cwagen/sw/g16/g16/l702.exe)
 L702 exits ... SP integral derivatives will be done elsewhere.
 Leave Link  702 at Wed Jan  8 01:21:52 2020, MaxMem=  4294967296 cpu:               1.0 elap:               0.1
 (Enter /home/cwagen/sw/g16/g16/l703.exe)
 Integral derivatives from FoFJK, PRISM(SPDF).
 Compute integral first derivatives, UseDBF=F ICtDFT=           0.
 Calling FoFJK, ICntrl=      2127 FMM=F ISym2X=0 I1Cent= 0 IOpClX= 0 NMat=1 NMatS=1 NMatT=0.
 FoFJK:  IHMeth= 1 ICntrl=    2127 DoSepK=F KAlg= 0 I1Cent=           0 FoldK=F
 IRaf=         0 NMat=       1 IRICut=       1 DoRegI=T DoRafI=F ISym2E= 0 IDoP0=0 IntGTp=1.
 FoFCou: FMM=F IPFlag=           0 FMFlag=      100000 FMFlg1=         800
         NFxFlg=           0 DoJE=F BraDBF=F KetDBF=F FulRan=T
         wScrn=  0.000000 ICntrl=      2127 IOpCl=  0 I1Cent=           0 NGrid=           0
         NMat0=    1 NMatS0=      1 NMatT0=    0 NMatD0=    1 NMtDS0=    0 NMtDT0=    0
 Symmetry not used in FoFCou.
 Leave Link  703 at Wed Jan  8 01:21:55 2020, MaxMem=  4294967296 cpu:              36.8 elap:               2.6
 (Enter /home/cwagen/sw/g16/g16/l716.exe)
 Dipole        =-2.42267693D+00 3.40350709D+00-8.41075777D-01
 ***** Axes restored to original set *****
 -------------------------------------------------------------------
 Center     Atomic                   Forces (Hartrees/Bohr)
 Number     Number              X              Y              Z
 -------------------------------------------------------------------
      1        6          -0.017090184   -0.034164701   -0.049300500
      2        8           0.006506251    0.032038809    0.049477897
      3        6           0.004335421    0.020874072    0.010964526
      4        1          -0.000298041    0.000008400   -0.002242222
      5        1          -0.000585069    0.001570846   -0.001004029
      6        1           0.001192798    0.001121839   -0.001585300
      7       17           0.015221918   -0.018115762   -0.005061381
      8        6          -0.013224136   -0.004515024   -0.001686707
      9        7           0.003941043    0.001181522    0.000437715
 -------------------------------------------------------------------
 Cartesian Forces:  Max     0.049477897 RMS     0.018049648
 Leave Link  716 at Wed Jan  8 01:21:55 2020, MaxMem=  4294967296 cpu:               1.0 elap:               0.1
 (Enter /home/cwagen/sw/g16/g16/l103.exe)

 GradGradGradGradGradGradGradGradGradGradGradGradGradGradGradGradGradGrad
 Berny optimization.
 Using GEDIIS/GDIIS optimizer.
 FormGI is forming the generalized inverse of G from B-inverse, IUseBI=4.
 Internal  Forces:  Max     0.054389441 RMS     0.014015626
 Search for a local minimum.
 Step number   2 out of a maximum of   41
 All quantities printed in internal units (Hartrees-Bohrs-Radians)
 RMS Force = .13659D-01 SwitMx=.10000D-02 MixMth= 1
 Mixed Optimization -- RFO/linear search
 Update second derivatives using D2CorX and points    1    2
 DE= -3.65D-02 DEPred=-2.83D-02 R= 1.29D+00
 TightC=F SS=  1.41D+00  RLast= 3.20D-01 DXNew= 5.0454D-01 9.5983D-01
 Trust test= 1.29D+00 RLast= 3.20D-01 DXMaxT set to 5.05D-01
 ITU=  1  0
 Use linear search instead of GDIIS.
     Eigenvalues ---    0.00230   0.04746   0.04747   0.05519   0.05635
     Eigenvalues ---    0.06196   0.09813   0.15946   0.16000   0.16005
     Eigenvalues ---    0.17942   0.25000   0.25168   0.26950   0.33925
     Eigenvalues ---    0.33993   0.34280   0.64342   1.220831000.00000
     Eigenvalues --- 1000.000001000.000001000.000001000.000001000.00000
     Eigenvalues --- 1000.000001000.000001000.000001000.000001000.00000
     Eigenvalues --- 1000.00000
 RFO step:  Lambda=-2.66885599D-03 EMin= 2.30000098D-03
 Quartic linear search produced a step of  0.54644.
 Iteration  1 RMS(Cart)=  0.06923719 RMS(Int)=  0.00420373
 Iteration  2 RMS(Cart)=  0.00471464 RMS(Int)=  0.00127391
 Iteration  3 RMS(Cart)=  0.00001864 RMS(Int)=  0.00127383
 Iteration  4 RMS(Cart)=  0.00000006 RMS(Int)=  0.00127383
 Iteration  1 RMS(Cart)=  0.00000000 RMS(Int)=  0.00000000
 ITry= 1 IFail=0 DXMaxC= 1.69D-01 DCOld= 1.00D+10 DXMaxT= 5.05D-01 DXLimC= 3.00D+00 Rises=F
 Variable       Old X    -DE/DX   Delta X   Delta X   Delta X     New X
                                 (Linear)    (Quad)   (Total)
    R1        2.25611  -0.05439  -0.10719   0.01007  -0.09712   2.15899
    R2        2.87417  -0.01266  -0.03872  -0.00623  -0.04495   2.82922
    R3        4.72432  -0.02412   0.00000   0.00000   0.00000   4.72432
    R4        5.10226  -0.00989   0.00000   0.00000   0.00000   5.10226
    R5        2.06344  -0.00210  -0.00539  -0.00116  -0.00655   2.05689
    R6        2.07002   0.00003  -0.00255   0.00408   0.00153   2.07154
    R7        2.06588   0.00034  -0.00153   0.00388   0.00235   2.06823
    R8        2.22094   0.00413   0.00640  -0.00190   0.00450   2.22544
    A1        2.17824   0.03989   0.09922   0.07898   0.17672   2.35496
    A2        1.97147  -0.01304  -0.02602  -0.02046  -0.04918   1.92228
    A3        1.85285  -0.00926  -0.02161  -0.01807  -0.03841   1.81444
    A4        1.88588  -0.01374  -0.02093  -0.04417  -0.06818   1.81770
    A5        1.73358  -0.00942  -0.02096  -0.02838  -0.04954   1.68404
    A6        1.78388  -0.00097  -0.02782   0.02589  -0.00614   1.77774
    A7        1.96685  -0.00034  -0.00389   0.00579   0.00181   1.96866
    A8        1.85063  -0.00222  -0.01574   0.01359  -0.00233   1.84830
    A9        1.86752  -0.00270  -0.01851   0.01564  -0.00306   1.86446
   A10        1.92185   0.00126   0.00999  -0.01004  -0.00013   1.92172
   A11        1.92923   0.00157   0.01140  -0.00917   0.00212   1.93135
   A12        1.92568   0.00225   0.01646  -0.01477   0.00138   1.92705
   A13        3.08963   0.00019  -0.00119   0.01189   0.01071   3.10034
   A14        2.86926   0.00042   0.00234   0.00114   0.00348   2.87274
    D1        3.02482  -0.00203  -0.01108  -0.00580  -0.01759   3.00724
    D2       -1.15472  -0.00213  -0.01155  -0.00589  -0.01823  -1.17294
    D3        0.90076  -0.00195  -0.01005  -0.00858  -0.01927   0.88149
    D4       -0.87483   0.00518   0.02843  -0.00534   0.02219  -0.85264
    D5        1.22882   0.00508   0.02795  -0.00543   0.02155   1.25037
    D6       -2.99889   0.00526   0.02946  -0.00811   0.02051  -2.97838
    D7        0.97866  -0.00316  -0.01779   0.00003  -0.01615   0.96251
    D8        3.08230  -0.00326  -0.01826  -0.00006  -0.01678   3.06552
    D9       -1.14541  -0.00308  -0.01676  -0.00275  -0.01782  -1.16323
         Item               Value     Threshold  Converged?
 Maximum Force            0.054389     0.000450     NO 
 RMS     Force            0.013659     0.000300     NO 
 Maximum Displacement     0.168982     0.001800     NO 
 RMS     Displacement     0.067944     0.001200     NO 
 Predicted change in Energy=-1.089171D-02
 Lowest energy point so far.  Saving SCF results.
 GradGradGradGradGradGradGradGradGradGradGradGradGradGradGradGradGradGrad

 Leave Link  103 at Wed Jan  8 01:21:59 2020, MaxMem=  4294967296 cpu:              57.1 elap:               4.2
 (Enter /home/cwagen/sw/g16/g16/l202.exe)
                          Input orientation:                          
 ---------------------------------------------------------------------
 Center     Atomic      Atomic             Coordinates (Angstroms)
 Number     Number       Type             X           Y           Z
 ---------------------------------------------------------------------
      1          6           0       -0.227058   -0.425628   -0.304564
      2          8           0       -0.230620   -0.490173   -1.445223
      3          6           0       -0.309511   -1.420674    0.811039
      4          1           0       -0.139757   -0.973225    1.788644
      5          1           0       -1.319028   -1.845000    0.760982
      6          1           0        0.439278   -2.191564    0.603952
      7         17           0       -1.675200    1.465362    0.455070
      8          6           0        2.241586    0.493355    0.288113
      9          7           0        3.377181    0.794983    0.367588
 ---------------------------------------------------------------------
                    Distance matrix (angstroms):
                    1          2          3          4          5
     1  C    0.000000
     2  O    1.142489   0.000000
     3  C    1.497159   2.441879   0.000000
     4  H    2.165411   3.271008   1.088457   0.000000
     5  H    2.083843   2.808474   1.096213   1.790743   0.000000
     6  H    2.094740   2.746382   1.094459   1.795307   1.799000
     7  Cl   2.500000   3.085780   3.212635   3.175329   3.343491
     8  C    2.700000   3.175466   3.231881   3.173838   4.285963
     9  N    3.864222   4.237232   4.324058   4.185069   5.401725
                    6          7          8          9
     6  H    0.000000
     7  Cl   4.226853   0.000000
     8  C    3.249133   4.039045   0.000000
     9  N    4.196022   5.097412   1.177654   0.000000
 Stoichiometry    C3H3ClNO(1-)
 Framework group  C1[X(C3H3ClNO)]
 Deg. of freedom    21
 Full point group                 C1      NOp   1
 RotChk:  IX=0 Diff= 3.22D-02
 Largest Abelian subgroup         C1      NOp   1
 Largest concise Abelian subgroup C1      NOp   1
                         Standard orientation:                         
 ---------------------------------------------------------------------
 Center     Atomic      Atomic             Coordinates (Angstroms)
 Number     Number       Type             X           Y           Z
 ---------------------------------------------------------------------
      1          6           0       -0.192860    0.782221    0.269547
      2          8           0       -0.180599    1.091117    1.369417
      3          6           0       -0.170373    1.516203   -1.035156
      4          1           0       -0.059675    0.852382   -1.890625
      5          1           0       -1.124929    2.051871   -1.094872
      6          1           0        0.662436    2.224606   -0.985813
      7         17           0       -1.851489   -1.053342   -0.090533
      8          6           0        2.151323   -0.513966   -0.069135
      9          7           0        3.244819   -0.951103   -0.062357
 ---------------------------------------------------------------------
 Rotational constants (GHZ):           3.0091536           1.3473254           1.1365500
 Leave Link  202 at Wed Jan  8 01:21:59 2020, MaxMem=  4294967296 cpu:               1.8 elap:               0.2
 (Enter /home/cwagen/sw/g16/g16/l301.exe)
 Standard basis: 6-31+G(d) (6D, 7F)
 Ernie: Thresh=  0.10000D-02 Tol=  0.10000D-05 Strict=F.
 There are   124 symmetry adapted cartesian basis functions of A   symmetry.
 There are   124 symmetry adapted basis functions of A   symmetry.
   124 basis functions,   228 primitive gaussians,   124 cartesian basis functions
    27 alpha electrons       27 beta electrons
       nuclear repulsion energy       221.7691280610 Hartrees.
 IExCor=  402 DFT=T Ex+Corr=B3LYP ExCW=0 ScaHFX=  0.200000
 ScaDFX=  0.800000  0.720000  1.000000  0.810000 ScalE2=  1.000000  1.000000
 IRadAn=      5 IRanWt=     -1 IRanGd=            0 ICorTp=0 IEmpDi=  4
 NAtoms=    9 NActive=    9 NUniq=    9 SFac= 1.00D+00 NAtFMM=   60 NAOKFM=F Big=F
 Integral buffers will be    131072 words long.
 Raffenetti 2 integral format.
 Two-electron integral symmetry is turned on.
 ------------------------------------------------------------------------------
 Polarizable Continuum Model (PCM)
 =================================
 Model                : PCM.
 Atomic radii         : SMD-Coulomb.
 Polarization charges : Total charges.
 Charge compensation  : None.
 Solution method      : On-the-fly selection.
 Cavity type          : VdW (van der Waals Surface) (Alpha=1.000).
 Cavity algorithm     : GePol (No added spheres)
                        Default sphere list used, NSphG=    9.
                        Lebedev-Laikov grids with approx.  5.0 points / Ang**2.
                        Smoothing algorithm: York/Karplus (Gamma=1.0000).
                        Polarization charges: spherical gaussians, with
                                              point-specific exponents (IZeta= 3).
                        Self-potential: point-specific (ISelfS= 7).
                        Self-field    : sphere-specific E.n sum rule (ISelfD= 2).
 1st derivatives      : Analytical E(r).r(x)/FMM algorithm (CHGder, D1EAlg=3).
                        Cavity 1st derivative terms included.
 Solvent              : TetraHydroFuran, Eps=   7.425700 Eps(inf)=   1.974025
 ------------------------------------------------------------------------------
 Spheres list:
 ISph  on   Nord     Re0    Alpha      Xe            Ye            Ze
    1   C      1    1.8500  1.000     -0.192860      0.782221      0.269547
    2   O      2    2.2940  1.000     -0.180599      1.091117      1.369417
    3   C      3    1.8500  1.000     -0.170373      1.516203     -1.035156
    4   H      4    1.2000  1.000     -0.059675      0.852382     -1.890625
    5   H      5    1.2000  1.000     -1.124929      2.051871     -1.094872
    6   H      6    1.2000  1.000      0.662436      2.224606     -0.985813
    7  Cl      7    2.3800  1.000     -1.851489     -1.053342     -0.090533
    8   C      8    1.8500  1.000      2.151323     -0.513966     -0.069135
    9   N      9    1.8900  1.000      3.244819     -0.951103     -0.062357
 ------------------------------------------------------------------------------
 GePol: Number of generator spheres                  =       9
 GePol: Total number of spheres                      =       9
 GePol: Number of exposed spheres                    =       9 (100.00%)
 GePol: Number of points                             =    1308
 GePol: Average weight of points                     =       0.13
 GePol: Minimum weight of points                     =   0.24D-09
 GePol: Maximum weight of points                     =    0.18138
 GePol: Number of points with low weight             =      47
 GePol: Fraction of low-weight points (<1% of avg)   =       3.59%
 GePol: Cavity surface area                          =    175.529 Ang**2
 GePol: Cavity volume                                =    155.911 Ang**3
 ------------------------------------------------------------------------------
 Atomic radii for non-electrostatic terms: SMD-CDS.
[...]
 Mixed Optimization -- En-DIIS/RFO-DIIS
 Swapping is turned off.
 Update second derivatives using D2CorX and points    3    4    5    6    7
                                                      8    9   10   11   12
                                                     13   14
 DE= -8.97D-07 DEPred=-6.19D-08 R= 1.45D+01
 Trust test= 1.45D+01 RLast= 4.03D-03 DXMaxT set to 1.79D-01
 ITU=  0 -1  1 -1  1  1  1  1  1  1  1  1  1  0
     Eigenvalues ---    0.00266   0.00849   0.01956   0.03241   0.05578
     Eigenvalues ---    0.05967   0.06256   0.10180   0.14261   0.16150
     Eigenvalues ---    0.16709   0.20856   0.24742   0.28939   0.33999
     Eigenvalues ---    0.34130   0.34405   1.13389   1.224961000.00000
     Eigenvalues --- 1000.000001000.000001000.000001000.000001000.00000
     Eigenvalues --- 1000.000001000.000001000.000001000.000001000.00000
     Eigenvalues --- 1000.00000
 En-DIIS/RFO-DIIS/Sim-DIIS IScMMF=       -3 using points:    14   13   12   11   10    9    8    7    6    5
 RFO step:  Lambda=-2.44063846D-07.
 NNeg= 0 NGDIIS=10 SimSw=  2.50D-03 Rises=F DC= -8.97D-07 SmlDif=  1.00D-05
 NRisDI= 0 DoIntr=F SqrtH=F CThrHd= 10.0 CDAdj=  3.0
 RMS Error=  0.4719626870D-03 NUsed=10 OKEnD=F EnDIS=F
 InvSVX:  RCond= 7.95D-10 Info=           0 Equed=N FErr=  1.31D-10 BErr=  3.51D-17
 DIIS inversion failure, remove point  10.
 InvSVX:  RCond= 8.88D-10 Info=           0 Equed=N FErr=  1.20D-10 BErr=  7.36D-17
 DIIS inversion failure, remove point   9.
 InvSVX:  RCond= 2.20D-09 Info=           0 Equed=N FErr=  7.68D-12 BErr=  7.76D-17
 DIIS inversion failure, remove point   8.
 InvSVX:  RCond= 2.81D-09 Info=           0 Equed=N FErr=  4.83D-12 BErr=  9.22D-17
 DIIS inversion failure, remove point   7.
 InvSVX:  RCond= 9.36D-09 Info=           0 Equed=N FErr=  1.29D-12 BErr=  7.21D-17
 DIIS inversion failure, remove point   6.
 InvSVX:  RCond= 1.14D-08 Info=           0 Equed=N FErr=  1.07D-12 BErr=  9.68D-17
 DIIS inversion failure, remove point   5.
 InvSVX:  RCond= 1.42D-08 Info=           0 Equed=N FErr=  9.19D-13 BErr=  6.71D-17
 DIIS inversion failure, remove point   4.
 InvSVX:  RCond= 9.21D-07 Info=           0 Equed=N FErr=  6.76D-15 BErr=  6.94D-17
 RFO-DIIS uses    3 points instead of   10
 DidBck=F Rises=F RFO-DIIS coefs:    1.54256   -0.12856   -0.41400    0.00000    0.00000
                  RFO-DIIS coefs:    0.00000    0.00000    0.00000    0.00000    0.00000
 Iteration  1 RMS(Cart)=  0.00053017 RMS(Int)=  0.00000067
 Iteration  2 RMS(Cart)=  0.00000071 RMS(Int)=  0.00000003
 Iteration  1 RMS(Cart)=  0.00000000 RMS(Int)=  0.00000000
 ITry= 1 IFail=0 DXMaxC= 1.67D-03 DCOld= 1.00D+10 DXMaxT= 1.79D-01 DXLimC= 3.00D+00 Rises=F
 Variable       Old X    -DE/DX   Delta X   Delta X   Delta X     New X
                                 (Linear)    (Quad)   (Total)
    R1        2.17514   0.00001   0.00001   0.00000   0.00002   2.17516
    R2        2.77133   0.00002   0.00007   0.00003   0.00011   2.77143
    R3        4.72432  -0.01329   0.00000   0.00000   0.00000   4.72432
    R4        5.10226  -0.00131   0.00000   0.00000   0.00000   5.10226
    R5        2.05358   0.00000   0.00002  -0.00001   0.00000   2.05359
    R6        2.07373   0.00000  -0.00001   0.00002   0.00001   2.07373
    R7        2.07174   0.00000  -0.00002   0.00001  -0.00002   2.07172
    R8        2.22705   0.00000  -0.00001   0.00000   0.00000   2.22705
    A1        2.57123   0.00001  -0.00020   0.00017  -0.00003   2.57120
    A2        1.89431   0.00001   0.00006  -0.00006   0.00000   1.89431
    A3        1.73719  -0.00001   0.00017  -0.00004   0.00013   1.73732
    A4        1.73363  -0.00002   0.00020  -0.00020   0.00000   1.73363
    A5        1.58364   0.00001  -0.00038   0.00020  -0.00018   1.58346
    A6        1.78235   0.00000   0.00017   0.00001   0.00018   1.78253
    A7        1.93756   0.00001  -0.00011   0.00016   0.00004   1.93760
    A8        1.86055  -0.00001   0.00013  -0.00014  -0.00001   1.86054
    A9        1.86895   0.00000  -0.00005   0.00004   0.00000   1.86895
   A10        1.92305   0.00000  -0.00005   0.00002  -0.00003   1.92302
   A11        1.93855  -0.00001   0.00005  -0.00007  -0.00002   1.93853
   A12        1.93310   0.00000   0.00004  -0.00002   0.00002   1.93311
   A13        3.08810   0.00001   0.00150  -0.00001   0.00149   3.08959
   A14        2.93397   0.00002   0.00149   0.00026   0.00175   2.93572
    D1        2.82942   0.00000  -0.00034   0.00019  -0.00015   2.82927
    D2       -1.35914   0.00000  -0.00039   0.00022  -0.00016  -1.35931
    D3        0.71064   0.00000  -0.00030   0.00015  -0.00015   0.71049
    D4       -0.86170   0.00000  -0.00004  -0.00019  -0.00024  -0.86194
    D5        1.23293   0.00000  -0.00009  -0.00016  -0.00025   1.23267
    D6       -2.98047   0.00000  -0.00001  -0.00023  -0.00024  -2.98071
    D7        0.92571   0.00000   0.00008  -0.00016  -0.00008   0.92563
    D8        3.02033   0.00000   0.00003  -0.00012  -0.00010   3.02024
    D9       -1.19307   0.00000   0.00011  -0.00020  -0.00008  -1.19315
         Item               Value     Threshold  Converged?
 Maximum Force            0.000022     0.000450     YES
 RMS     Force            0.000009     0.000300     YES
 Maximum Displacement     0.001666     0.001800     YES
 RMS     Displacement     0.000530     0.001200     YES
 Predicted change in Energy=-3.253277D-08
 Optimization completed.
    -- Stationary point found.
                           ----------------------------
                           !   Optimized Parameters   !
                           ! (Angstroms and Degrees)  !
 --------------------------                            --------------------------
 ! Name  Definition              Value          Derivative Info.                !
 --------------------------------------------------------------------------------
 ! R1    R(1,2)                  1.151          -DE/DX =    0.0                 !
 ! R2    R(1,3)                  1.4665         -DE/DX =    0.0                 !
 ! R3    R(1,7)                  2.5            -DE/DX =   -0.0133              !
 ! R4    R(1,8)                  2.7            -DE/DX =   -0.0013              !
 ! R5    R(3,4)                  1.0867         -DE/DX =    0.0                 !
 ! R6    R(3,5)                  1.0974         -DE/DX =    0.0                 !
 ! R7    R(3,6)                  1.0963         -DE/DX =    0.0                 !
 ! R8    R(8,9)                  1.1785         -DE/DX =    0.0                 !
 ! A1    A(2,1,3)              147.3206         -DE/DX =    0.0                 !
 ! A2    A(2,1,7)              108.5362         -DE/DX =    0.0                 !
 ! A3    A(2,1,8)               99.5337         -DE/DX =    0.0                 !
 ! A4    A(3,1,7)               99.3295         -DE/DX =    0.0                 !
 ! A5    A(3,1,8)               90.7357         -DE/DX =    0.0                 !
 ! A6    A(7,1,8)              102.1211         -DE/DX =    0.0                 !
 ! A7    A(1,3,4)              111.014          -DE/DX =    0.0                 !
 ! A8    A(1,3,5)              106.6016         -DE/DX =    0.0                 !
 ! A9    A(1,3,6)              107.0828         -DE/DX =    0.0                 !
 ! A10   A(4,3,5)              110.1826         -DE/DX =    0.0                 !
 ! A11   A(4,3,6)              111.0707         -DE/DX =    0.0                 !
 ! A12   A(5,3,6)              110.7583         -DE/DX =    0.0                 !
 ! A13   L(1,8,9,6,-1)         176.9351         -DE/DX =    0.0                 !
 ! A14   L(1,8,9,6,-2)         168.1042         -DE/DX =    0.0                 !
 ! D1    D(2,1,3,4)            162.1136         -DE/DX =    0.0                 !
 ! D2    D(2,1,3,5)            -77.8731         -DE/DX =    0.0                 !
 ! D3    D(2,1,3,6)             40.7168         -DE/DX =    0.0                 !
 ! D4    D(7,1,3,4)            -49.3718         -DE/DX =    0.0                 !
 ! D5    D(7,1,3,5)             70.6415         -DE/DX =    0.0                 !
 ! D6    D(7,1,3,6)           -170.7686         -DE/DX =    0.0                 !
 ! D7    D(8,1,3,4)             53.0391         -DE/DX =    0.0                 !
 ! D8    D(8,1,3,5)            173.0524         -DE/DX =    0.0                 !
 ! D9    D(8,1,3,6)            -68.3577         -DE/DX =    0.0                 !
 --------------------------------------------------------------------------------
 Lowest energy point so far.  Saving SCF results.
 Largest change from initial coordinates is atom    4       0.092 Angstoms.
 GradGradGradGradGradGradGradGradGradGradGradGradGradGradGradGradGradGrad

 Leave Link  103 at Wed Jan  8 01:32:09 2020, MaxMem=  4294967296 cpu:              53.3 elap:               4.2
 (Enter /home/cwagen/sw/g16/g16/l202.exe)
                          Input orientation:                          
 ---------------------------------------------------------------------
 Center     Atomic      Atomic             Coordinates (Angstroms)
 Number     Number       Type             X           Y           Z
 ---------------------------------------------------------------------
      1          6           0       -0.268594   -0.484582   -0.369090
      2          8           0       -0.206030   -0.389518   -1.514484
      3          6           0       -0.278283   -1.373824    0.797035
      4          1           0       -0.057817   -0.824091    1.708147
      5          1           0       -1.284317   -1.808756    0.851317
      6          1           0        0.472155   -2.152007    0.614865
      7         17           0       -1.739160    1.340479    0.500730
      8          6           0        2.192953    0.408637    0.288898
      9          7           0        3.325965    0.691097    0.448183
 ---------------------------------------------------------------------
                    Distance matrix (angstroms):
                    1          2          3          4          5
     1  C    0.000000
     2  O    1.151034   0.000000
     3  C    1.466524   2.513404   0.000000
     4  H    2.115326   3.255176   1.086709   0.000000
     5  H    2.067492   2.962087   1.097368   1.791096   0.000000
     6  H    2.072964   2.846125   1.096317   1.799860   1.805249
     7  Cl   2.500000   3.066671   3.096675   2.995018   3.201167
     8  C    2.700000   3.105536   3.089074   2.932550   4.162277
     9  N    3.869239   4.182676   4.168477   3.915774   5.259894
                    6          7          8          9
     6  H    0.000000
     7  Cl   4.135262   0.000000
     8  C    3.102305   4.046568   0.000000
     9  N    4.031780   5.106853   1.178504   0.000000
 Stoichiometry    C3H3ClNO(1-)
 Framework group  C1[X(C3H3ClNO)]
 Deg. of freedom    21
 Full point group                 C1      NOp   1
 RotChk:  IX=0 Diff= 7.02D-16
 Largest Abelian subgroup         C1      NOp   1
 Largest concise Abelian subgroup C1      NOp   1
                         Standard orientation:                         
 ---------------------------------------------------------------------
 Center     Atomic      Atomic             Coordinates (Angstroms)
 Number     Number       Type             X           Y           Z
 ---------------------------------------------------------------------
      1          6           0       -0.197909    0.843124    0.253937
      2          8           0       -0.140404    1.100730    1.374300
      3          6           0       -0.104929    1.321928   -1.129100
      4          1           0        0.040202    0.494846   -1.818890
      5          1           0       -1.049822    1.835538   -1.347276
      6          1           0        0.737051    2.022782   -1.171347
      7         17           0       -1.888163   -0.972220   -0.058420
      8          6           0        2.130215   -0.497224   -0.016809
      9          7           0        3.218615   -0.948319   -0.044560
 ---------------------------------------------------------------------
 Rotational constants (GHZ):           3.2031155           1.3338224           1.1687580
 Leave Link  202 at Wed Jan  8 01:32:10 2020, MaxMem=  4294967296 cpu:               2.0 elap:               0.2
 (Enter /home/cwagen/sw/g16/g16/l601.exe)
 Copying SCF densities to generalized density rwf, IOpCl= 0 IROHF=0.

 **********************************************************************

            Population analysis using the SCF density.

 **********************************************************************

 Orbital symmetries:
       Occupied  (A) (A) (A) (A) (A) (A) (A) (A) (A) (A) (A) (A)
                 (A) (A) (A) (A) (A) (A) (A) (A) (A) (A) (A) (A)
                 (A) (A) (A)
       Virtual   (A) (A) (A) (A) (A) (A) (A) (A) (A) (A) (A) (A)
                 (A) (A) (A) (A) (A) (A) (A) (A) (A) (A) (A) (A)
                 (A) (A) (A) (A) (A) (A) (A) (A) (A) (A) (A) (A)
                 (A) (A) (A) (A) (A) (A) (A) (A) (A) (A) (A) (A)
                 (A) (A) (A) (A) (A) (A) (A) (A) (A) (A) (A) (A)
                 (A) (A) (A) (A) (A) (A) (A) (A) (A) (A) (A) (A)
                 (A) (A) (A) (A) (A) (A) (A) (A) (A) (A) (A) (A)
                 (A) (A) (A) (A) (A) (A) (A) (A) (A) (A) (A) (A)
                 (A)
 The electronic state is 1-A.
 Alpha  occ. eigenvalues -- -101.45813 -19.24679 -14.26887 -10.37315 -10.22279
 Alpha  occ. eigenvalues --  -10.13562  -9.37178  -7.13197  -7.12835  -7.12818
 Alpha  occ. eigenvalues --   -1.15244  -0.82514  -0.78984  -0.71042  -0.56590
 Alpha  occ. eigenvalues --   -0.49677  -0.49141  -0.48618  -0.41497  -0.41196
 Alpha  occ. eigenvalues --   -0.35917  -0.27444  -0.27408  -0.25975  -0.25001
 Alpha  occ. eigenvalues --   -0.24642  -0.24154
 Alpha virt. eigenvalues --   -0.06290  -0.03233   0.02571   0.04775   0.05160
 Alpha virt. eigenvalues --    0.05355   0.07685   0.08004   0.08762   0.09696
 Alpha virt. eigenvalues --    0.09956   0.11052   0.11294   0.12620   0.13311
 Alpha virt. eigenvalues --    0.13729   0.14082   0.16327   0.17210   0.19386
 Alpha virt. eigenvalues --    0.21873   0.22590   0.24411   0.24830   0.25743
 Alpha virt. eigenvalues --    0.26161   0.27639   0.28122   0.31864   0.33181
 Alpha virt. eigenvalues --    0.36240   0.39820   0.48521   0.53415   0.62658
 Alpha virt. eigenvalues --    0.63515   0.65135   0.67389   0.69245   0.70558
 Alpha virt. eigenvalues --    0.72871   0.75316   0.77030   0.79478   0.79949
 Alpha virt. eigenvalues --    0.83117   0.86861   0.93820   0.95512   0.95842
 Alpha virt. eigenvalues --    0.96594   0.97825   0.99693   1.00380   1.02882
 Alpha virt. eigenvalues --    1.03528   1.05703   1.14735   1.19609   1.22612
 Alpha virt. eigenvalues --    1.24451   1.27032   1.27924   1.37420   1.41193
 Alpha virt. eigenvalues --    1.47408   1.51592   1.56345   1.60658   1.60887
 Alpha virt. eigenvalues --    1.62010   1.63181   1.69057   1.79669   1.81218
 Alpha virt. eigenvalues --    1.82611   1.99477   2.02739   2.02806   2.08226
 Alpha virt. eigenvalues --    2.23433   2.24141   2.35328   2.51151   2.63102
 Alpha virt. eigenvalues --    2.66070   2.66229   2.69953   2.93120   3.08758
 Alpha virt. eigenvalues --    3.19036   4.01458   4.19078   4.28265   4.30448
 Alpha virt. eigenvalues --    4.39588   4.49993
          Condensed to atoms (all electrons):
               1          2          3          4          5          6
     1  C    5.233462   0.495732  -0.228160  -0.064177  -0.022896  -0.063108
     2  O    0.495732   7.787972  -0.018804   0.005326  -0.002898   0.000282
     3  C   -0.228160  -0.018804   5.957280   0.403491   0.341568   0.383272
     4  H   -0.064177   0.005326   0.403491   0.388506  -0.019177  -0.018426
     5  H   -0.022896  -0.002898   0.341568  -0.019177   0.424533  -0.020964
     6  H   -0.063108   0.000282   0.383272  -0.018426  -0.020964   0.428407
     7  Cl  -0.010682  -0.041244   0.026581  -0.002314  -0.007497   0.006849
     8  C    0.268053  -0.079268  -0.253172  -0.010608   0.011984  -0.009366
     9  N   -0.013706   0.001124   0.004860  -0.000087  -0.000065  -0.000368
               7          8          9
     1  C   -0.010682   0.268053  -0.013706
     2  O   -0.041244  -0.079268   0.001124
     3  C    0.026581  -0.253172   0.004860
     4  H   -0.002314  -0.010608  -0.000087
     5  H   -0.007497   0.011984  -0.000065
     6  H    0.006849  -0.009366  -0.000368
     7  Cl  17.724395  -0.059056  -0.001364
     8  C   -0.059056   5.738836   0.646305
     9  N   -0.001364   0.646305   7.020567
 Mulliken charges:
               1
     1  C    0.405482
     2  O   -0.148224
     3  C   -0.616917
     4  H    0.317465
     5  H    0.295412
     6  H    0.293422
     7  Cl  -0.635668
     8  C   -0.253707
     9  N   -0.657266
 Sum of Mulliken charges =  -1.00000
 Mulliken charges with hydrogens summed into heavy atoms:
               1
     1  C    0.405482
     2  O   -0.148224
     3  C    0.289382
     7  Cl  -0.635668
     8  C   -0.253707
     9  N   -0.657266
 Electronic spatial extent (au):  <R**2>=           1024.8914
 Charge=             -1.0000 electrons
 Dipole moment (field-independent basis, Debye):
    X=             -5.8331    Y=              9.2293    Z=             -2.4838  Tot=             11.1971
 Quadrupole moment (field-independent basis, Debye-Ang):
   XX=            -93.0380   YY=            -48.2981   ZZ=            -45.1786
   XY=              3.8948   XZ=              0.5037   YZ=             -4.0196
 Traceless Quadrupole moment (field-independent basis, Debye-Ang):
   XX=            -30.8664   YY=             13.8735   ZZ=             16.9929
   XY=              3.8948   XZ=              0.5037   YZ=             -4.0196
 Octapole moment (field-independent basis, Debye-Ang**2):
  XXX=           -112.3480  YYY=             30.3232  ZZZ=             -3.1051  XYY=            -11.7842
  XXY=             52.3796  XXZ=              2.6778  XZZ=             -5.9230  YZZ=              7.0198
  YYZ=             -4.2607  XYZ=              0.2838
 Hexadecapole moment (field-independent basis, Debye-Ang**3):
 XXXX=          -1458.1689 YYYY=           -328.8764 ZZZZ=           -180.8705 XXXY=            106.2599
 XXXZ=              5.7539 YYYX=             17.8477 YYYZ=             -7.0797 ZZZX=              0.6727
 ZZZY=             -3.2859 XXYY=           -264.7462 XXZZ=           -202.6400 YYZZ=            -84.4171
 XXYZ=             -3.6819 YYXZ=              1.1394 ZZXY=              2.5655
 N-N= 2.235511135984D+02 E-N=-2.124189629784D+03  KE= 7.024171359722D+02
 No NMR shielding tensors so no spin-rotation constants.
 Leave Link  601 at Wed Jan  8 01:32:11 2020, MaxMem=  4294967296 cpu:              12.9 elap:               1.1
 (Enter /home/cwagen/sw/g16/g16/l9999.exe)
 1\1\GINC-NODE069\FOpt\RB3LYP\6-31+G(d)\C3H3Cl1N1O1(1-)\CWAGEN\08-Jan-2
 020\0\\#p opt=modredundant b3lyp/6-31+g(d) scrf=(smd, solvent=tetrahyd
 rofuran)\\title\\-1,1\C,-0.2685937832,-0.4845823377,-0.3690898072\O,-0
 .2060295103,-0.3895184837,-1.5144844949\C,-0.278283,-1.3738238808,0.79
 7034922\H,-0.0578171133,-0.8240905765,1.708147003\H,-1.2843172995,-1.8
 087557405,0.8513172478\H,0.4721548689,-2.1520065885,0.6148647526\Cl,-1
 .7391599404,1.3404789219,0.5007300568\C,2.1929529092,0.4086366994,0.28
 88977543\N,3.3259648086,0.6910970064,0.4481831156\\Version=AS64L-G16Re
 vA.03\State=1-A\HF=-706.3987676\RMSD=4.211e-09\RMSF=3.598e-03\Dipole=-
 2.742581,-3.4426431,-0.1811256\Quadrupole=-23.0758911,12.4103538,10.66
 55373,1.7486955,-1.4153469,-2.9290837\PG=C01 [X(C3H3Cl1N1O1)]\\@


 NATURE GIVES TO EVERY TIME AND SEASON SOME BEAUTY OF ITS OWN.

                                                    --DICKENS
 Job cpu time:       0 days  2 hours 38 minutes 10.7 seconds.
 Elapsed time:       0 days  0 hours 12 minutes  5.7 seconds.
 File lengths (MBytes):  RWF=     41 Int=      0 D2E=      0 Chk=      3 Scr=      1
 Normal termination of Gaussian 16 at Wed Jan  8 01:32:11 2020.
