 Entering Gaussian System, Link 0=g16
 Input=scan_260_290.gjf
 Output=scan_260_290.out
 Initial command:
 /home/cwagen/sw/g16/g16/l1.exe "/scratch/users/cwagen/cwagen_scan_260_290/Gau-49886.inp" -scrdir="/scratch/users/cwagen/cwagen_scan_260_290/"
 Entering Link 1 = /home/cwagen/sw/g16/g16/l1.exe PID=     49887.
  
 Copyright (c) 1988,1990,1992,1993,1995,1998,2003,2009,2016,
            Gaussian, Inc.  All Rights Reserved.
  
 This is part of the Gaussian(R) 16 program.  It is based on
 the Gaussian(R) 09 system (copyright 2009, Gaussian, Inc.),
 the Gaussian(R) 03 system (copyright 2003, Gaussian, Inc.),
 the Gaussian(R) 98 system (copyright 1998, Gaussian, Inc.),
 the Gaussian(R) 94 system (copyright 1995, Gaussian, Inc.),
 the Gaussian 92(TM) system (copyright 1992, Gaussian, Inc.),
 the Gaussian 90(TM) system (copyright 1990, Gaussian, Inc.),
 the Gaussian 88(TM) system (copyright 1988, Gaussian, Inc.),
 the Gaussian 86(TM) system (copyright 1986, Carnegie Mellon
 University), and the Gaussian 82(TM) system (copyright 1983,
 Carnegie Mellon University). Gaussian is a federally registered
 trademark of Gaussian, Inc.
  
 This software contains proprietary and confidential information,
 including trade secrets, belonging to Gaussian, Inc.
  
 This software is provided under written license and may be
 used, copied, transmitted, or stored only in accord with that
 written license.
  
 The following legend is applicable only to US Government
 contracts under FAR:
  
                    RESTRICTED RIGHTS LEGEND
  
 Use, reproduction and disclosure by the US Government is
 subject to restrictions as set forth in subparagraphs (a)
 and (c) of the Commercial Computer Software - Restricted
 Rights clause in FAR 52.227-19.
  
 Gaussian, Inc.
 340 Quinnipiac St., Bldg. 40, Wallingford CT 06492
  
  
 ---------------------------------------------------------------
 Warning -- This program may not be used in any manner that
 competes with the business of Gaussian, Inc. or will provide
 assistance to any competitor of Gaussian, Inc.  The licensee
 of this program is prohibited from giving any competitor of
 Gaussian, Inc. access to this program.  By using this program,
 the user acknowledges that Gaussian, Inc. is engaged in the
 business of creating and licensing software in the field of
 computational chemistry and represents and warrants to the
 licensee that it is not a competitor of Gaussian, Inc. and that
 it will not use this program in any manner prohibited above.
 ---------------------------------------------------------------
  

 Cite this work as:
 Gaussian 16, Revision A.03,
 M. J. Frisch, G. W. Trucks, H. B. Schlegel, G. E. Scuseria, 
 M. A. Robb, J. R. Cheeseman, G. Scalmani, V. Barone, 
 G. A. Petersson, H. Nakatsuji, X. Li, M. Caricato, A. V. Marenich, 
 J. Bloino, B. G. Janesko, R. Gomperts, B. Mennucci, H. P. Hratchian, 
 J. V. Ortiz, A. F. Izmaylov, J. L. Sonnenberg, D. Williams-Young, 
 F. Ding, F. Lipparini, F. Egidi, J. Goings, B. Peng, A. Petrone, 
 T. Henderson, D. Ranasinghe, V. G. Zakrzewski, J. Gao, N. Rega, 
 G. Zheng, W. Liang, M. Hada, M. Ehara, K. Toyota, R. Fukuda, 
 J. Hasegawa, M. Ishida, T. Nakajima, Y. Honda, O. Kitao, H. Nakai, 
 T. Vreven, K. Throssell, J. A. Montgomery, Jr., J. E. Peralta, 
 F. Ogliaro, M. J. Bearpark, J. J. Heyd, E. N. Brothers, K. N. Kudin, 
 V. N. Staroverov, T. A. Keith, R. Kobayashi, J. Normand, 
 K. Raghavachari, A. P. Rendell, J. C. Burant, S. S. Iyengar, 
 J. Tomasi, M. Cossi, J. M. Millam, M. Klene, C. Adamo, R. Cammi, 
 J. W. Ochterski, R. L. Martin, K. Morokuma, O. Farkas, 
 J. B. Foresman, and D. J. Fox, Gaussian, Inc., Wallingford CT, 2016.
 
 ******************************************
 Gaussian 16:  AS64L-G16RevA.03 25-Dec-2016
                 8-Jan-2020 
 ******************************************
 %nprocshared=16
 Will use up to   16 processors via shared memory.
 %mem=32GB
 ----------------------------------------------------------------------
 #p opt=modredundant b3lyp/6-31+g(d) scrf=(smd, solvent=tetrahydrofuran
 )
 ----------------------------------------------------------------------
 1/18=120,19=15,26=3,38=1/1,3;
 2/9=110,12=2,17=6,18=5,40=1/2;
 3/5=1,6=6,7=11,11=2,25=1,30=1,70=32201,71=1,72=20,74=-5/1,2,3;
 4//1;
 5/5=2,38=5,53=20/2;
 6/7=2,8=2,9=2,10=2,28=1/1;
 7//1,2,3,16;
 1/18=20,19=15,26=3/3(2);
 2/9=110/2;
 99//99;
 2/9=110/2;
 3/5=1,6=6,7=11,11=2,25=1,30=1,70=32205,71=1,72=20,74=-5/1,2,3;
 4/5=5,16=3,69=1/1;
 5/5=2,38=5,53=20/2;
 7//1,2,3,16;
 1/18=20,19=15,26=3/3(-5);
 2/9=110/2;
 6/7=2,8=2,9=2,10=2,19=2,28=1/1;
 99/9=1/99;
 Leave Link    1 at Wed Jan  8 01:32:13 2020, MaxMem=  4294967296 cpu:               2.7 elap:               0.2
 (Enter /home/cwagen/sw/g16/g16/l101.exe)
 -----
 title
 -----
 Symbolic Z-matrix:
 Charge = -1 Multiplicity = 1
 6                    -0.19426  -0.292    -0.21291 
 8                    -0.25532  -0.66526  -1.45426 
 6                    -0.33095  -1.45422   0.81632 
 1                    -0.18039  -1.13044   1.85373 
 1                    -1.34067  -1.87301   0.71427 
 1                     0.39707  -2.23395   0.57058 
 17                   -1.75098   1.68284   0.44789 
 6                     2.49439   0.6495    0.32998 
 7                     3.62896   0.92979   0.36029 
 
 Add virtual bond connecting atoms Cl7        and C1         Dist= 4.91D+00.
 Add virtual bond connecting atoms C8         and C1         Dist= 5.48D+00.
 The following ModRedundant input section has been read:
 B       1       7 F                                                           
 B       1       8 F                                                           
 
 ITRead=  0  0  0  0  0  0  0  0  0
 MicOpt= -1 -1 -1 -1 -1 -1 -1 -1 -1
 NAtoms=      9 NQM=        9 NQMF=       0 NMMI=      0 NMMIF=      0
                NMic=       0 NMicF=      0.
                    Isotopes and Nuclear Properties:
 (Nuclear quadrupole moments (NQMom) in fm**2, nuclear magnetic moments (NMagM)
  in nuclear magnetons)

  Atom         1           2           3           4           5           6           7           8           9
 IAtWgt=          12          16          12           1           1           1          35          12          14
 AtmWgt=  12.0000000  15.9949146  12.0000000   1.0078250   1.0078250   1.0078250  34.9688527  12.0000000  14.0030740
 NucSpn=           0           0           0           1           1           1           3           0           2
 AtZEff=   0.0000000   0.0000000   0.0000000   0.0000000   0.0000000   0.0000000   0.0000000   0.0000000   0.0000000
 NQMom=    0.0000000   0.0000000   0.0000000   0.0000000   0.0000000   0.0000000  -8.1650000   0.0000000   2.0440000
 NMagM=    0.0000000   0.0000000   0.0000000   2.7928460   2.7928460   2.7928460   0.8218740   0.0000000   0.4037610
 AtZNuc=   6.0000000   8.0000000   6.0000000   1.0000000   1.0000000   1.0000000  17.0000000   6.0000000   7.0000000
 Leave Link  101 at Wed Jan  8 01:32:14 2020, MaxMem=  4294967296 cpu:              13.5 elap:               1.0
 (Enter /home/cwagen/sw/g16/g16/l103.exe)

 GradGradGradGradGradGradGradGradGradGradGradGradGradGradGradGradGradGrad
 Berny optimization.
 Initialization pass.
                           ----------------------------
                           !    Initial Parameters    !
                           ! (Angstroms and Degrees)  !
 --------------------------                            --------------------------
 ! Name  Definition              Value          Derivative Info.                !
 --------------------------------------------------------------------------------
 ! R1    R(1,2)                  1.2977         estimate D2E/DX2                !
 ! R2    R(1,3)                  1.5584         estimate D2E/DX2                !
 ! R3    R(1,7)                  2.6            Frozen                          !
 ! R4    R(1,8)                  2.9            Frozen                          !
 ! R5    R(3,4)                  1.0971         estimate D2E/DX2                !
 ! R6    R(3,5)                  1.0979         estimate D2E/DX2                !
 ! R7    R(3,6)                  1.0947         estimate D2E/DX2                !
 ! R8    R(8,9)                  1.1691         estimate D2E/DX2                !
 ! A1    A(2,1,3)              114.4006         estimate D2E/DX2                !
 ! A2    A(2,1,7)              115.6846         estimate D2E/DX2                !
 ! A3    A(2,1,8)              108.426          estimate D2E/DX2                !
 ! A4    A(3,1,7)              110.248          estimate D2E/DX2                !
 ! A5    A(3,1,8)              101.5248         estimate D2E/DX2                !
 ! A6    A(7,1,8)              105.1256         estimate D2E/DX2                !
 ! A7    A(1,3,4)              113.1005         estimate D2E/DX2                !
 ! A8    A(1,3,5)              107.683          estimate D2E/DX2                !
 ! A9    A(1,3,6)              108.9421         estimate D2E/DX2                !
 ! A10   A(4,3,5)              109.0662         estimate D2E/DX2                !
 ! A11   A(4,3,6)              109.3417         estimate D2E/DX2                !
 ! A12   A(5,3,6)              108.6067         estimate D2E/DX2                !
 ! A13   L(1,8,9,6,-1)         177.0663         estimate D2E/DX2                !
 ! A14   L(1,8,9,6,-2)         163.5063         estimate D2E/DX2                !
 ! D1    D(2,1,3,4)            174.4714         estimate D2E/DX2                !
 ! D2    D(2,1,3,5)            -64.9488         estimate D2E/DX2                !
 ! D3    D(2,1,3,6)             52.6633         estimate D2E/DX2                !
 ! D4    D(7,1,3,4)            -53.1046         estimate D2E/DX2                !
 ! D5    D(7,1,3,5)             67.4752         estimate D2E/DX2                !
 ! D6    D(7,1,3,6)           -174.9127         estimate D2E/DX2                !
 ! D7    D(8,1,3,4)             57.938          estimate D2E/DX2                !
 ! D8    D(8,1,3,5)            178.5177         estimate D2E/DX2                !
 ! D9    D(8,1,3,6)            -63.8702         estimate D2E/DX2                !
 --------------------------------------------------------------------------------
 Trust Radius=3.00D-01 FncErr=1.00D-07 GrdErr=1.00D-06 EigMax=2.50D+02 EigMin=1.00D-04
 Number of steps in this run=     41 maximum allowed number of steps=    100.
 GradGradGradGradGradGradGradGradGradGradGradGradGradGradGradGradGradGrad

 Leave Link  103 at Wed Jan  8 01:32:14 2020, MaxMem=  4294967296 cpu:               0.9 elap:               0.2
 (Enter /home/cwagen/sw/g16/g16/l202.exe)
                          Input orientation:                          
 ---------------------------------------------------------------------
 Center     Atomic      Atomic             Coordinates (Angstroms)
 Number     Number       Type             X           Y           Z
 ---------------------------------------------------------------------
      1          6           0       -0.194263   -0.291999   -0.212908
      2          8           0       -0.255321   -0.665256   -1.454255
      3          6           0       -0.330945   -1.454221    0.816316
      4          1           0       -0.180394   -1.130438    1.853734
      5          1           0       -1.340665   -1.873010    0.714272
      6          1           0        0.397068   -2.233949    0.570583
      7         17           0       -1.750985    1.682835    0.447885
      8          6           0        2.494390    0.649496    0.329984
      9          7           0        3.628961    0.929794    0.360287
 ---------------------------------------------------------------------
                    Distance matrix (angstroms):
                    1          2          3          4          5
     1  C    0.000000
     2  O    1.297687   0.000000
     3  C    1.558443   2.404928   0.000000
     4  H    2.230287   3.341377   1.097150   0.000000
     5  H    2.161827   2.709087   1.097876   1.787740   0.000000
     6  H    2.175937   2.643176   1.094698   1.788205   1.780629
     7  Cl   2.600000   3.371747   3.463145   3.515348   3.589340
     8  C    2.900000   3.531712   3.555933   3.555904   4.606339
     9  N    4.054426   4.574319   4.644604   4.581062   5.716485
                    6          7          8          9
     6  H    0.000000
     7  Cl   4.468824   0.000000
     8  C    3.573640   4.370915   0.000000
     9  N    4.527541   5.433099   1.169075   0.000000
 Stoichiometry    C3H3ClNO(1-)
 Framework group  C1[X(C3H3ClNO)]
 Deg. of freedom    21
 Full point group                 C1      NOp   1
 Largest Abelian subgroup         C1      NOp   1
 Largest concise Abelian subgroup C1      NOp   1
                         Standard orientation:                         
 ---------------------------------------------------------------------
 Center     Atomic      Atomic             Coordinates (Angstroms)
 Number     Number       Type             X           Y           Z
 ---------------------------------------------------------------------
      1          6           0       -0.204436    0.715440    0.206399
      2          8           0       -0.221607    1.341963    1.342694
      3          6           0       -0.217514    1.647165   -1.042785
      4          1           0       -0.105501    1.101483   -1.987995
      5          1           0       -1.175847    2.182784   -1.049292
      6          1           0        0.591066    2.379082   -0.948664
      7         17           0       -1.966991   -1.176741   -0.063878
      8          6           0        2.365427   -0.598060   -0.077362
      9          7           0        3.463020   -0.997390   -0.026740
 ---------------------------------------------------------------------
 Rotational constants (GHZ):           2.6069274           1.1976076           0.9720478
 Leave Link  202 at Wed Jan  8 01:32:15 2020, MaxMem=  4294967296 cpu:               2.1 elap:               0.2
 (Enter /home/cwagen/sw/g16/g16/l301.exe)
 Standard basis: 6-31+G(d) (6D, 7F)
 Ernie: Thresh=  0.10000D-02 Tol=  0.10000D-05 Strict=F.
 There are   124 symmetry adapted cartesian basis functions of A   symmetry.
 There are   124 symmetry adapted basis functions of A   symmetry.
   124 basis functions,   228 primitive gaussians,   124 cartesian basis functions
    27 alpha electrons       27 beta electrons
       nuclear repulsion energy       209.0462876503 Hartrees.
 IExCor=  402 DFT=T Ex+Corr=B3LYP ExCW=0 ScaHFX=  0.200000
 ScaDFX=  0.800000  0.720000  1.000000  0.810000 ScalE2=  1.000000  1.000000
 IRadAn=      5 IRanWt=     -1 IRanGd=            0 ICorTp=0 IEmpDi=  4
 NAtoms=    9 NActive=    9 NUniq=    9 SFac= 1.00D+00 NAtFMM=   60 NAOKFM=F Big=F
 Integral buffers will be    131072 words long.
 Raffenetti 2 integral format.
 Two-electron integral symmetry is turned on.
 ------------------------------------------------------------------------------
 Polarizable Continuum Model (PCM)
 =================================
 Model                : PCM.
 Atomic radii         : SMD-Coulomb.
 Polarization charges : Total charges.
 Charge compensation  : None.
 Solution method      : On-the-fly selection.
 Cavity type          : VdW (van der Waals Surface) (Alpha=1.000).
 Cavity algorithm     : GePol (No added spheres)
                        Default sphere list used, NSphG=    9.
                        Lebedev-Laikov grids with approx.  5.0 points / Ang**2.
                        Smoothing algorithm: York/Karplus (Gamma=1.0000).
                        Polarization charges: spherical gaussians, with
                                              point-specific exponents (IZeta= 3).
                        Self-potential: point-specific (ISelfS= 7).
                        Self-field    : sphere-specific E.n sum rule (ISelfD= 2).
 1st derivatives      : Analytical E(r).r(x)/FMM algorithm (CHGder, D1EAlg=3).
                        Cavity 1st derivative terms included.
 Solvent              : TetraHydroFuran, Eps=   7.425700 Eps(inf)=   1.974025
 ------------------------------------------------------------------------------
 Spheres list:
 ISph  on   Nord     Re0    Alpha      Xe            Ye            Ze
    1   C      1    1.8500  1.000     -0.204436      0.715440      0.206399
    2   O      2    2.2940  1.000     -0.221607      1.341963      1.342694
    3   C      3    1.8500  1.000     -0.217514      1.647165     -1.042785
    4   H      4    1.2000  1.000     -0.105501      1.101483     -1.987995
    5   H      5    1.2000  1.000     -1.175847      2.182784     -1.049292
    6   H      6    1.2000  1.000      0.591066      2.379082     -0.948664
    7  Cl      7    2.3800  1.000     -1.966991     -1.176741     -0.063878
    8   C      8    1.8500  1.000      2.365427     -0.598060     -0.077362
    9   N      9    1.8900  1.000      3.463020     -0.997390     -0.026740
 ------------------------------------------------------------------------------
 GePol: Number of generator spheres                  =       9
 GePol: Total number of spheres                      =       9
 GePol: Number of exposed spheres                    =       9 (100.00%)
 GePol: Number of points                             =    1375
 GePol: Average weight of points                     =       0.13
 GePol: Minimum weight of points                     =   0.29D-07
 GePol: Maximum weight of points                     =    0.18138
 GePol: Number of points with low weight             =      38
 GePol: Fraction of low-weight points (<1% of avg)   =       2.76%
 GePol: Cavity surface area                          =    185.314 Ang**2
 GePol: Cavity volume                                =    161.118 Ang**3
 ------------------------------------------------------------------------------
 Atomic radii for non-electrostatic terms: SMD-CDS.
 ------------------------------------------------------------------------------
 PCM non-electrostatic energy =         0.0012582066 Hartrees.
 Nuclear repulsion after PCM non-electrostatic terms =      209.0475458569 Hartrees.
 Leave Link  301 at Wed Jan  8 01:32:15 2020, MaxMem=  4294967296 cpu:               3.3 elap:               0.3
 (Enter /home/cwagen/sw/g16/g16/l302.exe)
 NPDir=0 NMtPBC=     1 NCelOv=     1 NCel=       1 NClECP=     1 NCelD=      1
         NCelK=      1 NCelE2=     1 NClLst=     1 CellRange=     0.0.
 One-electron integrals computed using PRISM.
 One-electron integral symmetry used in STVInt
 NBasis=   124 RedAO= T EigKep=  2.17D-04  NBF=   124
 NBsUse=   124 1.00D-06 EigRej= -1.00D+00 NBFU=   124
 Precomputing XC quadrature grid using
 IXCGrd= 4 IRadAn=           5 IRanWt=          -1 IRanGd=           0 AccXCQ= 0.00D+00.
 Generated NRdTot=       0 NPtTot=           0 NUsed=           0 NTot=          32
 NSgBfM=   123   123   123   123   123 MxSgAt=     9 MxSgA2=     9.
 Leave Link  302 at Wed Jan  8 01:32:17 2020, MaxMem=  4294967296 cpu:              27.0 elap:               2.3
 (Enter /home/cwagen/sw/g16/g16/l303.exe)
 DipDrv:  MaxL=1.
 Leave Link  303 at Wed Jan  8 01:32:17 2020, MaxMem=  4294967296 cpu:               3.0 elap:               0.3
 (Enter /home/cwagen/sw/g16/g16/l401.exe)
 ExpMin= 4.38D-02 ExpMax= 2.52D+04 ExpMxC= 3.78D+03 IAcc=3 IRadAn=         5 AccDes= 0.00D+00
 Harris functional with IExCor=  402 and IRadAn=       5 diagonalized for initial guess.
 HarFok:  IExCor=  402 AccDes= 0.00D+00 IRadAn=         5 IDoV= 1 UseB2=F ITyADJ=14
 ICtDFT=  3500011 ScaDFX=  1.000000  1.000000  1.000000  1.000000
 FoFCou: FMM=F IPFlag=           0 FMFlag=      100000 FMFlg1=           0
         NFxFlg=           0 DoJE=T BraDBF=F KetDBF=T FulRan=T
         wScrn=  0.000000 ICntrl=       500 IOpCl=  0 I1Cent=   200000004 NGrid=           0
         NMat0=    1 NMatS0=      1 NMatT0=    0 NMatD0=    1 NMtDS0=    0 NMtDT0=    0
 Petite list used in FoFCou.
 Harris En= -706.335148902981    
 JPrj=0 DoOrth=F DoCkMO=F.
 Leave Link  401 at Wed Jan  8 01:32:19 2020, MaxMem=  4294967296 cpu:              25.3 elap:               1.8
 (Enter /home/cwagen/sw/g16/g16/l502.exe)
 Keep R1 ints in memory in canonical form, NReq=45236517.
 FoFCou: FMM=F IPFlag=           0 FMFlag=           0 FMFlg1=           0
         NFxFlg=           0 DoJE=F BraDBF=F KetDBF=F FulRan=T
         wScrn=  0.000000 ICntrl=       600 IOpCl=  0 I1Cent=           0 NGrid=           0
         NMat0=    1 NMatS0=   7750 NMatT0=    0 NMatD0=    1 NMtDS0=    0 NMtDT0=    0
 Symmetry not used in FoFCou.
 Two-electron integral symmetry not used.
 Closed shell SCF:
 Using DIIS extrapolation, IDIIS=  1040.
 NGot=  4294967296 LenX=  4264898079 LenY=  4264882262
 Requested convergence on RMS density matrix=1.00D-08 within 128 cycles.
 Requested convergence on MAX density matrix=1.00D-06.
 Requested convergence on             energy=1.00D-06.
 No special actions if energy rises.

 Cycle   1  Pass 1  IDiag  1:
 Inv3:  Mode=1 IEnd=     5671875.
 Iteration    1 A*A^-1 deviation from unit magnitude is 5.88D-15 for   1373.
 Iteration    1 A*A^-1 deviation from orthogonality  is 1.91D-15 for   1373   1224.
 Iteration    1 A^-1*A deviation from unit magnitude is 5.44D-15 for   1373.
 Iteration    1 A^-1*A deviation from orthogonality  is 2.14D-15 for   1371   1370.
 E= -706.144802834734    
 DIIS: error= 2.66D-02 at cycle   1 NSaved=   1.
 NSaved= 1 IEnMin= 1 EnMin= -706.144802834734     IErMin= 1 ErrMin= 2.66D-02
 ErrMax= 2.66D-02  0.00D+00 EMaxC= 1.00D-01 BMatC= 1.94D-01 BMatP= 1.94D-01
 IDIUse=3 WtCom= 7.34D-01 WtEn= 2.66D-01
 Coeff-Com:  0.100D+01
 Coeff-En:   0.100D+01
 Coeff:      0.100D+01
 Gap=     0.095 Goal=   None    Shift=    0.000
 GapD=    0.095 DampG=0.500 DampE=0.500 DampFc=0.2500 IDamp=-1.
 Damping current iteration by 2.50D-01
 RMSDP=1.27D-02 MaxDP=3.03D-01              OVMax= 6.58D-01

 Cycle   2  Pass 1  IDiag  1:
 E= -706.184792301314     Delta-E=       -0.039989466580 Rises=F Damp=T
 DIIS: error= 1.86D-02 at cycle   2 NSaved=   2.
 NSaved= 2 IEnMin= 2 EnMin= -706.184792301314     IErMin= 2 ErrMin= 1.86D-02
 ErrMax= 1.86D-02  0.00D+00 EMaxC= 1.00D-01 BMatC= 2.67D-02 BMatP= 1.94D-01
 IDIUse=3 WtCom= 8.14D-01 WtEn= 1.86D-01
 Coeff-Com: -0.212D+00 0.121D+01
 Coeff-En:   0.296D+00 0.704D+00
 Coeff:     -0.117D+00 0.112D+01
 Gap=     0.098 Goal=   None    Shift=    0.000
 RMSDP=3.51D-03 MaxDP=6.34D-02 DE=-4.00D-02 OVMax= 6.37D-01

 Cycle   3  Pass 1  IDiag  1:
 E= -706.293855375200     Delta-E=       -0.109063073886 Rises=F Damp=F
 DIIS: error= 1.22D-02 at cycle   3 NSaved=   3.
 NSaved= 3 IEnMin= 3 EnMin= -706.293855375200     IErMin= 3 ErrMin= 1.22D-02
 ErrMax= 1.22D-02  0.00D+00 EMaxC= 1.00D-01 BMatC= 3.62D-02 BMatP= 2.67D-02
 IDIUse=2 WtCom= 0.00D+00 WtEn= 1.00D+00
 Coeff-En:   0.000D+00 0.000D+00 0.100D+01
 Coeff:      0.000D+00 0.000D+00 0.100D+01
 Gap=     0.081 Goal=   None    Shift=    0.000
 RMSDP=5.97D-03 MaxDP=1.10D-01 DE=-1.09D-01 OVMax= 3.91D-01

 Cycle   4  Pass 1  IDiag  1:
 E= -706.116611179952     Delta-E=        0.177244195248 Rises=F Damp=F
 DIIS: error= 2.71D-02 at cycle   4 NSaved=   4.
 NSaved= 4 IEnMin= 3 EnMin= -706.293855375200     IErMin= 3 ErrMin= 1.22D-02
 ErrMax= 2.71D-02  0.00D+00 EMaxC= 1.00D-01 BMatC= 1.83D-01 BMatP= 2.67D-02
 IDIUse=2 WtCom= 0.00D+00 WtEn= 1.00D+00
 Coeff-En:   0.000D+00 0.000D+00 0.800D+00 0.200D+00
 Coeff:      0.000D+00 0.000D+00 0.800D+00 0.200D+00
 Gap=     0.079 Goal=   None    Shift=    0.000
 RMSDP=3.77D-03 MaxDP=7.27D-02 DE= 1.77D-01 OVMax= 2.95D-01

 Cycle   5  Pass 1  IDiag  1:
 E= -706.324554496938     Delta-E=       -0.207943316986 Rises=F Damp=F
 DIIS: error= 7.44D-03 at cycle   5 NSaved=   5.
 NSaved= 5 IEnMin= 5 EnMin= -706.324554496938     IErMin= 5 ErrMin= 7.44D-03
 ErrMax= 7.44D-03  0.00D+00 EMaxC= 1.00D-01 BMatC= 1.24D-02 BMatP= 2.67D-02
 IDIUse=3 WtCom= 9.26D-01 WtEn= 7.44D-02
 Coeff-Com:  0.128D-01 0.755D-02 0.413D+00 0.628D-01 0.504D+00
 Coeff-En:   0.000D+00 0.000D+00 0.235D+00 0.000D+00 0.765D+00
 Coeff:      0.118D-01 0.699D-02 0.399D+00 0.582D-01 0.524D+00
 Gap=     0.104 Goal=   None    Shift=    0.000
 RMSDP=9.12D-04 MaxDP=2.36D-02 DE=-2.08D-01 OVMax= 2.93D-02

 Cycle   6  Pass 1  IDiag  1:
 E= -706.335395211640     Delta-E=       -0.010840714702 Rises=F Damp=F
 DIIS: error= 3.11D-03 at cycle   6 NSaved=   6.
 NSaved= 6 IEnMin= 6 EnMin= -706.335395211640     IErMin= 6 ErrMin= 3.11D-03
 ErrMax= 3.11D-03  0.00D+00 EMaxC= 1.00D-01 BMatC= 1.63D-03 BMatP= 1.24D-02
 IDIUse=3 WtCom= 9.69D-01 WtEn= 3.11D-02
 Coeff-Com: -0.396D-01 0.641D-01 0.170D+00-0.259D-01 0.379D+00 0.453D+00
 Coeff-En:   0.000D+00 0.000D+00 0.000D+00 0.000D+00 0.107D-01 0.989D+00
 Coeff:     -0.384D-01 0.621D-01 0.164D+00-0.251D-01 0.368D+00 0.469D+00
 Gap=     0.112 Goal=   None    Shift=    0.000
 RMSDP=4.01D-04 MaxDP=9.36D-03 DE=-1.08D-02 OVMax= 2.47D-02

 Cycle   7  Pass 1  IDiag  1:
 E= -706.336804584473     Delta-E=       -0.001409372833 Rises=F Damp=F
 DIIS: error= 5.94D-04 at cycle   7 NSaved=   7.
 NSaved= 7 IEnMin= 7 EnMin= -706.336804584473     IErMin= 7 ErrMin= 5.94D-04
 ErrMax= 5.94D-04  0.00D+00 EMaxC= 1.00D-01 BMatC= 6.55D-05 BMatP= 1.63D-03
 IDIUse=3 WtCom= 9.94D-01 WtEn= 5.94D-03
 Coeff-Com: -0.213D-01 0.317D-01 0.439D-01-0.165D-01 0.134D+00 0.264D+00
 Coeff-Com:  0.565D+00
 Coeff-En:   0.000D+00 0.000D+00 0.000D+00 0.000D+00 0.000D+00 0.145D-01
 Coeff-En:   0.985D+00
 Coeff:     -0.211D-01 0.316D-01 0.436D-01-0.164D-01 0.133D+00 0.262D+00
 Coeff:      0.567D+00
 Gap=     0.111 Goal=   None    Shift=    0.000
 RMSDP=1.11D-04 MaxDP=2.97D-03 DE=-1.41D-03 OVMax= 4.84D-03

 Cycle   8  Pass 1  IDiag  1:
 E= -706.336868663911     Delta-E=       -0.000064079437 Rises=F Damp=F
 DIIS: error= 2.97D-04 at cycle   8 NSaved=   8.
 NSaved= 8 IEnMin= 8 EnMin= -706.336868663911     IErMin= 8 ErrMin= 2.97D-04
 ErrMax= 2.97D-04  0.00D+00 EMaxC= 1.00D-01 BMatC= 1.54D-05 BMatP= 6.55D-05
 IDIUse=3 WtCom= 9.97D-01 WtEn= 2.97D-03
 Coeff-Com: -0.418D-02 0.370D-02-0.102D-01-0.284D-03-0.389D-02 0.853D-01
 Coeff-Com:  0.358D+00 0.571D+00
 Coeff-En:   0.000D+00 0.000D+00 0.000D+00 0.000D+00 0.000D+00 0.000D+00
 Coeff-En:   0.198D-01 0.980D+00
 Coeff:     -0.417D-02 0.369D-02-0.102D-01-0.284D-03-0.388D-02 0.851D-01
 Coeff:      0.357D+00 0.572D+00
 Gap=     0.111 Goal=   None    Shift=    0.000
 RMSDP=3.37D-05 MaxDP=7.88D-04 DE=-6.41D-05 OVMax= 1.80D-03

 Cycle   9  Pass 1  IDiag  1:
 E= -706.336885926565     Delta-E=       -0.000017262654 Rises=F Damp=F
 DIIS: error= 5.44D-05 at cycle   9 NSaved=   9.
 NSaved= 9 IEnMin= 9 EnMin= -706.336885926565     IErMin= 9 ErrMin= 5.44D-05
 ErrMax= 5.44D-05  0.00D+00 EMaxC= 1.00D-01 BMatC= 7.54D-07 BMatP= 1.54D-05
 IDIUse=1 WtCom= 1.00D+00 WtEn= 0.00D+00
 Coeff-Com: -0.174D-02 0.141D-02-0.913D-02 0.813D-03-0.109D-01 0.348D-01
 Coeff-Com:  0.164D+00 0.307D+00 0.513D+00
 Coeff:     -0.174D-02 0.141D-02-0.913D-02 0.813D-03-0.109D-01 0.348D-01
 Coeff:      0.164D+00 0.307D+00 0.513D+00
 Gap=     0.110 Goal=   None    Shift=    0.000
 RMSDP=9.38D-06 MaxDP=2.28D-04 DE=-1.73D-05 OVMax= 4.22D-04

 Cycle  10  Pass 1  IDiag  1:
 E= -706.336886628646     Delta-E=       -0.000000702081 Rises=F Damp=F
 DIIS: error= 4.41D-05 at cycle  10 NSaved=  10.
 NSaved=10 IEnMin=10 EnMin= -706.336886628646     IErMin=10 ErrMin= 4.41D-05
 ErrMax= 4.41D-05  0.00D+00 EMaxC= 1.00D-01 BMatC= 2.59D-07 BMatP= 7.54D-07
 IDIUse=1 WtCom= 1.00D+00 WtEn= 0.00D+00
 Coeff-Com: -0.329D-03 0.234D-03-0.372D-02 0.384D-03-0.531D-02 0.131D-02
 Coeff-Com:  0.920D-03 0.315D-01 0.391D+00 0.584D+00
 Coeff:     -0.329D-03 0.234D-03-0.372D-02 0.384D-03-0.531D-02 0.131D-02
 Coeff:      0.920D-03 0.315D-01 0.391D+00 0.584D+00
 Gap=     0.110 Goal=   None    Shift=    0.000
 RMSDP=4.87D-06 MaxDP=1.31D-04 DE=-7.02D-07 OVMax= 2.31D-04

 Cycle  11  Pass 1  IDiag  1:
 E= -706.336886922185     Delta-E=       -0.000000293539 Rises=F Damp=F
 DIIS: error= 4.51D-06 at cycle  11 NSaved=  11.
 NSaved=11 IEnMin=11 EnMin= -706.336886922185     IErMin=11 ErrMin= 4.51D-06
 ErrMax= 4.51D-06  0.00D+00 EMaxC= 1.00D-01 BMatC= 7.68D-09 BMatP= 2.59D-07
 IDIUse=1 WtCom= 1.00D+00 WtEn= 0.00D+00
 Coeff-Com: -0.378D-04 0.987D-04-0.309D-03 0.853D-06-0.321D-03-0.167D-02
 Coeff-Com: -0.146D-01-0.191D-01 0.467D-01 0.110D+00 0.880D+00
 Coeff:     -0.378D-04 0.987D-04-0.309D-03 0.853D-06-0.321D-03-0.167D-02
 Coeff:     -0.146D-01-0.191D-01 0.467D-01 0.110D+00 0.880D+00
 Gap=     0.110 Goal=   None    Shift=    0.000
 RMSDP=1.29D-06 MaxDP=2.21D-05 DE=-2.94D-07 OVMax= 4.55D-05

 Cycle  12  Pass 1  IDiag  1:
 E= -706.336886933437     Delta-E=       -0.000000011252 Rises=F Damp=F
 DIIS: error= 1.81D-06 at cycle  12 NSaved=  12.
 NSaved=12 IEnMin=12 EnMin= -706.336886933437     IErMin=12 ErrMin= 1.81D-06
 ErrMax= 1.81D-06  0.00D+00 EMaxC= 1.00D-01 BMatC= 4.21D-10 BMatP= 7.68D-09
 IDIUse=1 WtCom= 1.00D+00 WtEn= 0.00D+00
 Coeff-Com:  0.367D-04-0.398D-04 0.796D-04 0.120D-04 0.991D-04-0.783D-03
 Coeff-Com: -0.604D-02-0.867D-02-0.481D-02-0.589D-03 0.294D+00 0.727D+00
 Coeff:      0.367D-04-0.398D-04 0.796D-04 0.120D-04 0.991D-04-0.783D-03
 Coeff:     -0.604D-02-0.867D-02-0.481D-02-0.589D-03 0.294D+00 0.727D+00
 Gap=     0.110 Goal=   None    Shift=    0.000
 RMSDP=3.05D-07 MaxDP=6.88D-06 DE=-1.13D-08 OVMax= 1.56D-05

 Cycle  13  Pass 1  IDiag  1:
 E= -706.336886933951     Delta-E=       -0.000000000514 Rises=F Damp=F
 DIIS: error= 4.10D-07 at cycle  13 NSaved=  13.
 NSaved=13 IEnMin=13 EnMin= -706.336886933951     IErMin=13 ErrMin= 4.10D-07
 ErrMax= 4.10D-07  0.00D+00 EMaxC= 1.00D-01 BMatC= 3.61D-11 BMatP= 4.21D-10
 IDIUse=1 WtCom= 1.00D+00 WtEn= 0.00D+00
 Coeff-Com:  0.685D-05-0.632D-05 0.361D-04-0.218D-05 0.426D-04-0.806D-04
 Coeff-Com: -0.482D-03-0.486D-03-0.272D-02-0.675D-02 0.229D-01 0.212D+00
 Coeff-Com:  0.775D+00
 Coeff:      0.685D-05-0.632D-05 0.361D-04-0.218D-05 0.426D-04-0.806D-04
 Coeff:     -0.482D-03-0.486D-03-0.272D-02-0.675D-02 0.229D-01 0.212D+00
 Coeff:      0.775D+00
 Gap=     0.110 Goal=   None    Shift=    0.000
 RMSDP=8.01D-08 MaxDP=1.75D-06 DE=-5.14D-10 OVMax= 4.26D-06

 Cycle  14  Pass 1  IDiag  1:
 E= -706.336886933999     Delta-E=       -0.000000000048 Rises=F Damp=F
 DIIS: error= 9.56D-08 at cycle  14 NSaved=  14.
 NSaved=14 IEnMin=14 EnMin= -706.336886933999     IErMin=14 ErrMin= 9.56D-08
 ErrMax= 9.56D-08  0.00D+00 EMaxC= 1.00D-01 BMatC= 1.79D-12 BMatP= 3.61D-11
 IDIUse=1 WtCom= 1.00D+00 WtEn= 0.00D+00
 Coeff-Com:  0.338D-05-0.489D-05 0.962D-05-0.181D-06 0.707D-05 0.174D-04
 Coeff-Com:  0.248D-03 0.327D-03-0.592D-03-0.197D-02-0.133D-01 0.107D-01
 Coeff-Com:  0.217D+00 0.788D+00
 Coeff:      0.338D-05-0.489D-05 0.962D-05-0.181D-06 0.707D-05 0.174D-04
 Coeff:      0.248D-03 0.327D-03-0.592D-03-0.197D-02-0.133D-01 0.107D-01
 Coeff:      0.217D+00 0.788D+00
 Gap=     0.110 Goal=   None    Shift=    0.000
 RMSDP=1.50D-08 MaxDP=4.05D-07 DE=-4.79D-11 OVMax= 5.08D-07

 Cycle  15  Pass 1  IDiag  1:
 E= -706.336886934001     Delta-E=       -0.000000000002 Rises=F Damp=F
 DIIS: error= 4.05D-08 at cycle  15 NSaved=  15.
 NSaved=15 IEnMin=15 EnMin= -706.336886934001     IErMin=15 ErrMin= 4.05D-08
 ErrMax= 4.05D-08  0.00D+00 EMaxC= 1.00D-01 BMatC= 2.64D-13 BMatP= 1.79D-12
 IDIUse=1 WtCom= 1.00D+00 WtEn= 0.00D+00
 Coeff-Com:  0.108D-05-0.149D-05 0.195D-05-0.193D-06 0.180D-05 0.505D-05
 Coeff-Com:  0.737D-04 0.483D-04 0.270D-04 0.516D-05-0.343D-02-0.524D-02
 Coeff-Com:  0.307D-02 0.150D+00 0.855D+00
 Coeff:      0.108D-05-0.149D-05 0.195D-05-0.193D-06 0.180D-05 0.505D-05
 Coeff:      0.737D-04 0.483D-04 0.270D-04 0.516D-05-0.343D-02-0.524D-02
 Coeff:      0.307D-02 0.150D+00 0.855D+00
 Gap=     0.110 Goal=   None    Shift=    0.000
 RMSDP=6.18D-09 MaxDP=1.53D-07 DE=-1.82D-12 OVMax= 2.80D-07

 Error on total polarization charges =  0.02574
 SCF Done:  E(RB3LYP) =  -706.336886934     A.U. after   15 cycles
            NFock= 15  Conv=0.62D-08     -V/T= 2.0064
 KE= 7.018168524834D+02 PE=-2.094525731150D+03 EE= 4.773244458757D+02
 SMD-CDS (non-electrostatic) energy       (kcal/mol) =       0.79
 (included in total energy above)
 Leave Link  502 at Wed Jan  8 01:32:46 2020, MaxMem=  4294967296 cpu:             353.4 elap:              26.9
 (Enter /home/cwagen/sw/g16/g16/l601.exe)
 Copying SCF densities to generalized density rwf, IOpCl= 0 IROHF=0.

 **********************************************************************

            Population analysis using the SCF density.

 **********************************************************************

 Orbital symmetries:
       Occupied  (A) (A) (A) (A) (A) (A) (A) (A) (A) (A) (A) (A)
                 (A) (A) (A) (A) (A) (A) (A) (A) (A) (A) (A) (A)
                 (A) (A) (A)
       Virtual   (A) (A) (A) (A) (A) (A) (A) (A) (A) (A) (A) (A)
                 (A) (A) (A) (A) (A) (A) (A) (A) (A) (A) (A) (A)
                 (A) (A) (A) (A) (A) (A) (A) (A) (A) (A) (A) (A)
                 (A) (A) (A) (A) (A) (A) (A) (A) (A) (A) (A) (A)
                 (A) (A) (A) (A) (A) (A) (A) (A) (A) (A) (A) (A)
                 (A) (A) (A) (A) (A) (A) (A) (A) (A) (A) (A) (A)
                 (A) (A) (A) (A) (A) (A) (A) (A) (A) (A) (A) (A)
                 (A) (A) (A) (A) (A) (A) (A) (A) (A) (A) (A) (A)
                 (A)
 The electronic state is 1-A.
 Alpha  occ. eigenvalues -- -101.48931 -19.22961 -14.27751 -10.37709 -10.22322
 Alpha  occ. eigenvalues --  -10.15080  -9.40134  -7.16337  -7.15713  -7.15699
 Alpha  occ. eigenvalues --   -1.06009  -0.83814  -0.75513  -0.72988  -0.56337
 Alpha  occ. eigenvalues --   -0.45649  -0.45196  -0.44987  -0.38253  -0.37767
 Alpha  occ. eigenvalues --   -0.36326  -0.28443  -0.28422  -0.27765  -0.26637
 Alpha  occ. eigenvalues --   -0.26492  -0.25314
 Alpha virt. eigenvalues --   -0.14279  -0.06155   0.02992   0.04467   0.04978
 Alpha virt. eigenvalues --    0.05269   0.07127   0.08088   0.08481   0.09110
 Alpha virt. eigenvalues --    0.10188   0.10837   0.11219   0.11870   0.12919
 Alpha virt. eigenvalues --    0.14084   0.14884   0.15988   0.16465   0.19440
 Alpha virt. eigenvalues --    0.21015   0.22388   0.23837   0.24176   0.25122
 Alpha virt. eigenvalues --    0.25552   0.26304   0.28036   0.30125   0.31791
 Alpha virt. eigenvalues --    0.33334   0.36486   0.39193   0.52226   0.61387
 Alpha virt. eigenvalues --    0.63858   0.64748   0.66321   0.66494   0.69889
 Alpha virt. eigenvalues --    0.72207   0.73456   0.74154   0.75650   0.77758
 Alpha virt. eigenvalues --    0.79806   0.84608   0.91837   0.93296   0.93881
 Alpha virt. eigenvalues --    0.94080   0.94929   0.96742   0.99526   1.01157
 Alpha virt. eigenvalues --    1.02206   1.06759   1.12285   1.13631   1.19425
 Alpha virt. eigenvalues --    1.24782   1.25050   1.27903   1.30819   1.42413
 Alpha virt. eigenvalues --    1.46943   1.48432   1.56827   1.58683   1.59375
 Alpha virt. eigenvalues --    1.59481   1.62947   1.64585   1.72652   1.77961
 Alpha virt. eigenvalues --    1.84874   1.93989   2.02255   2.02313   2.09474
 Alpha virt. eigenvalues --    2.16886   2.21868   2.25586   2.45707   2.47748
 Alpha virt. eigenvalues --    2.51564   2.66042   2.66167   2.69004   2.90500
 Alpha virt. eigenvalues --    3.07317   3.99486   4.12032   4.16185   4.27500
 Alpha virt. eigenvalues --    4.35816   4.38337
          Condensed to atoms (all electrons):
               1          2          3          4          5          6
     1  C    5.044806   0.504956   0.013787  -0.053979  -0.009010  -0.029399
     2  O    0.504956   7.883419  -0.113501   0.007191  -0.008381  -0.006169
     3  C    0.013787  -0.113501   5.771819   0.378736   0.348474   0.372151
     4  H   -0.053979   0.007191   0.378736   0.434337  -0.022494  -0.021967
     5  H   -0.009010  -0.008381   0.348474  -0.022494   0.425592  -0.021618
     6  H   -0.029399  -0.006169   0.372151  -0.021967  -0.021618   0.421564
     7  Cl   0.044440  -0.027309   0.001526   0.003516  -0.003630   0.001786
     8  C    0.205597  -0.042299  -0.156141   0.001212   0.003536  -0.005256
     9  N   -0.002849   0.000081  -0.000485  -0.000091  -0.000020   0.000146
               7          8          9
     1  C    0.044440   0.205597  -0.002849
     2  O   -0.027309  -0.042299   0.000081
     3  C    0.001526  -0.156141  -0.000485
     4  H    0.003516   0.001212  -0.000091
     5  H   -0.003630   0.003536  -0.000020
     6  H    0.001786  -0.005256   0.000146
     7  Cl  17.509903  -0.031276  -0.000509
     8  C   -0.031276   5.581613   0.651194
     9  N   -0.000509   0.651194   6.963047
 Mulliken charges:
               1
     1  C    0.281650
     2  O   -0.197990
     3  C   -0.616367
     4  H    0.273538
     5  H    0.287550
     6  H    0.288762
     7  Cl  -0.498448
     8  C   -0.208181
     9  N   -0.610515
 Sum of Mulliken charges =  -1.00000
 Mulliken charges with hydrogens summed into heavy atoms:
               1
     1  C    0.281650
     2  O   -0.197990
     3  C    0.233483
     7  Cl  -0.498448
     8  C   -0.208181
     9  N   -0.610515
 Electronic spatial extent (au):  <R**2>=           1180.8268
 Charge=             -1.0000 electrons
 Dipole moment (field-independent basis, Debye):
    X=             -7.0328    Y=              8.2566    Z=             -2.6157  Tot=             11.1568
 Quadrupole moment (field-independent basis, Debye-Ang):
   XX=            -93.6046   YY=            -48.7042   ZZ=            -46.8943
   XY=              5.0471   XZ=              0.9899   YZ=             -5.2782
 Traceless Quadrupole moment (field-independent basis, Debye-Ang):
   XX=            -30.5369   YY=             14.3635   ZZ=             16.1734
   XY=              5.0471   XZ=              0.9899   YZ=             -5.2782
 Octapole moment (field-independent basis, Debye-Ang**2):
  XXX=           -139.2479  YYY=             31.4126  ZZZ=             -4.0478  XYY=            -14.1389
  XXY=             55.1880  XXZ=              2.0501  XZZ=             -6.6176  YZZ=              5.2869
  YYZ=             -7.1843  XYZ=              0.9746
 Hexadecapole moment (field-independent basis, Debye-Ang**3):
 XXXX=          -1651.9481 YYYY=           -422.8161 ZZZZ=           -175.8074 XXXY=            137.0748
 XXXZ=              5.1721 YYYX=             21.4833 YYYZ=            -12.8670 ZZZX=              1.9422
 ZZZY=             -5.7863 XXYY=           -304.6330 XXZZ=           -221.3804 YYZZ=           -102.3572
 XXYZ=             -2.3603 YYXZ=              2.5886 ZZXY=              4.1995
 N-N= 2.090475458569D+02 E-N=-2.094525730350D+03  KE= 7.018168524834D+02
 No NMR shielding tensors so no spin-rotation constants.
 Leave Link  601 at Wed Jan  8 01:32:48 2020, MaxMem=  4294967296 cpu:              15.0 elap:               1.4
 (Enter /home/cwagen/sw/g16/g16/l701.exe)
 ... and contract with generalized density number  0.
 Compute integral first derivatives.
 D1PCM: PCM CHGder 1st derivatives, ID1Alg=3 FixD1E=F DoIter=F DoCFld=F I1PDM=0.
 GePol: Maximum number of non-zero 1st derivatives   =     394
 Leave Link  701 at Wed Jan  8 01:32:53 2020, MaxMem=  4294967296 cpu:              66.2 elap:               5.6
 (Enter /home/cwagen/sw/g16/g16/l702.exe)
 L702 exits ... SP integral derivatives will be done elsewhere.
 Leave Link  702 at Wed Jan  8 01:32:53 2020, MaxMem=  4294967296 cpu:               1.2 elap:               0.1
 (Enter /home/cwagen/sw/g16/g16/l703.exe)
 Integral derivatives from FoFJK, PRISM(SPDF).
 Compute integral first derivatives, UseDBF=F ICtDFT=           0.
 Calling FoFJK, ICntrl=      2127 FMM=F ISym2X=0 I1Cent= 0 IOpClX= 0 NMat=1 NMatS=1 NMatT=0.
 FoFJK:  IHMeth= 1 ICntrl=    2127 DoSepK=F KAlg= 0 I1Cent=           0 FoldK=F
 IRaf=         0 NMat=       1 IRICut=       1 DoRegI=T DoRafI=F ISym2E= 0 IDoP0=0 IntGTp=1.
 FoFCou: FMM=F IPFlag=           0 FMFlag=      100000 FMFlg1=         800
         NFxFlg=           0 DoJE=F BraDBF=F KetDBF=F FulRan=T
         wScrn=  0.000000 ICntrl=      2127 IOpCl=  0 I1Cent=           0 NGrid=           0
         NMat0=    1 NMatS0=      1 NMatT0=    0 NMatD0=    1 NMtDS0=    0 NMtDT0=    0
 Symmetry not used in FoFCou.
 Leave Link  703 at Wed Jan  8 01:32:56 2020, MaxMem=  4294967296 cpu:              35.4 elap:               2.8
 (Enter /home/cwagen/sw/g16/g16/l716.exe)
 Dipole        =-2.76693470D+00 3.24838205D+00-1.02910777D+00
 ***** Axes restored to original set *****
 -------------------------------------------------------------------
 Center     Atomic                   Forces (Hartrees/Bohr)
 Number     Number              X              Y              Z
 -------------------------------------------------------------------
      1        6          -0.030716547   -0.087802336   -0.143354625
      2        8           0.014278648    0.076369357    0.145819309
      3        6           0.005877368    0.023815036    0.019245770
      4        1          -0.000324756    0.001748054   -0.005187116
      5        1          -0.000116025    0.006081090   -0.003664442
      6        1           0.002494866    0.004997152   -0.004428099
      7       17           0.020199488   -0.021671247   -0.006903135
      8        6          -0.028988740   -0.007863153   -0.002317701
      9        7           0.017295697    0.004326047    0.000790040
 -------------------------------------------------------------------
 Cartesian Forces:  Max     0.145819309 RMS     0.047045081
 Leave Link  716 at Wed Jan  8 01:32:56 2020, MaxMem=  4294967296 cpu:               1.4 elap:               0.2
 (Enter /home/cwagen/sw/g16/g16/l103.exe)

 GradGradGradGradGradGradGradGradGradGradGradGradGradGradGradGradGradGrad
 Berny optimization.
 FormGI is forming the generalized inverse of G from B-inverse, IUseBI=4.
 Internal  Forces:  Max     0.162128418 RMS     0.032688523
 Search for a local minimum.
 Step number   1 out of a maximum of   41
 All quantities printed in internal units (Hartrees-Bohrs-Radians)
 RMS Force = .33247D-01 SwitMx=.10000D-02 MixMth= 1
 Mixed Optimization -- RFO/linear search
 Second derivative matrix not updated -- first step.
 ITU=  0
     Eigenvalues ---    0.00230   0.04746   0.04746   0.05330   0.05908
     Eigenvalues ---    0.07453   0.10176   0.16000   0.16000   0.16000
     Eigenvalues ---    0.25000   0.25000   0.25000   0.26946   0.33918
     Eigenvalues ---    0.33999   0.34275   0.67840   1.220341000.00000
     Eigenvalues --- 1000.000001000.000001000.000001000.000001000.00000
     Eigenvalues --- 1000.000001000.000001000.000001000.000001000.00000
     Eigenvalues --- 1000.00000
 RFO step:  Lambda=-5.57026947D-02 EMin= 2.30000000D-03
 Linear search not attempted -- first point.
 Maximum step size (   0.300) exceeded in Quadratic search.
    -- Step size scaled by   0.897
 Iteration  1 RMS(Cart)=  0.06724687 RMS(Int)=  0.00555252
 Iteration  2 RMS(Cart)=  0.00731706 RMS(Int)=  0.00114451
 Iteration  3 RMS(Cart)=  0.00005054 RMS(Int)=  0.00114365
 Iteration  4 RMS(Cart)=  0.00000014 RMS(Int)=  0.00114365
 Iteration  1 RMS(Cart)=  0.00000000 RMS(Int)=  0.00000000
 ITry= 1 IFail=0 DXMaxC= 1.67D-01 DCOld= 1.00D+10 DXMaxT= 3.00D-01 DXLimC= 3.00D+00 Rises=F
 Variable       Old X    -DE/DX   Delta X   Delta X   Delta X     New X
                                 (Linear)    (Quad)   (Total)
    R1        2.45227  -0.16213   0.00000  -0.19817  -0.19817   2.25410
    R2        2.94503  -0.02405   0.00000  -0.06638  -0.06638   2.87865
    R3        4.91329  -0.03031   0.00000   0.00000   0.00000   4.91329
    R4        5.48021  -0.01228   0.00000   0.00000   0.00000   5.48021
    R5        2.07331  -0.00441   0.00000  -0.01000  -0.01000   2.06331
    R6        2.07468  -0.00188   0.00000  -0.00427  -0.00427   2.07041
    R7        2.06868  -0.00093   0.00000  -0.00210  -0.00210   2.06658
    R8        2.20923   0.01784   0.00000   0.01255   0.01255   2.22178
    A1        1.99667   0.05806   0.00000   0.18287   0.18064   2.17731
    A2        2.01908  -0.02159   0.00000  -0.04430  -0.04793   1.97114
    A3        1.89239  -0.01524   0.00000  -0.04411  -0.04326   1.84913
    A4        1.92419  -0.01198   0.00000  -0.03238  -0.03577   1.88842
    A5        1.77194  -0.01024   0.00000  -0.04280  -0.04301   1.72893
    A6        1.83479  -0.00328   0.00000  -0.04067  -0.04278   1.79200
    A7        1.97398  -0.00156   0.00000  -0.00682  -0.00698   1.96699
    A8        1.87942  -0.00771   0.00000  -0.03201  -0.03236   1.84706
    A9        1.90140  -0.00802   0.00000  -0.03311  -0.03346   1.86794
   A10        1.90356   0.00482   0.00000   0.01958   0.01940   1.92297
   A11        1.90837   0.00525   0.00000   0.02168   0.02152   1.92989
   A12        1.89554   0.00748   0.00000   0.03182   0.03121   1.92675
   A13        3.09039   0.00002   0.00000   0.00018   0.00018   3.09057
   A14        2.85372   0.00038   0.00000   0.00333   0.00333   2.85706
    D1        3.04510  -0.00289   0.00000  -0.02253  -0.02345   3.02165
    D2       -1.13357  -0.00310   0.00000  -0.02414  -0.02519  -1.15876
    D3        0.91915  -0.00282   0.00000  -0.02197  -0.02276   0.89639
    D4       -0.92685   0.00794   0.00000   0.05056   0.05061  -0.87623
    D5        1.17766   0.00773   0.00000   0.04895   0.04887   1.22654
    D6       -3.05280   0.00801   0.00000   0.05112   0.05131  -3.00150
    D7        1.01121  -0.00493   0.00000  -0.02714  -0.02628   0.98493
    D8        3.11572  -0.00513   0.00000  -0.02876  -0.02802   3.08770
    D9       -1.11475  -0.00485   0.00000  -0.02658  -0.02559  -1.14033
         Item               Value     Threshold  Converged?
 Maximum Force            0.162128     0.000450     NO 
 RMS     Force            0.033247     0.000300     NO 
 Maximum Displacement     0.166847     0.001800     NO 
 RMS     Displacement     0.065543     0.001200     NO 
 Predicted change in Energy=-3.037652D-02
 Lowest energy point so far.  Saving SCF results.
 GradGradGradGradGradGradGradGradGradGradGradGradGradGradGradGradGradGrad

 Leave Link  103 at Wed Jan  8 01:33:04 2020, MaxMem=  4294967296 cpu:              86.2 elap:               7.3
 (Enter /home/cwagen/sw/g16/g16/l202.exe)
                          Input orientation:                          
 ---------------------------------------------------------------------
 Center     Atomic      Atomic             Coordinates (Angstroms)
 Number     Number       Type             X           Y           Z
 ---------------------------------------------------------------------
      1          6           0       -0.218526   -0.370378   -0.255485
      2          8           0       -0.242496   -0.576964   -1.430035
      3          6           0       -0.319784   -1.446723    0.817698
      4          1           0       -0.157262   -1.055129    1.823873
      5          1           0       -1.330741   -1.860196    0.731812
      6          1           0        0.425750   -2.209795    0.577217
      7         17           0       -1.724734    1.626956    0.453030
      8          6           0        2.449121    0.606247    0.327491
      9          7           0        3.586519    0.899234    0.380297
 ---------------------------------------------------------------------
                    Distance matrix (angstroms):
                    1          2          3          4          5
     1  C    0.000000
     2  O    1.192820   0.000000
     3  C    1.523316   2.411380   0.000000
     4  H    2.190061   3.289958   1.091855   0.000000
     5  H    2.105073   2.739442   1.095615   1.793818   0.000000
     6  H    2.119420   2.672405   1.093586   1.796472   1.797604
     7  Cl   2.600000   3.255799   3.399172   3.395550   3.520395
     8  C    2.900000   3.425447   3.481640   3.434030   4.531465
     9  N    4.061342   4.485289   4.577557   4.463109   5.649554
                    6          7          8          9
     6  H    0.000000
     7  Cl   4.400076   0.000000
     8  C    3.476563   4.298682   0.000000
     9  N    4.437939   5.361369   1.175714   0.000000
 Stoichiometry    C3H3ClNO(1-)
 Framework group  C1[X(C3H3ClNO)]
 Deg. of freedom    21
 Full point group                 C1      NOp   1
 RotChk:  IX=0 Diff= 6.13D-03
 Largest Abelian subgroup         C1      NOp   1
 Largest concise Abelian subgroup C1      NOp   1
                         Standard orientation:                         
 ---------------------------------------------------------------------
 Center     Atomic      Atomic             Coordinates (Angstroms)
 Number     Number       Type             X           Y           Z
 ---------------------------------------------------------------------
      1          6           0       -0.223940    0.783480    0.239845
      2          8           0       -0.226067    1.227199    1.347061
      3          6           0       -0.210436    1.622234   -1.031690
      4          1           0       -0.090163    1.018496   -1.933457
      5          1           0       -1.171914    2.147064   -1.053722
      6          1           0        0.611705    2.336864   -0.935159
      7         17           0       -1.933162   -1.149377   -0.080503
      8          6           0        2.325319   -0.562893   -0.074098
      9          7           0        3.425286   -0.976790   -0.041421
 ---------------------------------------------------------------------
 Rotational constants (GHZ):           2.7235836           1.2280152           1.0082542
 Leave Link  202 at Wed Jan  8 01:33:04 2020, MaxMem=  4294967296 cpu:               2.1 elap:               0.2
 (Enter /home/cwagen/sw/g16/g16/l301.exe)
 Standard basis: 6-31+G(d) (6D, 7F)
 Ernie: Thresh=  0.10000D-02 Tol=  0.10000D-05 Strict=F.
 There are   124 symmetry adapted cartesian basis functions of A   symmetry.
 There are   124 symmetry adapted basis functions of A   symmetry.
   124 basis functions,   228 primitive gaussians,   124 cartesian basis functions
    27 alpha electrons       27 beta electrons
       nuclear repulsion energy       213.2478676560 Hartrees.
 IExCor=  402 DFT=T Ex+Corr=B3LYP ExCW=0 ScaHFX=  0.200000
 ScaDFX=  0.800000  0.720000  1.000000  0.810000 ScalE2=  1.000000  1.000000
 IRadAn=      5 IRanWt=     -1 IRanGd=            0 ICorTp=0 IEmpDi=  4
 NAtoms=    9 NActive=    9 NUniq=    9 SFac= 1.00D+00 NAtFMM=   60 NAOKFM=F Big=F
 Integral buffers will be    131072 words long.
 Raffenetti 2 integral format.
 Two-electron integral symmetry is turned on.
 ------------------------------------------------------------------------------
 Polarizable Continuum Model (PCM)
 =================================
 Model                : PCM.
 Atomic radii         : SMD-Coulomb.
 Polarization charges : Total charges.
 Charge compensation  : None.
 Solution method      : On-the-fly selection.
 Cavity type          : VdW (van der Waals Surface) (Alpha=1.000).
 Cavity algorithm     : GePol (No added spheres)
                        Default sphere list used, NSphG=    9.
                        Lebedev-Laikov grids with approx.  5.0 points / Ang**2.
                        Smoothing algorithm: York/Karplus (Gamma=1.0000).
                        Polarization charges: spherical gaussians, with
                                              point-specific exponents (IZeta= 3).
                        Self-potential: point-specific (ISelfS= 7).
                        Self-field    : sphere-specific E.n sum rule (ISelfD= 2).
 1st derivatives      : Analytical E(r).r(x)/FMM algorithm (CHGder, D1EAlg=3).
                        Cavity 1st derivative terms included.
 Solvent              : TetraHydroFuran, Eps=   7.425700 Eps(inf)=   1.974025
 ------------------------------------------------------------------------------
 Spheres list:
 ISph  on   Nord     Re0    Alpha      Xe            Ye            Ze
    1   C      1    1.8500  1.000     -0.223940      0.783480      0.239845
    2   O      2    2.2940  1.000     -0.226067      1.227199      1.347061
    3   C      3    1.8500  1.000     -0.210436      1.622234     -1.031690
    4   H      4    1.2000  1.000     -0.090163      1.018496     -1.933457
    5   H      5    1.2000  1.000     -1.171914      2.147064     -1.053722
    6   H      6    1.2000  1.000      0.611705      2.336864     -0.935159
    7  Cl      7    2.3800  1.000     -1.933162     -1.149377     -0.080503
    8   C      8    1.8500  1.000      2.325319     -0.562893     -0.074098
    9   N      9    1.8900  1.000      3.425286     -0.976790     -0.041421
 ------------------------------------------------------------------------------
 GePol: Number of generator spheres                  =       9
 GePol: Total number of spheres                      =       9
 GePol: Number of exposed spheres                    =       9 (100.00%)
 GePol: Number of points                             =    1364
 GePol: Average weight of points                     =       0.13
 GePol: Minimum weight of points                     =   0.20D-09
 GePol: Maximum weight of points                     =    0.18138
 GePol: Number of points with low weight             =      50
 GePol: Fraction of low-weight points (<1% of avg)   =       3.67%
 GePol: Cavity surface area                          =    182.674 Ang**2
 GePol: Cavity volume                                =    159.305 Ang**3
 ------------------------------------------------------------------------------
 Atomic radii for non-electrostatic terms: SMD-CDS.
 ------------------------------------------------------------------------------
 PCM non-electrostatic energy =         0.0010515495 Hartrees.
 Nuclear repulsion after PCM non-electrostatic terms =      213.2489192055 Hartrees.
 Leave Link  301 at Wed Jan  8 01:33:04 2020, MaxMem=  4294967296 cpu:               3.0 elap:               0.3
 (Enter /home/cwagen/sw/g16/g16/l302.exe)
 NPDir=0 NMtPBC=     1 NCelOv=     1 NCel=       1 NClECP=     1 NCelD=      1
         NCelK=      1 NCelE2=     1 NClLst=     1 CellRange=     0.0.
 One-electron integrals computed using PRISM.
 One-electron integral symmetry used in STVInt
 NBasis=   124 RedAO= T EigKep=  1.78D-04  NBF=   124
 NBsUse=   124 1.00D-06 EigRej= -1.00D+00 NBFU=   124
 Precomputing XC quadrature grid using
 IXCGrd= 4 IRadAn=           5 IRanWt=          -1 IRanGd=           0 AccXCQ= 0.00D+00.
 Generated NRdTot=       0 NPtTot=           0 NUsed=           0 NTot=          32
 NSgBfM=   124   124   124   124   124 MxSgAt=     9 MxSgA2=     9.
 Leave Link  302 at Wed Jan  8 01:33:06 2020, MaxMem=  4294967296 cpu:              29.2 elap:               2.2
 (Enter /home/cwagen/sw/g16/g16/l303.exe)
 DipDrv:  MaxL=1.
 Leave Link  303 at Wed Jan  8 01:33:07 2020, MaxMem=  4294967296 cpu:               3.3 elap:               0.4
 (Enter /home/cwagen/sw/g16/g16/l401.exe)
 Initial guess from the checkpoint file:  "/scratch/users/cwagen/cwagen_scan_260_290/Gau-49887.chk"
 B after Tr=     0.000000    0.000000    0.000000
         Rot=    0.999969   -0.007798    0.000884   -0.001000 Ang=  -0.91 deg.
 Guess basis will be translated and rotated to current coordinates.
 JPrj=2 DoOrth=T DoCkMO=T.
 Generating alternative initial guess.
 ExpMin= 4.38D-02 ExpMax= 2.52D+04 ExpMxC= 3.78D+03 IAcc=2 IRadAn=         4 AccDes= 0.00D+00
 Harris functional with IExCor=  402 and IRadAn=       4 diagonalized for initial guess.
 HarFok:  IExCor=  402 AccDes= 0.00D+00 IRadAn=         4 IDoV= 1 UseB2=F ITyADJ=14
 ICtDFT=  3500011 ScaDFX=  1.000000  1.000000  1.000000  1.000000
 FoFCou: FMM=F IPFlag=           0 FMFlag=      100000 FMFlg1=           0
         NFxFlg=           0 DoJE=T BraDBF=F KetDBF=T FulRan=T
         wScrn=  0.000000 ICntrl=       500 IOpCl=  0 I1Cent=   200000004 NGrid=           0
         NMat0=    1 NMatS0=      1 NMatT0=    0 NMatD0=    1 NMtDS0=    0 NMtDT0=    0
 Petite list used in FoFCou.
 Harris En= -706.366719589980    
 Leave Link  401 at Wed Jan  8 01:33:11 2020, MaxMem=  4294967296 cpu:              45.1 elap:               3.7
 (Enter /home/cwagen/sw/g16/g16/l502.exe)
 Keep R1 ints in memory in canonical form, NReq=45236517.
 FoFCou: FMM=F IPFlag=           0 FMFlag=           0 FMFlg1=           0
         NFxFlg=           0 DoJE=F BraDBF=F KetDBF=F FulRan=T
         wScrn=  0.000000 ICntrl=       600 IOpCl=  0 I1Cent=           0 NGrid=           0
         NMat0=    1 NMatS0=   7750 NMatT0=    0 NMatD0=    1 NMtDS0=    0 NMtDT0=    0
 Symmetry not used in FoFCou.
 Two-electron integral symmetry not used.
 Closed shell SCF:
 Using DIIS extrapolation, IDIIS=  1040.
 NGot=  4294967296 LenX=  4264898079 LenY=  4264882262
 Requested convergence on RMS density matrix=1.00D-08 within 128 cycles.
 Requested convergence on MAX density matrix=1.00D-06.
 Requested convergence on             energy=1.00D-06.
 No special actions if energy rises.

 Cycle   1  Pass 1  IDiag  1:
 Inv3:  Mode=1 IEnd=     5581488.
 Iteration    1 A*A^-1 deviation from unit magnitude is 3.33D-15 for    553.
 Iteration    1 A*A^-1 deviation from orthogonality  is 1.52D-15 for   1354   1207.
 Iteration    1 A^-1*A deviation from unit magnitude is 3.66D-15 for   1362.
 Iteration    1 A^-1*A deviation from orthogonality  is 1.37D-15 for    402     29.
 E= -706.358464759910    
 DIIS: error= 8.00D-03 at cycle   1 NSaved=   1.
 NSaved= 1 IEnMin= 1 EnMin= -706.358464759910     IErMin= 1 ErrMin= 8.00D-03
 ErrMax= 8.00D-03  0.00D+00 EMaxC= 1.00D-01 BMatC= 1.09D-02 BMatP= 1.09D-02
 IDIUse=3 WtCom= 9.20D-01 WtEn= 8.00D-02
 Coeff-Com:  0.100D+01
 Coeff-En:   0.100D+01
 Coeff:      0.100D+01
 Gap=     0.586 Goal=   None    Shift=    0.000
 GapD=    0.586 DampG=2.000 DampE=1.000 DampFc=2.0000 IDamp=-1.
 RMSDP=1.82D-03 MaxDP=3.54D-02              OVMax= 4.32D-02

 Cycle   2  Pass 1  IDiag  1:
 E= -706.375033044132     Delta-E=       -0.016568284223 Rises=F Damp=F
 DIIS: error= 2.76D-03 at cycle   2 NSaved=   2.
 NSaved= 2 IEnMin= 2 EnMin= -706.375033044132     IErMin= 2 ErrMin= 2.76D-03
 ErrMax= 2.76D-03  0.00D+00 EMaxC= 1.00D-01 BMatC= 1.00D-03 BMatP= 1.09D-02
 IDIUse=3 WtCom= 9.72D-01 WtEn= 2.76D-02
 Coeff-Com:  0.116D+00 0.884D+00
 Coeff-En:   0.000D+00 0.100D+01
 Coeff:      0.113D+00 0.887D+00
 Gap=     0.137 Goal=   None    Shift=    0.000
 RMSDP=5.65D-04 MaxDP=1.81D-02 DE=-1.66D-02 OVMax= 3.12D-02

 Cycle   3  Pass 1  IDiag  1:
 E= -706.373784807530     Delta-E=        0.001248236602 Rises=F Damp=F
 DIIS: error= 5.22D-03 at cycle   3 NSaved=   3.
 NSaved= 3 IEnMin= 2 EnMin= -706.375033044132     IErMin= 2 ErrMin= 2.76D-03
 ErrMax= 5.22D-03  0.00D+00 EMaxC= 1.00D-01 BMatC= 2.54D-03 BMatP= 1.00D-03
 IDIUse=3 WtCom= 1.22D-01 WtEn= 8.78D-01
 Coeff-Com: -0.680D-02 0.626D+00 0.381D+00
 Coeff-En:   0.000D+00 0.683D+00 0.317D+00
 Coeff:     -0.827D-03 0.676D+00 0.325D+00
 Gap=     0.132 Goal=   None    Shift=    0.000
 RMSDP=3.43D-04 MaxDP=1.22D-02 DE= 1.25D-03 OVMax= 1.89D-02

 Cycle   4  Pass 1  IDiag  1:
 E= -706.375848942619     Delta-E=       -0.002064135089 Rises=F Damp=F
 DIIS: error= 5.83D-04 at cycle   4 NSaved=   4.
 NSaved= 4 IEnMin= 4 EnMin= -706.375848942619     IErMin= 4 ErrMin= 5.83D-04
 ErrMax= 5.83D-04  0.00D+00 EMaxC= 1.00D-01 BMatC= 6.94D-05 BMatP= 1.00D-03
 IDIUse=3 WtCom= 9.94D-01 WtEn= 5.83D-03
 Coeff-Com: -0.213D-01 0.257D+00 0.170D+00 0.594D+00
 Coeff-En:   0.000D+00 0.000D+00 0.000D+00 0.100D+01
 Coeff:     -0.212D-01 0.255D+00 0.169D+00 0.597D+00
 Gap=     0.129 Goal=   None    Shift=    0.000
 RMSDP=1.13D-04 MaxDP=2.46D-03 DE=-2.06D-03 OVMax= 3.18D-03

 Cycle   5  Pass 1  IDiag  1:
 E= -706.375910346088     Delta-E=       -0.000061403469 Rises=F Damp=F
 DIIS: error= 1.31D-04 at cycle   5 NSaved=   5.
 NSaved= 5 IEnMin= 5 EnMin= -706.375910346088     IErMin= 5 ErrMin= 1.31D-04
 ErrMax= 1.31D-04  0.00D+00 EMaxC= 1.00D-01 BMatC= 8.63D-06 BMatP= 6.94D-05
 IDIUse=3 WtCom= 9.99D-01 WtEn= 1.31D-03
 Coeff-Com: -0.574D-02 0.686D-01 0.591D-01 0.286D+00 0.592D+00
 Coeff-En:   0.000D+00 0.000D+00 0.000D+00 0.450D-01 0.955D+00
 Coeff:     -0.573D-02 0.685D-01 0.590D-01 0.286D+00 0.593D+00
 Gap=     0.131 Goal=   None    Shift=    0.000
 RMSDP=5.23D-05 MaxDP=9.49D-04 DE=-6.14D-05 OVMax= 2.89D-03

 Cycle   6  Pass 1  IDiag  1:
 E= -706.375920011937     Delta-E=       -0.000009665849 Rises=F Damp=F
 DIIS: error= 1.05D-04 at cycle   6 NSaved=   6.
 NSaved= 6 IEnMin= 6 EnMin= -706.375920011937     IErMin= 6 ErrMin= 1.05D-04
 ErrMax= 1.05D-04  0.00D+00 EMaxC= 1.00D-01 BMatC= 2.16D-06 BMatP= 8.63D-06
 IDIUse=3 WtCom= 9.99D-01 WtEn= 1.05D-03
 Coeff-Com: -0.237D-02 0.170D-01 0.198D-01 0.119D+00 0.382D+00 0.464D+00
 Coeff-En:   0.000D+00 0.000D+00 0.000D+00 0.000D+00 0.171D+00 0.829D+00
 Coeff:     -0.237D-02 0.169D-01 0.197D-01 0.119D+00 0.382D+00 0.464D+00
 Gap=     0.131 Goal=   None    Shift=    0.000
 RMSDP=1.89D-05 MaxDP=6.89D-04 DE=-9.67D-06 OVMax= 1.11D-03

 Cycle   7  Pass 1  IDiag  1:
 E= -706.375922725966     Delta-E=       -0.000002714028 Rises=F Damp=F
 DIIS: error= 1.73D-05 at cycle   7 NSaved=   7.
 NSaved= 7 IEnMin= 7 EnMin= -706.375922725966     IErMin= 7 ErrMin= 1.73D-05
 ErrMax= 1.73D-05  0.00D+00 EMaxC= 1.00D-01 BMatC= 8.88D-08 BMatP= 2.16D-06
 IDIUse=1 WtCom= 1.00D+00 WtEn= 0.00D+00
 Coeff-Com: -0.208D-03-0.176D-02 0.115D-02 0.211D-01 0.131D+00 0.210D+00
 Coeff-Com:  0.639D+00
 Coeff:     -0.208D-03-0.176D-02 0.115D-02 0.211D-01 0.131D+00 0.210D+00
 Coeff:      0.639D+00
 Gap=     0.130 Goal=   None    Shift=    0.000
 RMSDP=4.75D-06 MaxDP=1.44D-04 DE=-2.71D-06 OVMax= 2.43D-04

 Cycle   8  Pass 1  IDiag  1:
 E= -706.375922823889     Delta-E=       -0.000000097923 Rises=F Damp=F
 DIIS: error= 8.13D-06 at cycle   8 NSaved=   8.
 NSaved= 8 IEnMin= 8 EnMin= -706.375922823889     IErMin= 8 ErrMin= 8.13D-06
 ErrMax= 8.13D-06  0.00D+00 EMaxC= 1.00D-01 BMatC= 1.48D-08 BMatP= 8.88D-08
 IDIUse=1 WtCom= 1.00D+00 WtEn= 0.00D+00
 Coeff-Com:  0.148D-03-0.270D-02-0.225D-02-0.439D-02 0.213D-01 0.281D-01
 Coeff-Com:  0.296D+00 0.664D+00
 Coeff:      0.148D-03-0.270D-02-0.225D-02-0.439D-02 0.213D-01 0.281D-01
 Coeff:      0.296D+00 0.664D+00
 Gap=     0.130 Goal=   None    Shift=    0.000
 RMSDP=1.82D-06 MaxDP=3.87D-05 DE=-9.79D-08 OVMax= 6.58D-05

 Cycle   9  Pass 1  IDiag  1:
 E= -706.375922843236     Delta-E=       -0.000000019347 Rises=F Damp=F
 DIIS: error= 2.05D-06 at cycle   9 NSaved=   9.
 NSaved= 9 IEnMin= 9 EnMin= -706.375922843236     IErMin= 9 ErrMin= 2.05D-06
 ErrMax= 2.05D-06  0.00D+00 EMaxC= 1.00D-01 BMatC= 8.42D-10 BMatP= 1.48D-08
 IDIUse=1 WtCom= 1.00D+00 WtEn= 0.00D+00
 Coeff-Com:  0.589D-04-0.624D-03-0.962D-03-0.273D-02-0.739D-03-0.104D-01
 Coeff-Com:  0.404D-01 0.190D+00 0.785D+00
 Coeff:      0.589D-04-0.624D-03-0.962D-03-0.273D-02-0.739D-03-0.104D-01
 Coeff:      0.404D-01 0.190D+00 0.785D+00
 Gap=     0.130 Goal=   None    Shift=    0.000
 RMSDP=3.51D-07 MaxDP=7.44D-06 DE=-1.93D-08 OVMax= 1.57D-05

 Cycle  10  Pass 1  IDiag  1:
 E= -706.375922844149     Delta-E=       -0.000000000913 Rises=F Damp=F
 DIIS: error= 1.73D-06 at cycle  10 NSaved=  10.
 NSaved=10 IEnMin=10 EnMin= -706.375922844149     IErMin=10 ErrMin= 1.73D-06
 ErrMax= 1.73D-06  0.00D+00 EMaxC= 1.00D-01 BMatC= 2.21D-10 BMatP= 8.42D-10
 IDIUse=1 WtCom= 1.00D+00 WtEn= 0.00D+00
 Coeff-Com:  0.328D-04-0.259D-03-0.512D-03-0.160D-02-0.185D-02-0.890D-02
 Coeff-Com:  0.609D-02 0.799D-01 0.527D+00 0.400D+00
 Coeff:      0.328D-04-0.259D-03-0.512D-03-0.160D-02-0.185D-02-0.890D-02
 Coeff:      0.609D-02 0.799D-01 0.527D+00 0.400D+00
 Gap=     0.130 Goal=   None    Shift=    0.000
 RMSDP=1.25D-07 MaxDP=3.26D-06 DE=-9.13D-10 OVMax= 6.04D-06

 Cycle  11  Pass 1  IDiag  1:
 E= -706.375922844339     Delta-E=       -0.000000000191 Rises=F Damp=F
 DIIS: error= 4.14D-07 at cycle  11 NSaved=  11.
 NSaved=11 IEnMin=11 EnMin= -706.375922844339     IErMin=11 ErrMin= 4.14D-07
 ErrMax= 4.14D-07  0.00D+00 EMaxC= 1.00D-01 BMatC= 1.50D-11 BMatP= 2.21D-10
 IDIUse=1 WtCom= 1.00D+00 WtEn= 0.00D+00
 Coeff-Com:  0.429D-05 0.116D-04-0.600D-04-0.295D-03-0.836D-03-0.275D-02
 Coeff-Com: -0.680D-02 0.491D-02 0.122D+00 0.221D+00 0.663D+00
 Coeff:      0.429D-05 0.116D-04-0.600D-04-0.295D-03-0.836D-03-0.275D-02
 Coeff:     -0.680D-02 0.491D-02 0.122D+00 0.221D+00 0.663D+00
 Gap=     0.130 Goal=   None    Shift=    0.000
 RMSDP=6.26D-08 MaxDP=1.41D-06 DE=-1.91D-10 OVMax= 2.05D-06

 Cycle  12  Pass 1  IDiag  1:
 E= -706.375922844356     Delta-E=       -0.000000000017 Rises=F Damp=F
 DIIS: error= 5.91D-08 at cycle  12 NSaved=  12.
 NSaved=12 IEnMin=12 EnMin= -706.375922844356     IErMin=12 ErrMin= 5.91D-08
 ErrMax= 5.91D-08  0.00D+00 EMaxC= 1.00D-01 BMatC= 8.39D-13 BMatP= 1.50D-11
 IDIUse=1 WtCom= 1.00D+00 WtEn= 0.00D+00
 Coeff-Com: -0.463D-06 0.173D-04 0.176D-04-0.568D-05-0.147D-03-0.182D-03
 Coeff-Com: -0.272D-02-0.263D-02 0.242D-02 0.322D-01 0.224D+00 0.747D+00
 Coeff:     -0.463D-06 0.173D-04 0.176D-04-0.568D-05-0.147D-03-0.182D-03
 Coeff:     -0.272D-02-0.263D-02 0.242D-02 0.322D-01 0.224D+00 0.747D+00
 Gap=     0.130 Goal=   None    Shift=    0.000
 RMSDP=1.42D-08 MaxDP=4.01D-07 DE=-1.73D-11 OVMax= 4.93D-07

 Cycle  13  Pass 1  IDiag  1:
 E= -706.375922844359     Delta-E=       -0.000000000002 Rises=F Damp=F
 DIIS: error= 1.87D-08 at cycle  13 NSaved=  13.
 NSaved=13 IEnMin=13 EnMin= -706.375922844359     IErMin=13 ErrMin= 1.87D-08
 ErrMax= 1.87D-08  0.00D+00 EMaxC= 1.00D-01 BMatC= 8.03D-14 BMatP= 8.39D-13
 IDIUse=1 WtCom= 1.00D+00 WtEn= 0.00D+00
 Coeff-Com: -0.578D-06 0.607D-05 0.126D-04 0.195D-04 0.647D-05 0.163D-03
 Coeff-Com: -0.601D-03-0.113D-02-0.941D-02-0.636D-02 0.439D-01 0.337D+00
 Coeff-Com:  0.636D+00
 Coeff:     -0.578D-06 0.607D-05 0.126D-04 0.195D-04 0.647D-05 0.163D-03
 Coeff:     -0.601D-03-0.113D-02-0.941D-02-0.636D-02 0.439D-01 0.337D+00
 Coeff:      0.636D+00
 Gap=     0.130 Goal=   None    Shift=    0.000
 RMSDP=4.28D-09 MaxDP=8.56D-08 DE=-2.39D-12 OVMax= 1.57D-07

 Error on total polarization charges =  0.02669
 SCF Done:  E(RB3LYP) =  -706.375922844     A.U. after   13 cycles
            NFock= 13  Conv=0.43D-08     -V/T= 2.0060
 KE= 7.021334006281D+02 PE=-2.103116193198D+03 EE= 4.813579505198D+02
 SMD-CDS (non-electrostatic) energy       (kcal/mol) =       0.66
 (included in total energy above)
 Leave Link  502 at Wed Jan  8 01:33:49 2020, MaxMem=  4294967296 cpu:             495.5 elap:              38.2
 (Enter /home/cwagen/sw/g16/g16/l701.exe)
 ... and contract with generalized density number  0.
 Compute integral first derivatives.
 D1PCM: PCM CHGder 1st derivatives, ID1Alg=3 FixD1E=F DoIter=F DoCFld=F I1PDM=0.
 GePol: Maximum number of non-zero 1st derivatives   =     399
 Leave Link  701 at Wed Jan  8 01:33:55 2020, MaxMem=  4294967296 cpu:              75.9 elap:               5.9
 (Enter /home/cwagen/sw/g16/g16/l702.exe)
 L702 exits ... SP integral derivatives will be done elsewhere.
 Leave Link  702 at Wed Jan  8 01:33:55 2020, MaxMem=  4294967296 cpu:               1.1 elap:               0.1
 (Enter /home/cwagen/sw/g16/g16/l703.exe)
 Integral derivatives from FoFJK, PRISM(SPDF).
 Compute integral first derivatives, UseDBF=F ICtDFT=           0.
 Calling FoFJK, ICntrl=      2127 FMM=F ISym2X=0 I1Cent= 0 IOpClX= 0 NMat=1 NMatS=1 NMatT=0.
 FoFJK:  IHMeth= 1 ICntrl=    2127 DoSepK=F KAlg= 0 I1Cent=           0 FoldK=F
 IRaf=         0 NMat=       1 IRICut=       1 DoRegI=T DoRafI=F ISym2E= 0 IDoP0=0 IntGTp=1.
 FoFCou: FMM=F IPFlag=           0 FMFlag=      100000 FMFlg1=         800
         NFxFlg=           0 DoJE=F BraDBF=F KetDBF=F FulRan=T
         wScrn=  0.000000 ICntrl=      2127 IOpCl=  0 I1Cent=           0 NGrid=           0
         NMat0=    1 NMatS0=      1 NMatT0=    0 NMatD0=    1 NMtDS0=    0 NMtDT0=    0
 Symmetry not used in FoFCou.
 Leave Link  703 at Wed Jan  8 01:33:58 2020, MaxMem=  4294967296 cpu:              40.8 elap:               3.3
 (Enter /home/cwagen/sw/g16/g16/l716.exe)
 Dipole        =-2.75477006D+00 3.71448165D+00-8.36181251D-01
 ***** Axes restored to original set *****
 -------------------------------------------------------------------
 Center     Atomic                   Forces (Hartrees/Bohr)
 Number     Number              X              Y              Z
 -------------------------------------------------------------------
      1        6          -0.021714585   -0.039860831   -0.056032308
      2        8           0.007980264    0.036024960    0.055590573
      3        6           0.005446997    0.021798302    0.012711102
      4        1          -0.000351579    0.000056490   -0.002238654
      5        1          -0.000715643    0.002240047   -0.001392044
      6        1           0.001356947    0.001581626   -0.001990565
      7       17           0.016486425   -0.018779354   -0.005599235
      8        6          -0.012889566   -0.004301798   -0.001460946
      9        7           0.004400739    0.001240558    0.000412078
 -------------------------------------------------------------------
 Cartesian Forces:  Max     0.056032308 RMS     0.020369563
 Leave Link  716 at Wed Jan  8 01:33:58 2020, MaxMem=  4294967296 cpu:               1.2 elap:               0.1
 (Enter /home/cwagen/sw/g16/g16/l103.exe)

 GradGradGradGradGradGradGradGradGradGradGradGradGradGradGradGradGradGrad
 Berny optimization.
 Using GEDIIS/GDIIS optimizer.
 FormGI is forming the generalized inverse of G from B-inverse, IUseBI=4.
 Internal  Forces:  Max     0.061141959 RMS     0.015547741
 Search for a local minimum.
 Step number   2 out of a maximum of   41
 All quantities printed in internal units (Hartrees-Bohrs-Radians)
 RMS Force = .15269D-01 SwitMx=.10000D-02 MixMth= 1
 Mixed Optimization -- RFO/linear search
 Update second derivatives using D2CorX and points    1    2
 DE= -3.90D-02 DEPred=-3.04D-02 R= 1.29D+00
 TightC=F SS=  1.41D+00  RLast= 3.18D-01 DXNew= 5.0454D-01 9.5423D-01
 Trust test= 1.29D+00 RLast= 3.18D-01 DXMaxT set to 5.05D-01
 ITU=  1  0
 Use linear search instead of GDIIS.
     Eigenvalues ---    0.00230   0.04746   0.04747   0.05522   0.05598
     Eigenvalues ---    0.06212   0.09749   0.15825   0.16000   0.16016
     Eigenvalues ---    0.17684   0.25000   0.25096   0.26936   0.33923
     Eigenvalues ---    0.33998   0.34278   0.65275   1.221561000.00000
     Eigenvalues --- 1000.000001000.000001000.000001000.000001000.00000
     Eigenvalues --- 1000.000001000.000001000.000001000.000001000.00000
     Eigenvalues --- 1000.00000
 RFO step:  Lambda=-3.01346751D-03 EMin= 2.29999456D-03
 Quartic linear search produced a step of  0.60296.
 Iteration  1 RMS(Cart)=  0.07243437 RMS(Int)=  0.00537169
 Iteration  2 RMS(Cart)=  0.00585605 RMS(Int)=  0.00161967
 Iteration  3 RMS(Cart)=  0.00003041 RMS(Int)=  0.00161950
 Iteration  4 RMS(Cart)=  0.00000014 RMS(Int)=  0.00161950
 Iteration  1 RMS(Cart)=  0.00000000 RMS(Int)=  0.00000000
 ITry= 1 IFail=0 DXMaxC= 1.81D-01 DCOld= 1.00D+10 DXMaxT= 5.05D-01 DXLimC= 3.00D+00 Rises=F
 Variable       Old X    -DE/DX   Delta X   Delta X   Delta X     New X
                                 (Linear)    (Quad)   (Total)
    R1        2.25410  -0.06114  -0.11949   0.01180  -0.10769   2.14642
    R2        2.87865  -0.01349  -0.04002  -0.00748  -0.04751   2.83114
    R3        4.91329  -0.02550   0.00000   0.00000   0.00000   4.91329
    R4        5.48021  -0.00907   0.00000   0.00000   0.00000   5.48021
    R5        2.06331  -0.00207  -0.00603   0.00012  -0.00591   2.05739
    R6        2.07041  -0.00009  -0.00258   0.00378   0.00120   2.07161
    R7        2.06658   0.00025  -0.00127   0.00322   0.00196   2.06854
    R8        2.22178   0.00458   0.00756  -0.00275   0.00481   2.22659
    A1        2.17731   0.04435   0.10892   0.08972   0.19655   2.37385
    A2        1.97114  -0.01522  -0.02890  -0.02473  -0.05758   1.91356
    A3        1.84913  -0.01078  -0.02608  -0.02070  -0.04467   1.80447
    A4        1.88842  -0.01383  -0.02157  -0.04277  -0.06858   1.81984
    A5        1.72893  -0.01013  -0.02594  -0.02647  -0.05206   1.67687
    A6        1.79200  -0.00157  -0.02580   0.01492  -0.01553   1.77648
    A7        1.96699  -0.00008  -0.00421   0.00963   0.00532   1.97232
    A8        1.84706  -0.00316  -0.01951   0.01496  -0.00478   1.84228
    A9        1.86794  -0.00350  -0.02017   0.01341  -0.00698   1.86096
   A10        1.92297   0.00159   0.01170  -0.01139   0.00021   1.92318
   A11        1.92989   0.00192   0.01297  -0.01079   0.00209   1.93198
   A12        1.92675   0.00299   0.01882  -0.01462   0.00379   1.93054
   A13        3.09057   0.00022   0.00011   0.00638   0.00649   3.09707
   A14        2.85706   0.00023   0.00201  -0.00344  -0.00143   2.85563
    D1        3.02165  -0.00282  -0.01414  -0.01193  -0.02713   2.99453
    D2       -1.15876  -0.00298  -0.01519  -0.01060  -0.02694  -1.18570
    D3        0.89639  -0.00279  -0.01372  -0.01357  -0.02825   0.86814
    D4       -0.87623   0.00608   0.03052  -0.00364   0.02600  -0.85023
    D5        1.22654   0.00593   0.02947  -0.00232   0.02619   1.25272
    D6       -3.00150   0.00612   0.03094  -0.00528   0.02487  -2.97662
    D7        0.98493  -0.00324  -0.01585  -0.00911  -0.02303   0.96190
    D8        3.08770  -0.00339  -0.01690  -0.00778  -0.02284   3.06486
    D9       -1.14033  -0.00320  -0.01543  -0.01075  -0.02415  -1.16449
         Item               Value     Threshold  Converged?
 Maximum Force            0.061142     0.000450     NO 
 RMS     Force            0.015269     0.000300     NO 
 Maximum Displacement     0.181077     0.001800     NO 
 RMS     Displacement     0.071079     0.001200     NO 
 Predicted change in Energy=-1.384847D-02
 Lowest energy point so far.  Saving SCF results.
 GradGradGradGradGradGradGradGradGradGradGradGradGradGradGradGradGradGrad

 Leave Link  103 at Wed Jan  8 01:34:02 2020, MaxMem=  4294967296 cpu:              56.9 elap:               3.9
 (Enter /home/cwagen/sw/g16/g16/l202.exe)
                          Input orientation:                          
 ---------------------------------------------------------------------
 Center     Atomic      Atomic             Coordinates (Angstroms)
 Number     Number       Type             X           Y           Z
 ---------------------------------------------------------------------
      1          6           0       -0.232095   -0.431181   -0.308738
      2          8           0       -0.228834   -0.481143   -1.443468
      3          6           0       -0.306455   -1.420827    0.813584
      4          1           0       -0.134195   -0.970760    1.789847
      5          1           0       -1.316255   -1.844774    0.765266
      6          1           0        0.444482   -2.189155    0.603906
      7         17           0       -1.734954    1.540483    0.474815
      8          6           0        2.419433    0.555998    0.327563
      9          7           0        3.556720    0.854610    0.403123
 ---------------------------------------------------------------------
                    Distance matrix (angstroms):
                    1          2          3          4          5
     1  C    0.000000
     2  O    1.135834   0.000000
     3  C    1.498177   2.446081   0.000000
     4  H    2.169053   3.271545   1.088726   0.000000
     5  H    2.080177   2.814336   1.096249   1.791908   0.000000
     6  H    2.093119   2.749982   1.094623   1.796054   1.801341
     7  Cl   2.600000   3.167835   3.305258   3.255470   3.423396
     8  C    2.900000   3.350453   3.402135   3.315159   4.462136
     9  N    4.063880   4.418660   4.502246   4.344863   5.582447
                    6          7          8          9
     6  H    0.000000
     7  Cl   4.321667   0.000000
     8  C    3.393031   4.271981   0.000000
     9  N    4.357849   5.336420   1.178262   0.000000
 Stoichiometry    C3H3ClNO(1-)
 Framework group  C1[X(C3H3ClNO)]
 Deg. of freedom    21
 Full point group                 C1      NOp   1
 RotChk:  IX=0 Diff= 2.95D-02
 Largest Abelian subgroup         C1      NOp   1
 Largest concise Abelian subgroup C1      NOp   1
                         Standard orientation:                         
 ---------------------------------------------------------------------
 Center     Atomic      Atomic             Coordinates (Angstroms)
 Number     Number       Type             X           Y           Z
 ---------------------------------------------------------------------
      1          6           0       -0.228771    0.833736    0.269996
      2          8           0       -0.219992    1.136650    1.364658
      3          6           0       -0.201751    1.548430   -1.046445
      4          1           0       -0.076870    0.875730   -1.893324
      5          1           0       -1.162780    2.071130   -1.116950
      6          1           0        0.624035    2.265234   -0.996764
      7         17           0       -1.926030   -1.103220   -0.087099
      8          6           0        2.307419   -0.531007   -0.069444
      9          7           0        3.408096   -0.951073   -0.050599
 ---------------------------------------------------------------------
 Rotational constants (GHZ):           2.8693846           1.2348272           1.0383232
 Leave Link  202 at Wed Jan  8 01:34:02 2020, MaxMem=  4294967296 cpu:               1.6 elap:               0.2
 (Enter /home/cwagen/sw/g16/g16/l301.exe)
 Standard basis: 6-31+G(d) (6D, 7F)
 Ernie: Thresh=  0.10000D-02 Tol=  0.10000D-05 Strict=F.
 There are   124 symmetry adapted cartesian basis functions of A   symmetry.
 There are   124 symmetry adapted basis functions of A   symmetry.
   124 basis functions,   228 primitive gaussians,   124 cartesian basis functions
    27 alpha electrons       27 beta electrons
       nuclear repulsion energy       216.3172932461 Hartrees.
 IExCor=  402 DFT=T Ex+Corr=B3LYP ExCW=0 ScaHFX=  0.200000
 ScaDFX=  0.800000  0.720000  1.000000  0.810000 ScalE2=  1.000000  1.000000
 IRadAn=      5 IRanWt=     -1 IRanGd=            0 ICorTp=0 IEmpDi=  4
 NAtoms=    9 NActive=    9 NUniq=    9 SFac= 1.00D+00 NAtFMM=   60 NAOKFM=F Big=F
 Integral buffers will be    131072 words long.
 Raffenetti 2 integral format.
 Two-electron integral symmetry is turned on.
 ------------------------------------------------------------------------------
 Polarizable Continuum Model (PCM)
 =================================
 Model                : PCM.
 Atomic radii         : SMD-Coulomb.
 Polarization charges : Total charges.
 Charge compensation  : None.
 Solution method      : On-the-fly selection.
 Cavity type          : VdW (van der Waals Surface) (Alpha=1.000).
 Cavity algorithm     : GePol (No added spheres)
                        Default sphere list used, NSphG=    9.
                        Lebedev-Laikov grids with approx.  5.0 points / Ang**2.
                        Smoothing algorithm: York/Karplus (Gamma=1.0000).
                        Polarization charges: spherical gaussians, with
                                              point-specific exponents (IZeta= 3).
                        Self-potential: point-specific (ISelfS= 7).
                        Self-field    : sphere-specific E.n sum rule (ISelfD= 2).
 1st derivatives      : Analytical E(r).r(x)/FMM algorithm (CHGder, D1EAlg=3).
                        Cavity 1st derivative terms included.
 Solvent              : TetraHydroFuran, Eps=   7.425700 Eps(inf)=   1.974025
 ------------------------------------------------------------------------------
 Spheres list:
 ISph  on   Nord     Re0    Alpha      Xe            Ye            Ze
    1   C      1    1.8500  1.000     -0.228771      0.833736      0.269996
    2   O      2    2.2940  1.000     -0.219992      1.136650      1.364658
    3   C      3    1.8500  1.000     -0.201751      1.548430     -1.046445
    4   H      4    1.2000  1.000     -0.076870      0.875730     -1.893324
    5   H      5    1.2000  1.000     -1.162780      2.071130     -1.116950
    6   H      6    1.2000  1.000      0.624035      2.265234     -0.996764
    7  Cl      7    2.3800  1.000     -1.926030     -1.103220     -0.087099
    8   C      8    1.8500  1.000      2.307419     -0.531007     -0.069444
    9   N      9    1.8900  1.000      3.408096     -0.951073     -0.050599
 ------------------------------------------------------------------------------
 GePol: Number of generator spheres                  =       9
 GePol: Total number of spheres                      =       9
[...]
 All quantities printed in internal units (Hartrees-Bohrs-Radians)
 RMS Force = .12230D-04 SwitMx=.10000D-02 MixMth= 2
 Mixed Optimization -- En-DIIS/RFO-DIIS
 Swapping is turned off.
 Update second derivatives using D2CorX and points   10   11   12   13   14
                                                     15   16   17   18   19
                                                     20   21   22   23   24
                                                     25   27   26   28   29
                                                     30   31   32   33   34
                                                     35   36   37   38   39
                                                     40   41
 DE=  1.40D-05 DEPred=-6.39D-06 R=-2.19D+00
 Trust test=-2.19D+00 RLast= 6.43D-02 DXMaxT set to 5.00D-02
 ITU= -1  1 -1 -1  1 -1 -1  1 -1  0  0 -1  0 -1  0  1  0  0  0  0
 ITU=  0  0  1  0  0  0  1 -1  1  1 -1  1
     Eigenvalues ---   -0.96199  -0.10626   0.00000   0.00014   0.00215
     Eigenvalues ---    0.00343   0.00699   0.02309   0.05482   0.05864
     Eigenvalues ---    0.11851   0.15194   0.15973   0.21162   0.32118
     Eigenvalues ---    0.33753   0.33957   1.05589   1.205651000.00000
     Eigenvalues --- 1000.000001000.000001000.000001000.000001000.00000
     Eigenvalues --- 1000.000001000.000001000.000001000.000001000.00000
     Eigenvalues --- 1000.00000
 Eigenvalue     1 is  -9.62D-01 should be greater than     0.000000 Eigenvector:
                          R2        A4        A5        R1        A3
   1                    0.44758  -0.40179  -0.38812   0.33222   0.32169
                          A2        A8        R6        R7        A7
   1                    0.31316   0.22685  -0.16182  -0.15601  -0.14008
 Eigenvalue     2 is  -1.06D-01 should be greater than     0.000000 Eigenvector:
                          A1        A3        A5        A7        A8
   1                    0.52694  -0.39809   0.28883  -0.24828   0.24064
                          D6        A4        A2        D5        D4
   1                    0.23793  -0.22399  -0.19884   0.17415   0.16077
 Eigenvalue     3 is   2.81D-07 Eigenvector:
                          D2        D1        D3        A13       D8
   1                    0.52246   0.50946   0.49719  -0.24121   0.18300
                          D7        D9        A4        A14       A5
   1                    0.17000   0.15773  -0.13049   0.10290   0.09856
 Use linear search instead of GDIIS.
 RFO step:  Lambda=-9.61989711D-01 EMin=-9.61989708D-01
 I=     1 Eig=   -9.62D-01 Dot1=  7.42D-06
 I=     1 Stepn=  1.25D-01 RXN=   1.25D-01 EDone=F
 I=     2 Eig=   -1.06D-01 Dot1= -3.11D-06
 I=     2 Stepn= -6.25D-02 RXN=   1.40D-01 EDone=F
 Mixed    2 eigenvectors in step.  Raw Step.Grad=  1.05D-05.
 RFO eigenvector is Hessian eigenvector with negative curvature.
 Taking step of  1.40D-01 in eigenvector direction(s).  Step.Grad= -2.78D-06.
 Quartic linear search produced a step of -0.89098.
 Maximum step size (   0.050) exceeded in Quadratic search.
    -- Step size not scaled.
 Iteration  1 RMS(Cart)=  0.07177178 RMS(Int)=  0.00169618
 Iteration  2 RMS(Cart)=  0.00225884 RMS(Int)=  0.00051971
 Iteration  3 RMS(Cart)=  0.00000263 RMS(Int)=  0.00051971
 Iteration  4 RMS(Cart)=  0.00000001 RMS(Int)=  0.00051971
 Iteration  1 RMS(Cart)=  0.00000000 RMS(Int)=  0.00000000
 ITry= 1 IFail=0 DXMaxC= 1.73D-01 DCOld= 1.00D+10 DXMaxT= 5.00D-02 DXLimC= 3.00D+00 Rises=F
 Variable       Old X    -DE/DX   Delta X   Delta X   Delta X     New X
                                 (Linear)    (Quad)   (Total)
    R1        2.16241   0.00001  -0.00037   0.03990   0.03953   2.20194
    R2        2.75207   0.00003   0.00002   0.05486   0.05488   2.80695
    R3        4.91329  -0.01305   0.00000   0.00000   0.00000   4.91329
    R4        5.48021  -0.00051   0.00000   0.00000   0.00000   5.48021
    R5        2.05664   0.00001   0.00038   0.00711   0.00749   2.06413
    R6        2.07277  -0.00002  -0.00062  -0.01554  -0.01616   2.05661
    R7        2.07255  -0.00002  -0.00052  -0.01588  -0.01640   2.05615
    R8        2.22839   0.00001   0.00019  -0.00721  -0.00702   2.22137
    A1        2.67407   0.00001   0.00314  -0.02080  -0.01784   2.65623
    A2        1.86333   0.00001  -0.00185   0.05157   0.04954   1.91287
    A3        1.66423   0.00000  -0.00966   0.06509   0.05482   1.71905
    A4        1.70321  -0.00002   0.00013  -0.03622  -0.03607   1.66714
    A5        1.52497  -0.00001  -0.00184  -0.06657  -0.06908   1.45588
    A6        1.88636   0.00001   0.01898   0.01338   0.03018   1.91654
    A7        1.92667  -0.00002  -0.00221  -0.00199  -0.00420   1.92247
    A8        1.86620   0.00002   0.00156   0.01332   0.01488   1.88108
    A9        1.86711  -0.00001  -0.00053  -0.00022  -0.00075   1.86636
   A10        1.92129   0.00000   0.00028  -0.00744  -0.00715   1.91414
   A11        1.93853   0.00001   0.00003   0.00641   0.00644   1.94497
   A12        1.94205   0.00000   0.00085  -0.00961  -0.00877   1.93328
   A13        3.11964   0.00000  -0.01354   0.00049  -0.01305   3.10659
   A14        2.85424  -0.00001  -0.03832  -0.01287  -0.05118   2.80306
    D1        2.65834   0.00000  -0.01474   0.00597  -0.00868   2.64966
    D2       -1.53504   0.00000  -0.01471   0.00389  -0.01074  -1.54579
    D3        0.54714   0.00000  -0.01318  -0.00052  -0.01361   0.53353
    D4       -0.91227   0.00000  -0.00893  -0.00806  -0.01769  -0.92997
    D5        1.17752  -0.00001  -0.00890  -0.01014  -0.01975   1.15777
    D6       -3.02348   0.00000  -0.00736  -0.01455  -0.02262  -3.04609
    D7        0.97090   0.00001   0.00999  -0.00270   0.00792   0.97881
    D8        3.06069   0.00001   0.01002  -0.00478   0.00586   3.06655
    D9       -1.14031   0.00001   0.01155  -0.00919   0.00299  -1.13732
         Item               Value     Threshold  Converged?
 Maximum Force            0.000034     0.000450     YES
 RMS     Force            0.000012     0.000300     YES
 Maximum Displacement     0.172876     0.001800     NO 
 RMS     Displacement     0.072700     0.001200     NO 
 Predicted change in Energy=-7.703698D-03
 Optimization stopped.
    -- Number of steps exceeded,  NStep=  41
    -- Flag reset to prevent archiving.
                           ----------------------------
                           ! Non-Optimized Parameters !
                           ! (Angstroms and Degrees)  !
 --------------------------                            --------------------------
 ! Name  Definition              Value          Derivative Info.                !
 --------------------------------------------------------------------------------
 ! R1    R(1,2)                  1.1652         -DE/DX =    0.0                 !
 ! R2    R(1,3)                  1.4854         -DE/DX =    0.0                 !
 ! R3    R(1,7)                  2.6            -DE/DX =   -0.013               !
 ! R4    R(1,8)                  2.9            -DE/DX =   -0.0005              !
 ! R5    R(3,4)                  1.0923         -DE/DX =    0.0                 !
 ! R6    R(3,5)                  1.0883         -DE/DX =    0.0                 !
 ! R7    R(3,6)                  1.0881         -DE/DX =    0.0                 !
 ! R8    R(8,9)                  1.1755         -DE/DX =    0.0                 !
 ! A1    A(2,1,3)              152.1906         -DE/DX =    0.0                 !
 ! A2    A(2,1,7)              109.5996         -DE/DX =    0.0                 !
 ! A3    A(2,1,8)               98.4943         -DE/DX =    0.0                 !
 ! A4    A(3,1,7)               95.5199         -DE/DX =    0.0                 !
 ! A5    A(3,1,8)               83.4159         -DE/DX =    0.0                 !
 ! A6    A(7,1,8)              109.8098         -DE/DX =    0.0                 !
 ! A7    A(1,3,4)              110.1495         -DE/DX =    0.0                 !
 ! A8    A(1,3,5)              107.778          -DE/DX =    0.0                 !
 ! A9    A(1,3,6)              106.9344         -DE/DX =    0.0                 !
 ! A10   A(4,3,5)              109.6724         -DE/DX =    0.0                 !
 ! A11   A(4,3,6)              111.4387         -DE/DX =    0.0                 !
 ! A12   A(5,3,6)              110.7688         -DE/DX =    0.0                 !
 ! A13   L(1,8,9,6,-1)         177.9943         -DE/DX =    0.0                 !
 ! A14   L(1,8,9,6,-2)         160.6036         -DE/DX =    0.0                 !
 ! D1    D(2,1,3,4)            151.8144         -DE/DX =    0.0                 !
 ! D2    D(2,1,3,5)            -88.567          -DE/DX =    0.0                 !
 ! D3    D(2,1,3,6)             30.5691         -DE/DX =    0.0                 !
 ! D4    D(7,1,3,4)            -53.2831         -DE/DX =    0.0                 !
 ! D5    D(7,1,3,5)             66.3355         -DE/DX =    0.0                 !
 ! D6    D(7,1,3,6)           -174.5284         -DE/DX =    0.0                 !
 ! D7    D(8,1,3,4)             56.0819         -DE/DX =    0.0                 !
 ! D8    D(8,1,3,5)            175.7004         -DE/DX =    0.0                 !
 ! D9    D(8,1,3,6)            -65.1634         -DE/DX =    0.0                 !
 --------------------------------------------------------------------------------
 Largest change from initial coordinates is atom    4       0.076 Angstoms.
 GradGradGradGradGradGradGradGradGradGradGradGradGradGradGradGradGradGrad

 Leave Link  103 at Wed Jan  8 02:08:45 2020, MaxMem=  4294967296 cpu:              78.8 elap:               5.7
 (Enter /home/cwagen/sw/g16/g16/l202.exe)
                          Input orientation:                          
 ---------------------------------------------------------------------
 Center     Atomic      Atomic             Coordinates (Angstroms)
 Number     Number       Type             X           Y           Z
 ---------------------------------------------------------------------
      1          6           0       -0.284729   -0.478827   -0.380562
      2          8           0       -0.159696   -0.282604   -1.500953
      3          6           0       -0.258631   -1.329597    0.801135
      4          1           0       -0.047654   -0.737837    1.689824
      5          1           0       -1.249667   -1.792411    0.883356
      6          1           0        0.520219   -2.083813    0.635599
      7         17           0       -1.971967    1.289271    0.506602
      8          6           0        2.387347    0.383486    0.344989
      9          7           0        3.532625    0.645583    0.445907
 ---------------------------------------------------------------------
                    Distance matrix (angstroms):
                    1          2          3          4          5
     1  C    0.000000
     2  O    1.144296   0.000000
     3  C    1.456331   2.530928   0.000000
     4  H    2.099950   3.225034   1.088328   0.000000
     5  H    2.062546   3.025308   1.096864   1.790908   0.000000
     6  H    2.063130   2.876020   1.096746   1.801533   1.810744
     7  Cl   2.600000   3.128162   3.143364   3.035154   3.187542
     8  C    2.900000   3.215370   3.184952   2.999195   4.272264
     9  N    4.064425   4.276100   4.289656   4.034796   5.385676
                    6          7          8          9
     6  H    0.000000
     7  Cl   4.195870   0.000000
     8  C    3.107762   4.455354   0.000000
     9  N    4.069420   5.542432   1.179213   0.000000
 Stoichiometry    C3H3ClNO(1-)
 Framework group  C1[X(C3H3ClNO)]
 Deg. of freedom    21
 Full point group                 C1      NOp   1
 RotChk:  IX=0 Diff= 3.45D-15
 Largest Abelian subgroup         C1      NOp   1
 Largest concise Abelian subgroup C1      NOp   1
                         Standard orientation:                         
 ---------------------------------------------------------------------
 Center     Atomic      Atomic             Coordinates (Angstroms)
 Number     Number       Type             X           Y           Z
 ---------------------------------------------------------------------
      1          6           0       -0.198769    0.846690    0.267458
      2          8           0       -0.089214    1.005906    1.395314
      3          6           0       -0.079224    1.265379   -1.122258
      4          1           0        0.050820    0.399906   -1.769176
      5          1           0       -1.007268    1.790975   -1.378371
      6          1           0        0.786919    1.935562   -1.181433
      7         17           0       -2.095831   -0.900414   -0.062363
      8          6           0        2.342474   -0.511027   -0.062221
      9          7           0        3.446497   -0.924700   -0.038749
 ---------------------------------------------------------------------
 Rotational constants (GHZ):           3.4147776           1.1461588           1.0458159
 Leave Link  202 at Wed Jan  8 02:08:45 2020, MaxMem=  4294967296 cpu:               2.7 elap:               0.3
 (Enter /home/cwagen/sw/g16/g16/l601.exe)
 Copying SCF densities to generalized density rwf, IOpCl= 0 IROHF=0.

 **********************************************************************

            Population analysis using the SCF density.

 **********************************************************************

 Orbital symmetries:
       Occupied  (A) (A) (A) (A) (A) (A) (A) (A) (A) (A) (A) (A)
                 (A) (A) (A) (A) (A) (A) (A) (A) (A) (A) (A) (A)
                 (A) (A) (A)
       Virtual   (A) (A) (A) (A) (A) (A) (A) (A) (A) (A) (A) (A)
                 (A) (A) (A) (A) (A) (A) (A) (A) (A) (A) (A) (A)
                 (A) (A) (A) (A) (A) (A) (A) (A) (A) (A) (A) (A)
                 (A) (A) (A) (A) (A) (A) (A) (A) (A) (A) (A) (A)
                 (A) (A) (A) (A) (A) (A) (A) (A) (A) (A) (A) (A)
                 (A) (A) (A) (A) (A) (A) (A) (A) (A) (A) (A) (A)
                 (A) (A) (A) (A) (A) (A) (A) (A) (A) (A) (A) (A)
                 (A) (A) (A) (A) (A) (A) (A) (A) (A) (A) (A) (A)
                 (A)
 The electronic state is 1-A.
 Alpha  occ. eigenvalues -- -101.45378 -19.26756 -14.26599 -10.38594 -10.23191
 Alpha  occ. eigenvalues --  -10.13154  -9.36725  -7.12712  -7.12402  -7.12385
 Alpha  occ. eigenvalues --   -1.17260  -0.82200  -0.80254  -0.70557  -0.57805
 Alpha  occ. eigenvalues --   -0.50963  -0.50427  -0.49940  -0.42574  -0.42310
 Alpha  occ. eigenvalues --   -0.35749  -0.27173  -0.27154  -0.25538  -0.24518
 Alpha  occ. eigenvalues --   -0.24326  -0.24030
 Alpha virt. eigenvalues --   -0.06815  -0.04702   0.02347   0.04628   0.05004
 Alpha virt. eigenvalues --    0.05158   0.07488   0.07873   0.08679   0.09617
 Alpha virt. eigenvalues --    0.09817   0.11135   0.11410   0.12533   0.13125
 Alpha virt. eigenvalues --    0.13598   0.13892   0.16017   0.16498   0.18368
 Alpha virt. eigenvalues --    0.21104   0.21861   0.23939   0.24758   0.25511
 Alpha virt. eigenvalues --    0.25807   0.27370   0.28047   0.30956   0.32485
 Alpha virt. eigenvalues --    0.35372   0.38928   0.48285   0.50955   0.62700
 Alpha virt. eigenvalues --    0.63174   0.66164   0.67853   0.68236   0.70611
 Alpha virt. eigenvalues --    0.73159   0.75071   0.75810   0.79242   0.79487
 Alpha virt. eigenvalues --    0.82247   0.86950   0.93882   0.95767   0.96118
 Alpha virt. eigenvalues --    0.96436   0.96632   0.99273   1.00229   1.02305
 Alpha virt. eigenvalues --    1.02618   1.05552   1.14162   1.16109   1.19086
 Alpha virt. eigenvalues --    1.23447   1.25129   1.26758   1.38211   1.39555
 Alpha virt. eigenvalues --    1.44338   1.50168   1.52330   1.60259   1.60950
 Alpha virt. eigenvalues --    1.61077   1.63537   1.64086   1.80484   1.81517
 Alpha virt. eigenvalues --    1.82250   1.97446   2.02796   2.03031   2.04142
 Alpha virt. eigenvalues --    2.23141   2.23782   2.31220   2.51101   2.66155
 Alpha virt. eigenvalues --    2.66210   2.67001   2.70647   2.93931   3.07562
 Alpha virt. eigenvalues --    3.21157   4.00653   4.17098   4.28791   4.29571
 Alpha virt. eigenvalues --    4.39066   4.51647
          Condensed to atoms (all electrons):
               1          2          3          4          5          6
     1  C    5.045646   0.489534  -0.110498  -0.057525  -0.036978  -0.066997
     2  O    0.489534   7.765662  -0.012062   0.004438  -0.000793  -0.000273
     3  C   -0.110498  -0.012062   5.852909   0.396952   0.352781   0.385343
     4  H   -0.057525   0.004438   0.396952   0.373227  -0.017422  -0.017819
     5  H   -0.036978  -0.000793   0.352781  -0.017422   0.411139  -0.019956
     6  H   -0.066997  -0.000273   0.385343  -0.017819  -0.019956   0.417882
     7  Cl   0.032209  -0.039588   0.003040  -0.004423  -0.006612   0.006266
     8  C    0.136528  -0.052090  -0.173249  -0.011202   0.010511  -0.008302
     9  N   -0.005027   0.000614  -0.000030  -0.000074  -0.000043  -0.000284
               7          8          9
     1  C    0.032209   0.136528  -0.005027
     2  O   -0.039588  -0.052090   0.000614
     3  C    0.003040  -0.173249  -0.000030
     4  H   -0.004423  -0.011202  -0.000074
     5  H   -0.006612   0.010511  -0.000043
     6  H    0.006266  -0.008302  -0.000284
     7  Cl  17.745841  -0.039681  -0.000484
     8  C   -0.039681   5.798238   0.654155
     9  N   -0.000484   0.654155   7.007542
 Mulliken charges:
               1
     1  C    0.573109
     2  O   -0.155441
     3  C   -0.695186
     4  H    0.333847
     5  H    0.307374
     6  H    0.304141
     7  Cl  -0.696567
     8  C   -0.314909
     9  N   -0.656369
 Sum of Mulliken charges =  -1.00000
 Mulliken charges with hydrogens summed into heavy atoms:
               1
     1  C    0.573109
     2  O   -0.155441
     3  C    0.250177
     7  Cl  -0.696567
     8  C   -0.314909
     9  N   -0.656369
 Electronic spatial extent (au):  <R**2>=           1121.1315
 Charge=             -1.0000 electrons
 Dipole moment (field-independent basis, Debye):
    X=             -6.1865    Y=              9.7160    Z=             -2.3458  Tot=             11.7549
 Quadrupole moment (field-independent basis, Debye-Ang):
   XX=           -103.2389   YY=            -47.5183   ZZ=            -44.6897
   XY=              4.0371   XZ=              0.4034   YZ=             -3.7586
 Traceless Quadrupole moment (field-independent basis, Debye-Ang):
   XX=            -38.0899   YY=             17.6307   ZZ=             20.4593
   XY=              4.0371   XZ=              0.4034   YZ=             -3.7586
 Octapole moment (field-independent basis, Debye-Ang**2):
  XXX=           -132.7410  YYY=             31.4981  ZZZ=             -2.5820  XYY=            -12.4354
  XXY=             59.5844  XXZ=              3.1062  XZZ=             -6.6264  YZZ=              8.1565
  YYZ=             -3.7025  XYZ=              0.2458
 Hexadecapole moment (field-independent basis, Debye-Ang**3):
 XXXX=          -1800.9823 YYYY=           -301.6501 ZZZZ=           -180.2272 XXXY=            124.1466
 XXXZ=              5.8853 YYYX=             18.3403 YYYZ=             -6.7277 ZZZX=              1.3526
 ZZZY=             -3.4630 XXYY=           -297.3445 XXZZ=           -234.8698 YYZZ=            -78.5746
 XXYZ=             -4.0452 YYXZ=              1.0161 ZZXY=              2.6558
 N-N= 2.182404691515D+02 E-N=-2.113160863197D+03  KE= 7.024003823523D+02
 No NMR shielding tensors so no spin-rotation constants.
 Leave Link  601 at Wed Jan  8 02:08:46 2020, MaxMem=  4294967296 cpu:              15.7 elap:               1.2
 (Enter /home/cwagen/sw/g16/g16/l9999.exe)


 YOU CAN WIPE THE SLATE CLEAN, BUT YOU'LL STILL
 HAVE TO EAT A LITTLE CHALK DUST.
 Error termination request processed by link 9999.
 Error termination via Lnk1e in /home/cwagen/sw/g16/g16/l9999.exe at Wed Jan  8 02:08:47 2020.
 Job cpu time:       0 days  7 hours 43 minutes  1.5 seconds.
 Elapsed time:       0 days  0 hours 36 minutes 24.3 seconds.
 File lengths (MBytes):  RWF=     43 Int=      0 D2E=      0 Chk=      3 Scr=      1
