 Entering Gaussian System, Link 0=g16
 Input=starting_TS.gjf
 Output=starting_TS.out
 Initial command:
 /home/cwagen/sw/g16/g16/l1.exe "/scratch/users/cwagen/cwagen_starting_TS/Gau-41849.inp" -scrdir="/scratch/users/cwagen/cwagen_starting_TS/"
 Entering Link 1 = /home/cwagen/sw/g16/g16/l1.exe PID=     41850.
  
 Copyright (c) 1988,1990,1992,1993,1995,1998,2003,2009,2016,
            Gaussian, Inc.  All Rights Reserved.
  
 This is part of the Gaussian(R) 16 program.  It is based on
 the Gaussian(R) 09 system (copyright 2009, Gaussian, Inc.),
 the Gaussian(R) 03 system (copyright 2003, Gaussian, Inc.),
 the Gaussian(R) 98 system (copyright 1998, Gaussian, Inc.),
 the Gaussian(R) 94 system (copyright 1995, Gaussian, Inc.),
 the Gaussian 92(TM) system (copyright 1992, Gaussian, Inc.),
 the Gaussian 90(TM) system (copyright 1990, Gaussian, Inc.),
 the Gaussian 88(TM) system (copyright 1988, Gaussian, Inc.),
 the Gaussian 86(TM) system (copyright 1986, Carnegie Mellon
 University), and the Gaussian 82(TM) system (copyright 1983,
 Carnegie Mellon University). Gaussian is a federally registered
 trademark of Gaussian, Inc.
  
 This software contains proprietary and confidential information,
 including trade secrets, belonging to Gaussian, Inc.
  
 This software is provided under written license and may be
 used, copied, transmitted, or stored only in accord with that
 written license.
  
 The following legend is applicable only to US Government
 contracts under FAR:
  
                    RESTRICTED RIGHTS LEGEND
  
 Use, reproduction and disclosure by the US Government is
 subject to restrictions as set forth in subparagraphs (a)
 and (c) of the Commercial Computer Software - Restricted
 Rights clause in FAR 52.227-19.
  
 Gaussian, Inc.
 340 Quinnipiac St., Bldg. 40, Wallingford CT 06492
  
  
 ---------------------------------------------------------------
 Warning -- This program may not be used in any manner that
 competes with the business of Gaussian, Inc. or will provide
 assistance to any competitor of Gaussian, Inc.  The licensee
 of this program is prohibited from giving any competitor of
 Gaussian, Inc. access to this program.  By using this program,
 the user acknowledges that Gaussian, Inc. is engaged in the
 business of creating and licensing software in the field of
 computational chemistry and represents and warrants to the
 licensee that it is not a competitor of Gaussian, Inc. and that
 it will not use this program in any manner prohibited above.
 ---------------------------------------------------------------
  

 Cite this work as:
 Gaussian 16, Revision A.03,
 M. J. Frisch, G. W. Trucks, H. B. Schlegel, G. E. Scuseria, 
 M. A. Robb, J. R. Cheeseman, G. Scalmani, V. Barone, 
 G. A. Petersson, H. Nakatsuji, X. Li, M. Caricato, A. V. Marenich, 
 J. Bloino, B. G. Janesko, R. Gomperts, B. Mennucci, H. P. Hratchian, 
 J. V. Ortiz, A. F. Izmaylov, J. L. Sonnenberg, D. Williams-Young, 
 F. Ding, F. Lipparini, F. Egidi, J. Goings, B. Peng, A. Petrone, 
 T. Henderson, D. Ranasinghe, V. G. Zakrzewski, J. Gao, N. Rega, 
 G. Zheng, W. Liang, M. Hada, M. Ehara, K. Toyota, R. Fukuda, 
 J. Hasegawa, M. Ishida, T. Nakajima, Y. Honda, O. Kitao, H. Nakai, 
 T. Vreven, K. Throssell, J. A. Montgomery, Jr., J. E. Peralta, 
 F. Ogliaro, M. J. Bearpark, J. J. Heyd, E. N. Brothers, K. N. Kudin, 
 V. N. Staroverov, T. A. Keith, R. Kobayashi, J. Normand, 
 K. Raghavachari, A. P. Rendell, J. C. Burant, S. S. Iyengar, 
 J. Tomasi, M. Cossi, J. M. Millam, M. Klene, C. Adamo, R. Cammi, 
 J. W. Ochterski, R. L. Martin, K. Morokuma, O. Farkas, 
 J. B. Foresman, and D. J. Fox, Gaussian, Inc., Wallingford CT, 2016.
 
 ******************************************
 Gaussian 16:  AS64L-G16RevA.03 25-Dec-2016
                 9-Jan-2020 
 ******************************************
 %nprocshared=16
 Will use up to   16 processors via shared memory.
 %mem=32GB
 ----------------------------------------------------------
 #p opt=(calcfc,ts,noeigentest) freq=noraman m062x/6-31g(d)
 ----------------------------------------------------------
 1/5=1,10=4,11=1,18=20,26=3,38=1/1,3;
 2/9=110,12=2,17=6,18=5,40=1/2;
 3/5=1,6=6,7=1,11=2,25=1,30=1,71=2,74=-55,140=1/1,2,3;
 4//1;
 5/5=2,38=5/2;
 8/6=4,10=90,11=11/1;
 11/6=1,8=1,9=11,15=111,16=1/1,2,10;
 10/6=1,13=1/2;
 6/7=2,8=2,9=2,10=2,28=1/1;
 7/10=1,18=20,25=1/1,2,3,16;
 1/5=1,10=4,11=1,18=20,26=3/3(2);
 2/9=110/2;
 99//99;
 2/9=110/2;
 3/5=1,6=6,7=1,11=2,25=1,30=1,71=1,74=-55/1,2,3;
 4/5=5,16=3,69=1/1;
 5/5=2,38=5/2;
 7//1,2,3,16;
 1/5=1,11=1,18=20,26=3/3(-5);
 2/9=110/2;
 6/7=2,8=2,9=2,10=2,19=2,28=1/1;
 99/9=1/99;
 Leave Link    1 at Thu Jan  9 14:31:22 2020, MaxMem=  4294967296 cpu:               1.2 elap:               0.1
 (Enter /home/cwagen/sw/g16/g16/l101.exe)
 -----
 title
 -----
 Symbolic Z-matrix:
 Charge =  0 Multiplicity = 1
 C                    -1.00059   0.22102   0.46554 
 C                    -1.87971  -0.29851  -0.66398 
 H                    -1.39334   0.01663   1.47216 
 H                    -2.76961   0.3389   -0.74029 
 H                    -1.35288  -0.24268  -1.62147 
 H                    -2.208    -1.32901  -0.49137 
 O                    -0.44394   1.38313   0.3149 
 C                     0.4292   -1.13552   0.69481 
 C                     1.24484  -0.73644  -0.36949 
 H                    -0.08014  -2.0947    0.64398 
 H                     0.73162  -0.83863   1.69722 
 C                     1.87889   0.5227   -0.34339 
 H                     1.0914   -1.21478  -1.33701 
 H                     2.42513   0.84454  -1.22843 
 H                     0.73704   1.17519  -0.2114 
 H                     2.33458   0.83994   0.59653 
 
 Add virtual bond connecting atoms H15        and O7         Dist= 2.47D+00.
 Add virtual bond connecting atoms H15        and C12        Dist= 2.50D+00.
 ITRead=  0  0  0  0  0  0  0  0  0  0  0  0  0  0  0  0
 MicOpt= -1 -1 -1 -1 -1 -1 -1 -1 -1 -1 -1 -1 -1 -1 -1 -1
 NAtoms=     16 NQM=       16 NQMF=       0 NMMI=      0 NMMIF=      0
                NMic=       0 NMicF=      0.
                    Isotopes and Nuclear Properties:
 (Nuclear quadrupole moments (NQMom) in fm**2, nuclear magnetic moments (NMagM)
  in nuclear magnetons)

  Atom         1           2           3           4           5           6           7           8           9          10
 IAtWgt=          12          12           1           1           1           1          16          12          12           1
 AtmWgt=  12.0000000  12.0000000   1.0078250   1.0078250   1.0078250   1.0078250  15.9949146  12.0000000  12.0000000   1.0078250
 NucSpn=           0           0           1           1           1           1           0           0           0           1
 AtZEff=   0.0000000   0.0000000   0.0000000   0.0000000   0.0000000   0.0000000   0.0000000   0.0000000   0.0000000   0.0000000
 NQMom=    0.0000000   0.0000000   0.0000000   0.0000000   0.0000000   0.0000000   0.0000000   0.0000000   0.0000000   0.0000000
 NMagM=    0.0000000   0.0000000   2.7928460   2.7928460   2.7928460   2.7928460   0.0000000   0.0000000   0.0000000   2.7928460
 AtZNuc=   6.0000000   6.0000000   1.0000000   1.0000000   1.0000000   1.0000000   8.0000000   6.0000000   6.0000000   1.0000000

  Atom        11          12          13          14          15          16
 IAtWgt=           1          12           1           1           1           1
 AtmWgt=   1.0078250  12.0000000   1.0078250   1.0078250   1.0078250   1.0078250
 NucSpn=           1           0           1           1           1           1
 AtZEff=   0.0000000   0.0000000   0.0000000   0.0000000   0.0000000   0.0000000
 NQMom=    0.0000000   0.0000000   0.0000000   0.0000000   0.0000000   0.0000000
 NMagM=    2.7928460   0.0000000   2.7928460   2.7928460   2.7928460   2.7928460
 AtZNuc=   1.0000000   6.0000000   1.0000000   1.0000000   1.0000000   1.0000000
 Leave Link  101 at Thu Jan  9 14:31:23 2020, MaxMem=  4294967296 cpu:               7.3 elap:               0.6
 (Enter /home/cwagen/sw/g16/g16/l103.exe)

 GradGradGradGradGradGradGradGradGradGradGradGradGradGradGradGradGradGrad
 Berny optimization.
 Initialization pass.
                           ----------------------------
                           !    Initial Parameters    !
                           ! (Angstroms and Degrees)  !
 --------------------------                            --------------------------
 ! Name  Definition              Value          Derivative Info.                !
 --------------------------------------------------------------------------------
 ! R1    R(1,2)                  1.5227         calculate D2E/DX2 analytically  !
 ! R2    R(1,3)                  1.0997         calculate D2E/DX2 analytically  !
 ! R3    R(1,7)                  1.2973         calculate D2E/DX2 analytically  !
 ! R4    R(2,4)                  1.0973         calculate D2E/DX2 analytically  !
 ! R5    R(2,5)                  1.0943         calculate D2E/DX2 analytically  !
 ! R6    R(2,6)                  1.0952         calculate D2E/DX2 analytically  !
 ! R7    R(7,15)                 1.3096         calculate D2E/DX2 analytically  !
 ! R8    R(8,9)                  1.399          calculate D2E/DX2 analytically  !
 ! R9    R(8,10)                 1.0872         calculate D2E/DX2 analytically  !
 ! R10   R(8,11)                 1.0883         calculate D2E/DX2 analytically  !
 ! R11   R(9,12)                 1.41           calculate D2E/DX2 analytically  !
 ! R12   R(9,13)                 1.0902         calculate D2E/DX2 analytically  !
 ! R13   R(12,14)                1.0887         calculate D2E/DX2 analytically  !
 ! R14   R(12,15)                1.3217         calculate D2E/DX2 analytically  !
 ! R15   R(12,16)                1.0917         calculate D2E/DX2 analytically  !
 ! A1    A(2,1,3)              114.1671         calculate D2E/DX2 analytically  !
 ! A2    A(2,1,7)              117.8537         calculate D2E/DX2 analytically  !
 ! A3    A(3,1,7)              115.2159         calculate D2E/DX2 analytically  !
 ! A4    A(1,2,4)              108.7608         calculate D2E/DX2 analytically  !
 ! A5    A(1,2,5)              110.7138         calculate D2E/DX2 analytically  !
 ! A6    A(1,2,6)              112.159          calculate D2E/DX2 analytically  !
 ! A7    A(4,2,5)              107.4557         calculate D2E/DX2 analytically  !
 ! A8    A(4,2,6)              108.3265         calculate D2E/DX2 analytically  !
 ! A9    A(5,2,6)              109.2819         calculate D2E/DX2 analytically  !
 ! A10   A(1,7,15)             106.9403         calculate D2E/DX2 analytically  !
 ! A11   A(9,8,10)             119.29           calculate D2E/DX2 analytically  !
 ! A12   A(9,8,11)             117.4431         calculate D2E/DX2 analytically  !
 ! A13   A(10,8,11)            114.4509         calculate D2E/DX2 analytically  !
 ! A14   A(8,9,12)             120.187          calculate D2E/DX2 analytically  !
 ! A15   A(8,9,13)             117.9002         calculate D2E/DX2 analytically  !
 ! A16   A(12,9,13)            118.1347         calculate D2E/DX2 analytically  !
 ! A17   A(9,12,14)            118.3313         calculate D2E/DX2 analytically  !
 ! A18   A(9,12,15)             93.1078         calculate D2E/DX2 analytically  !
 ! A19   A(9,12,16)            117.5901         calculate D2E/DX2 analytically  !
 ! A20   A(14,12,15)           111.6353         calculate D2E/DX2 analytically  !
 ! A21   A(14,12,16)           113.8652         calculate D2E/DX2 analytically  !
 ! A22   A(15,12,16)            97.5372         calculate D2E/DX2 analytically  !
 ! A23   A(7,15,12)            153.8445         calculate D2E/DX2 analytically  !
 ! D1    D(3,1,2,4)             73.1992         calculate D2E/DX2 analytically  !
 ! D2    D(3,1,2,5)           -168.9523         calculate D2E/DX2 analytically  !
 ! D3    D(3,1,2,6)            -46.5952         calculate D2E/DX2 analytically  !
 ! D4    D(7,1,2,4)            -66.7319         calculate D2E/DX2 analytically  !
 ! D5    D(7,1,2,5)             51.1166         calculate D2E/DX2 analytically  !
 ! D6    D(7,1,2,6)            173.4737         calculate D2E/DX2 analytically  !
 ! D7    D(2,1,7,15)           -92.184          calculate D2E/DX2 analytically  !
 ! D8    D(3,1,7,15)           128.2935         calculate D2E/DX2 analytically  !
 ! D9    D(1,7,15,12)          -40.3265         calculate D2E/DX2 analytically  !
 ! D10   D(10,8,9,12)          177.8901         calculate D2E/DX2 analytically  !
 ! D11   D(10,8,9,13)           20.1798         calculate D2E/DX2 analytically  !
 ! D12   D(11,8,9,12)          -36.4132         calculate D2E/DX2 analytically  !
 ! D13   D(11,8,9,13)          165.8765         calculate D2E/DX2 analytically  !
 ! D14   D(8,9,12,14)         -173.9813         calculate D2E/DX2 analytically  !
 ! D15   D(8,9,12,15)          -57.3172         calculate D2E/DX2 analytically  !
 ! D16   D(8,9,12,16)           42.854          calculate D2E/DX2 analytically  !
 ! D17   D(13,9,12,14)         -16.3223         calculate D2E/DX2 analytically  !
 ! D18   D(13,9,12,15)         100.3419         calculate D2E/DX2 analytically  !
 ! D19   D(13,9,12,16)        -159.4869         calculate D2E/DX2 analytically  !
 ! D20   D(9,12,15,7)           46.146          calculate D2E/DX2 analytically  !
 ! D21   D(14,12,15,7)         168.3425         calculate D2E/DX2 analytically  !
 ! D22   D(16,12,15,7)         -72.2167         calculate D2E/DX2 analytically  !
 --------------------------------------------------------------------------------
 Trust Radius=3.00D-01 FncErr=1.00D-07 GrdErr=1.00D-06 EigMax=2.50D+02 EigMin=1.00D-04
 Number of steps in this run=     70 maximum allowed number of steps=    100.
 Search for a saddle point of order  1.
 GradGradGradGradGradGradGradGradGradGradGradGradGradGradGradGradGradGrad

 Leave Link  103 at Thu Jan  9 14:31:23 2020, MaxMem=  4294967296 cpu:               0.9 elap:               0.1
 (Enter /home/cwagen/sw/g16/g16/l202.exe)
                          Input orientation:                          
 ---------------------------------------------------------------------
 Center     Atomic      Atomic             Coordinates (Angstroms)
 Number     Number       Type             X           Y           Z
 ---------------------------------------------------------------------
      1          6           0       -1.000590    0.221022    0.465543
      2          6           0       -1.879714   -0.298506   -0.663983
      3          1           0       -1.393344    0.016630    1.472161
      4          1           0       -2.769610    0.338897   -0.740286
      5          1           0       -1.352884   -0.242678   -1.621470
      6          1           0       -2.208005   -1.329011   -0.491372
      7          8           0       -0.443942    1.383133    0.314895
      8          6           0        0.429198   -1.135518    0.694806
      9          6           0        1.244844   -0.736436   -0.369486
     10          1           0       -0.080143   -2.094698    0.643978
     11          1           0        0.731620   -0.838629    1.697218
     12          6           0        1.878888    0.522695   -0.343394
     13          1           0        1.091399   -1.214778   -1.337014
     14          1           0        2.425127    0.844537   -1.228428
     15          1           0        0.737036    1.175191   -0.211400
     16          1           0        2.334578    0.839937    0.596534
 ---------------------------------------------------------------------
                    Distance matrix (angstroms):
                    1          2          3          4          5
     1  C    0.000000
     2  C    1.522694   0.000000
     3  H    1.099687   2.213363   0.000000
     4  H    2.144143   1.097278   2.625431   0.000000
     5  H    2.166738   1.094280   3.104743   1.766869   0.000000
     6  H    2.185438   1.095221   2.515926   1.777435   1.785630
     7  O    1.297326   2.418171   2.026810   2.759088   2.686810
     8  C    1.984202   2.806772   2.292026   3.803388   3.055833
     9  C    2.579917   3.168813   3.304362   4.172490   2.925654
    10  H    2.498324   2.859287   2.620704   3.882242   3.190941
    11  H    2.374960   3.561751   2.301650   4.425676   3.964089
    12  C    3.006124   3.860601   3.776221   4.669030   3.558599
    13  H    3.112419   3.181201   3.947376   4.204448   2.645829
    14  H    3.872189   4.489633   4.749666   5.242065   3.950935
    15  H    2.094764   3.037103   2.952145   3.643580   2.892476
    16  H    3.394637   4.543700   3.916881   5.300082   4.437226
                    6          7          8          9         10
     6  H    0.000000
     7  O    3.334323   0.000000
     8  C    2.898154   2.692640   0.000000
     9  C    3.505448   2.795165   1.399022   0.000000
    10  H    2.530433   3.512258   1.087216   2.151180   0.000000
    11  H    3.697539   2.868621   1.088316   2.131926   1.829203
    12  C    4.489255   2.563052   2.434981   1.410001   3.415180
    13  H    3.407965   3.440235   2.138477   1.090168   2.463960
    14  H    5.170442   3.302043   3.406344   2.151819   4.292014
    15  H    3.875910   1.309555   2.501070   1.984232   3.477302
    16  H    5.150042   2.845093   2.746371   2.146082   3.800686
                   11         12         13         14         15
    11  H    0.000000
    12  C    2.708048   0.000000
    13  H    3.078554   2.150868   0.000000
    14  H    3.776297   1.088689   2.455891   0.000000
    15  H    2.774585   1.321741   2.665433   1.998332   0.000000
    16  H    2.568767   1.091678   3.083173   1.827213   1.821344
                   16
    16  H    0.000000
 Stoichiometry    C5H10O
 Framework group  C1[X(C5H10O)]
 Deg. of freedom    42
 Full point group                 C1      NOp   1
 Largest Abelian subgroup         C1      NOp   1
 Largest concise Abelian subgroup C1      NOp   1
                         Standard orientation:                         
 ---------------------------------------------------------------------
 Center     Atomic      Atomic             Coordinates (Angstroms)
 Number     Number       Type             X           Y           Z
 ---------------------------------------------------------------------
      1          6           0        1.000590   -0.221022    0.465543
      2          6           0        1.879714    0.298506   -0.663983
      3          1           0        1.393344   -0.016630    1.472161
      4          1           0        2.769610   -0.338897   -0.740286
      5          1           0        1.352884    0.242678   -1.621470
      6          1           0        2.208005    1.329011   -0.491372
      7          8           0        0.443942   -1.383133    0.314895
      8          6           0       -0.429198    1.135518    0.694806
      9          6           0       -1.244844    0.736436   -0.369486
     10          1           0        0.080143    2.094698    0.643978
     11          1           0       -0.731620    0.838629    1.697218
     12          6           0       -1.878888   -0.522695   -0.343394
     13          1           0       -1.091399    1.214778   -1.337014
     14          1           0       -2.425127   -0.844537   -1.228428
     15          1           0       -0.737036   -1.175191   -0.211400
     16          1           0       -2.334578   -0.839937    0.596534
 ---------------------------------------------------------------------
 Rotational constants (GHZ):           5.0814135           2.7737595           2.2995771
 Leave Link  202 at Thu Jan  9 14:31:23 2020, MaxMem=  4294967296 cpu:               1.5 elap:               0.2
 (Enter /home/cwagen/sw/g16/g16/l301.exe)
 Standard basis: 6-31G(d) (6D, 7F)
 Ernie: Thresh=  0.10000D-02 Tol=  0.10000D-05 Strict=F.
 There are   110 symmetry adapted cartesian basis functions of A   symmetry.
 There are   110 symmetry adapted basis functions of A   symmetry.
   110 basis functions,   208 primitive gaussians,   110 cartesian basis functions
    24 alpha electrons       24 beta electrons
       nuclear repulsion energy       245.3244816389 Hartrees.
 IExCor= 4336 DFT=T Ex+Corr=M062X ExCW=0 ScaHFX=  0.540000
 ScaDFX=  1.000000  1.000000  1.000000  1.000000 ScalE2=  1.000000  1.000000
 IRadAn=      5 IRanWt=     -1 IRanGd=            0 ICorTp=0 IEmpDi=  4
 NAtoms=   16 NActive=   16 NUniq=   16 SFac= 1.00D+00 NAtFMM=   60 NAOKFM=F Big=F
 Integral buffers will be    131072 words long.
 Raffenetti 2 integral format.
 Two-electron integral symmetry is turned on.
 Leave Link  301 at Thu Jan  9 14:31:24 2020, MaxMem=  4294967296 cpu:               1.9 elap:               0.2
 (Enter /home/cwagen/sw/g16/g16/l302.exe)
 NPDir=0 NMtPBC=     1 NCelOv=     1 NCel=       1 NClECP=     1 NCelD=      1
         NCelK=      1 NCelE2=     1 NClLst=     1 CellRange=     0.0.
 One-electron integrals computed using PRISM.
 One-electron integral symmetry used in STVInt
 NBasis=   110 RedAO= T EigKep=  4.26D-03  NBF=   110
 NBsUse=   110 1.00D-06 EigRej= -1.00D+00 NBFU=   110
 Precomputing XC quadrature grid using
 IXCGrd= 4 IRadAn=           5 IRanWt=          -1 IRanGd=           0 AccXCQ= 0.00D+00.
 Generated NRdTot=       0 NPtTot=           0 NUsed=           0 NTot=          32
 NSgBfM=   110   110   110   110   110 MxSgAt=    16 MxSgA2=    16.
 Leave Link  302 at Thu Jan  9 14:31:26 2020, MaxMem=  4294967296 cpu:              23.8 elap:               2.1
 (Enter /home/cwagen/sw/g16/g16/l303.exe)
 DipDrv:  MaxL=1.
 Leave Link  303 at Thu Jan  9 14:31:26 2020, MaxMem=  4294967296 cpu:               4.5 elap:               0.5
 (Enter /home/cwagen/sw/g16/g16/l401.exe)
 ExpMin= 1.61D-01 ExpMax= 5.48D+03 ExpMxC= 8.25D+02 IAcc=3 IRadAn=         5 AccDes= 0.00D+00
 Harris functional with IExCor= 1009 and IRadAn=       5 diagonalized for initial guess.
 HarFok:  IExCor= 1009 AccDes= 0.00D+00 IRadAn=         5 IDoV= 1 UseB2=F ITyADJ=14
 ICtDFT=  3500011 ScaDFX=  1.000000  1.000000  1.000000  1.000000
 FoFCou: FMM=F IPFlag=           0 FMFlag=      100000 FMFlg1=           0
         NFxFlg=           0 DoJE=T BraDBF=F KetDBF=T FulRan=T
         wScrn=  0.000000 ICntrl=       500 IOpCl=  0 I1Cent=   200000004 NGrid=           0
         NMat0=    1 NMatS0=      1 NMatT0=    0 NMatD0=    1 NMtDS0=    0 NMtDT0=    0
 Petite list used in FoFCou.
 Harris En= -271.487414165413    
 JPrj=0 DoOrth=F DoCkMO=F.
 Leave Link  401 at Thu Jan  9 14:31:29 2020, MaxMem=  4294967296 cpu:              31.3 elap:               2.9
 (Enter /home/cwagen/sw/g16/g16/l502.exe)
 Integral symmetry usage will be decided dynamically.
 Closed shell SCF:
 Using DIIS extrapolation, IDIIS=  1040.
 NGot=  4294967296 LenX=  4294939854 LenY=  4294927313
 Requested convergence on RMS density matrix=1.00D-08 within 128 cycles.
 Requested convergence on MAX density matrix=1.00D-06.
 Requested convergence on             energy=1.00D-06.
 No special actions if energy rises.
 Fock matrices will be formed incrementally for  20 cycles.
 Integral accuracy reduced to 1.0D-05 until final iterations.

 Cycle   1  Pass 0  IDiag  1:
 FoFJK:  IHMeth= 1 ICntrl=       0 DoSepK=F KAlg= 0 I1Cent=           0 FoldK=F
 IRaf= 990000000 NMat=       1 IRICut=       1 DoRegI=T DoRafI=F ISym2E= 0 IDoP0=0 IntGTp=1.
 FoFCou: FMM=F IPFlag=           0 FMFlag=      100000 FMFlg1=           0
         NFxFlg=           0 DoJE=F BraDBF=F KetDBF=F FulRan=T
         wScrn=  0.000000 ICntrl=         0 IOpCl=  0 I1Cent=           0 NGrid=           0
         NMat0=    1 NMatS0=      1 NMatT0=    0 NMatD0=    1 NMtDS0=    0 NMtDT0=    0
 Symmetry not used in FoFCou.
 E= -271.343536784286    
 DIIS: error= 2.75D-02 at cycle   1 NSaved=   1.
 NSaved= 1 IEnMin= 1 EnMin= -271.343536784286     IErMin= 1 ErrMin= 2.75D-02
 ErrMax= 2.75D-02  0.00D+00 EMaxC= 1.00D-01 BMatC= 2.12D-01 BMatP= 2.12D-01
 IDIUse=3 WtCom= 7.25D-01 WtEn= 2.75D-01
 Coeff-Com:  0.100D+01
 Coeff-En:   0.100D+01
 Coeff:      0.100D+01
 Gap=     0.277 Goal=   None    Shift=    0.000
 GapD=    0.277 DampG=1.000 DampE=0.500 DampFc=0.5000 IDamp=-1.
 Damping current iteration by 5.00D-01
 RMSDP=6.90D-03 MaxDP=1.15D-01              OVMax= 1.36D-01

 Cycle   2  Pass 0  IDiag  1:
 RMSU=  3.40D-03    CP:  9.81D-01
 E= -271.448401828534     Delta-E=       -0.104865044248 Rises=F Damp=T
 DIIS: error= 9.08D-03 at cycle   2 NSaved=   2.
 NSaved= 2 IEnMin= 2 EnMin= -271.448401828534     IErMin= 2 ErrMin= 9.08D-03
 ErrMax= 9.08D-03  0.00D+00 EMaxC= 1.00D-01 BMatC= 1.33D-02 BMatP= 2.12D-01
 IDIUse=3 WtCom= 9.09D-01 WtEn= 9.08D-02
 Coeff-Com: -0.978D-01 0.110D+01
 Coeff-En:   0.000D+00 0.100D+01
 Coeff:     -0.889D-01 0.109D+01
 Gap=     0.322 Goal=   None    Shift=    0.000
 RMSDP=1.39D-03 MaxDP=2.60D-02 DE=-1.05D-01 OVMax= 8.41D-02

 Cycle   3  Pass 0  IDiag  1:
 RMSU=  1.35D-03    CP:  9.76D-01  1.09D+00
 E= -271.539886877318     Delta-E=       -0.091485048785 Rises=F Damp=F
 DIIS: error= 5.56D-03 at cycle   3 NSaved=   3.
 NSaved= 3 IEnMin= 3 EnMin= -271.539886877318     IErMin= 3 ErrMin= 5.56D-03
 ErrMax= 5.56D-03  0.00D+00 EMaxC= 1.00D-01 BMatC= 4.45D-03 BMatP= 1.33D-02
 IDIUse=3 WtCom= 9.44D-01 WtEn= 5.56D-02
 Coeff-Com: -0.640D-01 0.395D+00 0.669D+00
 Coeff-En:   0.000D+00 0.000D+00 0.100D+01
 Coeff:     -0.604D-01 0.373D+00 0.687D+00
 Gap=     0.306 Goal=   None    Shift=    0.000
 RMSDP=7.95D-04 MaxDP=2.05D-02 DE=-9.15D-02 OVMax= 2.87D-02

 Cycle   4  Pass 0  IDiag  1:
 RMSU=  5.59D-04    CP:  9.78D-01  1.13D+00  6.00D-01
 E= -271.541874459640     Delta-E=       -0.001987582322 Rises=F Damp=F
 DIIS: error= 3.69D-03 at cycle   4 NSaved=   4.
 NSaved= 4 IEnMin= 4 EnMin= -271.541874459640     IErMin= 4 ErrMin= 3.69D-03
 ErrMax= 3.69D-03  0.00D+00 EMaxC= 1.00D-01 BMatC= 1.96D-03 BMatP= 4.45D-03
 IDIUse=3 WtCom= 9.63D-01 WtEn= 3.69D-02
 Coeff-Com: -0.118D-01 0.426D-01 0.406D+00 0.563D+00
 Coeff-En:   0.000D+00 0.000D+00 0.329D+00 0.671D+00
 Coeff:     -0.114D-01 0.410D-01 0.403D+00 0.567D+00
 Gap=     0.308 Goal=   None    Shift=    0.000
 RMSDP=3.72D-04 MaxDP=7.71D-03 DE=-1.99D-03 OVMax= 1.17D-02

 Cycle   5  Pass 0  IDiag  1:
 RMSU=  1.20D-04    CP:  9.77D-01  1.12D+00  7.76D-01  5.43D-01
 E= -271.543467888182     Delta-E=       -0.001593428542 Rises=F Damp=F
 DIIS: error= 2.78D-04 at cycle   5 NSaved=   5.
 NSaved= 5 IEnMin= 5 EnMin= -271.543467888182     IErMin= 5 ErrMin= 2.78D-04
 ErrMax= 2.78D-04  0.00D+00 EMaxC= 1.00D-01 BMatC= 1.55D-05 BMatP= 1.96D-03
 IDIUse=3 WtCom= 9.97D-01 WtEn= 2.78D-03
 Coeff-Com: -0.108D-02 0.243D-02 0.115D+00 0.187D+00 0.697D+00
 Coeff-En:   0.000D+00 0.000D+00 0.000D+00 0.000D+00 0.100D+01
 Coeff:     -0.107D-02 0.242D-02 0.114D+00 0.187D+00 0.698D+00
 Gap=     0.306 Goal=   None    Shift=    0.000
 RMSDP=4.61D-05 MaxDP=7.50D-04 DE=-1.59D-03 OVMax= 1.91D-03

 Cycle   6  Pass 0  IDiag  1:
 RMSU=  3.17D-05    CP:  9.77D-01  1.12D+00  7.81D-01  5.82D-01  7.95D-01
 E= -271.543481934404     Delta-E=       -0.000014046222 Rises=F Damp=F
 DIIS: error= 8.98D-05 at cycle   6 NSaved=   6.
 NSaved= 6 IEnMin= 6 EnMin= -271.543481934404     IErMin= 6 ErrMin= 8.98D-05
 ErrMax= 8.98D-05  0.00D+00 EMaxC= 1.00D-01 BMatC= 2.27D-06 BMatP= 1.55D-05
 IDIUse=1 WtCom= 1.00D+00 WtEn= 0.00D+00
 Coeff-Com:  0.720D-03-0.280D-02 0.211D-01 0.400D-01 0.309D+00 0.632D+00
 Coeff:      0.720D-03-0.280D-02 0.211D-01 0.400D-01 0.309D+00 0.632D+00
 Gap=     0.306 Goal=   None    Shift=    0.000
 RMSDP=1.75D-05 MaxDP=2.79D-04 DE=-1.40D-05 OVMax= 5.21D-04

 Cycle   7  Pass 0  IDiag  1:
 RMSU=  1.20D-05    CP:  9.77D-01  1.12D+00  7.84D-01  5.81D-01  8.67D-01
                    CP:  7.70D-01
 E= -271.543484289338     Delta-E=       -0.000002354934 Rises=F Damp=F
 DIIS: error= 2.75D-05 at cycle   7 NSaved=   7.
 NSaved= 7 IEnMin= 7 EnMin= -271.543484289338     IErMin= 7 ErrMin= 2.75D-05
 ErrMax= 2.75D-05  0.00D+00 EMaxC= 1.00D-01 BMatC= 1.49D-07 BMatP= 2.27D-06
 IDIUse=1 WtCom= 1.00D+00 WtEn= 0.00D+00
 Coeff-Com:  0.505D-03-0.136D-02-0.755D-02-0.119D-01 0.122D-01 0.199D+00
 Coeff-Com:  0.810D+00
 Coeff:      0.505D-03-0.136D-02-0.755D-02-0.119D-01 0.122D-01 0.199D+00
 Coeff:      0.810D+00
 Gap=     0.306 Goal=   None    Shift=    0.000
 RMSDP=5.44D-06 MaxDP=6.95D-05 DE=-2.35D-06 OVMax= 2.48D-04

 Initial convergence to 1.0D-05 achieved.  Increase integral accuracy.
 Cycle   8  Pass 1  IDiag  1:
 E= -271.543425491403     Delta-E=        0.000058797935 Rises=F Damp=F
 DIIS: error= 1.24D-05 at cycle   1 NSaved=   1.
 NSaved= 1 IEnMin= 1 EnMin= -271.543425491403     IErMin= 1 ErrMin= 1.24D-05
 ErrMax= 1.24D-05  0.00D+00 EMaxC= 1.00D-01 BMatC= 6.51D-08 BMatP= 6.51D-08
 IDIUse=1 WtCom= 1.00D+00 WtEn= 0.00D+00
 Coeff-Com:  0.100D+01
 Coeff:      0.100D+01
 Gap=     0.306 Goal=   None    Shift=    0.000
 RMSDP=5.44D-06 MaxDP=6.95D-05 DE= 5.88D-05 OVMax= 8.78D-05

 Cycle   9  Pass 1  IDiag  1:
 RMSU=  4.74D-06    CP:  1.00D+00
 E= -271.543425534797     Delta-E=       -0.000000043394 Rises=F Damp=F
 DIIS: error= 1.23D-05 at cycle   2 NSaved=   2.
 NSaved= 2 IEnMin= 2 EnMin= -271.543425534797     IErMin= 2 ErrMin= 1.23D-05
 ErrMax= 1.23D-05  0.00D+00 EMaxC= 1.00D-01 BMatC= 2.50D-08 BMatP= 6.51D-08
 IDIUse=1 WtCom= 1.00D+00 WtEn= 0.00D+00
 Coeff-Com:  0.341D+00 0.659D+00
 Coeff:      0.341D+00 0.659D+00
 Gap=     0.306 Goal=   None    Shift=    0.000
 RMSDP=1.98D-06 MaxDP=4.21D-05 DE=-4.34D-08 OVMax= 1.07D-04

 Cycle  10  Pass 1  IDiag  1:
 RMSU=  1.80D-06    CP:  1.00D+00  8.28D-01
 E= -271.543425552438     Delta-E=       -0.000000017641 Rises=F Damp=F
 DIIS: error= 7.16D-06 at cycle   3 NSaved=   3.
 NSaved= 3 IEnMin= 3 EnMin= -271.543425552438     IErMin= 3 ErrMin= 7.16D-06
 ErrMax= 7.16D-06  0.00D+00 EMaxC= 1.00D-01 BMatC= 9.40D-09 BMatP= 2.50D-08
 IDIUse=1 WtCom= 1.00D+00 WtEn= 0.00D+00
 Coeff-Com: -0.312D-01 0.371D+00 0.661D+00
 Coeff:     -0.312D-01 0.371D+00 0.661D+00
 Gap=     0.306 Goal=   None    Shift=    0.000
 RMSDP=9.48D-07 MaxDP=1.92D-05 DE=-1.76D-08 OVMax= 2.88D-05

 Cycle  11  Pass 1  IDiag  1:
 RMSU=  4.93D-07    CP:  1.00D+00  9.60D-01  7.19D-01
 E= -271.543425560478     Delta-E=       -0.000000008040 Rises=F Damp=F
 DIIS: error= 1.13D-06 at cycle   4 NSaved=   4.
 NSaved= 4 IEnMin= 4 EnMin= -271.543425560478     IErMin= 4 ErrMin= 1.13D-06
 ErrMax= 1.13D-06  0.00D+00 EMaxC= 1.00D-01 BMatC= 3.96D-10 BMatP= 9.40D-09
 IDIUse=1 WtCom= 1.00D+00 WtEn= 0.00D+00
 Coeff-Com: -0.267D-01 0.156D+00 0.300D+00 0.570D+00
 Coeff:     -0.267D-01 0.156D+00 0.300D+00 0.570D+00
 Gap=     0.306 Goal=   None    Shift=    0.000
 RMSDP=1.97D-07 MaxDP=4.74D-06 DE=-8.04D-09 OVMax= 8.28D-06

 Cycle  12  Pass 1  IDiag  1:
 RMSU=  1.73D-07    CP:  1.00D+00  9.66D-01  7.35D-01  8.27D-01
 E= -271.543425560852     Delta-E=       -0.000000000374 Rises=F Damp=F
 DIIS: error= 5.31D-07 at cycle   5 NSaved=   5.
 NSaved= 5 IEnMin= 5 EnMin= -271.543425560852     IErMin= 5 ErrMin= 5.31D-07
 ErrMax= 5.31D-07  0.00D+00 EMaxC= 1.00D-01 BMatC= 4.55D-11 BMatP= 3.96D-10
 IDIUse=1 WtCom= 1.00D+00 WtEn= 0.00D+00
 Coeff-Com: -0.462D-02-0.529D-02-0.221D-01 0.203D+00 0.829D+00
 Coeff:     -0.462D-02-0.529D-02-0.221D-01 0.203D+00 0.829D+00
 Gap=     0.306 Goal=   None    Shift=    0.000
 RMSDP=1.00D-07 MaxDP=1.57D-06 DE=-3.74D-10 OVMax= 3.77D-06

 Cycle  13  Pass 1  IDiag  1:
 RMSU=  6.10D-08    CP:  1.00D+00  9.73D-01  7.38D-01  9.73D-01  1.02D+00
 E= -271.543425560906     Delta-E=       -0.000000000054 Rises=F Damp=F
 DIIS: error= 1.74D-07 at cycle   6 NSaved=   6.
 NSaved= 6 IEnMin= 6 EnMin= -271.543425560906     IErMin= 6 ErrMin= 1.74D-07
 ErrMax= 1.74D-07  0.00D+00 EMaxC= 1.00D-01 BMatC= 5.86D-12 BMatP= 4.55D-11
 IDIUse=1 WtCom= 1.00D+00 WtEn= 0.00D+00
 Coeff-Com:  0.204D-02-0.220D-01-0.547D-01 0.591D-02 0.329D+00 0.740D+00
 Coeff:      0.204D-02-0.220D-01-0.547D-01 0.591D-02 0.329D+00 0.740D+00
 Gap=     0.306 Goal=   None    Shift=    0.000
 RMSDP=3.95D-08 MaxDP=4.81D-07 DE=-5.42D-11 OVMax= 1.30D-06

 Cycle  14  Pass 1  IDiag  1:
 RMSU=  1.90D-08    CP:  1.00D+00  9.76D-01  7.36D-01  1.02D+00  1.15D+00
                    CP:  9.07D-01
 E= -271.543425560916     Delta-E=       -0.000000000010 Rises=F Damp=F
 DIIS: error= 6.00D-08 at cycle   7 NSaved=   7.
 NSaved= 7 IEnMin= 7 EnMin= -271.543425560916     IErMin= 7 ErrMin= 6.00D-08
 ErrMax= 6.00D-08  0.00D+00 EMaxC= 1.00D-01 BMatC= 6.49D-13 BMatP= 5.86D-12
 IDIUse=1 WtCom= 1.00D+00 WtEn= 0.00D+00
 Coeff-Com:  0.117D-02-0.709D-02-0.199D-01-0.151D-01 0.320D-01 0.258D+00
 Coeff-Com:  0.751D+00
 Coeff:      0.117D-02-0.709D-02-0.199D-01-0.151D-01 0.320D-01 0.258D+00
 Coeff:      0.751D+00
 Gap=     0.306 Goal=   None    Shift=    0.000
 RMSDP=1.14D-08 MaxDP=1.31D-07 DE=-1.01D-11 OVMax= 5.23D-07

 Cycle  15  Pass 1  IDiag  1:
 RMSU=  6.90D-09    CP:  1.00D+00  9.76D-01  7.36D-01  1.03D+00  1.18D+00
                    CP:  9.88D-01  9.77D-01
 E= -271.543425560918     Delta-E=       -0.000000000002 Rises=F Damp=F
 DIIS: error= 2.06D-08 at cycle   8 NSaved=   8.
 NSaved= 8 IEnMin= 8 EnMin= -271.543425560918     IErMin= 8 ErrMin= 2.06D-08
 ErrMax= 2.06D-08  0.00D+00 EMaxC= 1.00D-01 BMatC= 7.88D-14 BMatP= 6.49D-13
 IDIUse=1 WtCom= 1.00D+00 WtEn= 0.00D+00
 Coeff-Com:  0.366D-04 0.160D-02 0.156D-02-0.311D-02-0.409D-01-0.328D-01
 Coeff-Com:  0.230D+00 0.843D+00
 Coeff:      0.366D-04 0.160D-02 0.156D-02-0.311D-02-0.409D-01-0.328D-01
 Coeff:      0.230D+00 0.843D+00
 Gap=     0.306 Goal=   None    Shift=    0.000
 RMSDP=5.07D-09 MaxDP=6.84D-08 DE=-1.71D-12 OVMax= 1.73D-07

 SCF Done:  E(RM062X) =  -271.543425561     A.U. after   15 cycles
            NFock= 15  Conv=0.51D-08     -V/T= 2.0090
 KE= 2.691328940899D+02 PE=-1.121866851016D+03 EE= 3.358660497260D+02
 Leave Link  502 at Thu Jan  9 14:32:03 2020, MaxMem=  4294967296 cpu:             426.3 elap:              33.2
 (Enter /home/cwagen/sw/g16/g16/l801.exe)
 DoSCS=F DFT=T ScalE2(SS,OS)=  1.000000  1.000000
 Range of M.O.s used for correlation:     1   110
 NBasis=   110 NAE=    24 NBE=    24 NFC=     0 NFV=     0
 NROrb=    110 NOA=    24 NOB=    24 NVA=    86 NVB=    86
 Leave Link  801 at Thu Jan  9 14:32:03 2020, MaxMem=  4294967296 cpu:               1.6 elap:               0.2
 (Enter /home/cwagen/sw/g16/g16/l1101.exe)
 Using compressed storage, NAtomX=    16.
 Will process     17 centers per pass.
 Leave Link 1101 at Thu Jan  9 14:32:04 2020, MaxMem=  4294967296 cpu:               8.5 elap:               0.7
 (Enter /home/cwagen/sw/g16/g16/l1102.exe)
 Symmetrizing basis deriv contribution to polar:
 IMax=3 JMax=2 DiffMx= 0.00D+00
 Leave Link 1102 at Thu Jan  9 14:32:04 2020, MaxMem=  4294967296 cpu:               1.9 elap:               0.2
 (Enter /home/cwagen/sw/g16/g16/l1110.exe)
 Forming Gx(P) for the SCF density, NAtomX=    16.
 Integral derivatives from FoFJK, PRISM(SPDF).
 Do as many integral derivatives as possible in FoFJK.
 G2DrvN: MDV=    4294966008.
 G2DrvN: will do    17 centers at a time, making    1 passes.
 Calling FoFCou, ICntrl=  3107 FMM=F I1Cent=   0 AccDes= 0.00D+00.
 FoFJK:  IHMeth= 1 ICntrl=    3107 DoSepK=F KAlg= 0 I1Cent=           0 FoldK=F
 IRaf=         0 NMat=       1 IRICut=       1 DoRegI=T DoRafI=F ISym2E= 0 IDoP0=0 IntGTp=1.
 FoFCou: FMM=F IPFlag=           0 FMFlag=      100000 FMFlg1=           0
         NFxFlg=           0 DoJE=F BraDBF=F KetDBF=F FulRan=T
         wScrn=  0.000000 ICntrl=      3107 IOpCl=  0 I1Cent=           0 NGrid=           0
         NMat0=    1 NMatS0=      1 NMatT0=    0 NMatD0=    1 NMtDS0=    0 NMtDT0=    0
 Symmetry not used in FoFCou.
 End of G2Drv F.D. properties file   721 does not exist.
 End of G2Drv F.D. properties file   722 does not exist.
 End of G2Drv F.D. properties file   788 does not exist.
 Leave Link 1110 at Thu Jan  9 14:32:53 2020, MaxMem=  4294967296 cpu:             631.3 elap:              48.7
 (Enter /home/cwagen/sw/g16/g16/l1002.exe)
 Minotr:  Closed shell wavefunction.
          IDoAtm=1111111111111111
          Direct CPHF calculation.
          Differentiating once with respect to nuclear coordinates.
          Requested convergence is 1.0D-08 RMS, and 1.0D-07 maximum.
          Secondary convergence is 1.0D-12 RMS, and 1.0D-12 maximum.
          NewPWx=T KeepS1=F KeepF1=F KeepIn=T MapXYZ=F SortEE=F KeepMc=T.
         4734 words used for storage of precomputed grid.
 Keep R1 ints in memory in canonical form, NReq=33552777.
 FoFCou: FMM=F IPFlag=           0 FMFlag=           0 FMFlg1=           0
         NFxFlg=           0 DoJE=F BraDBF=F KetDBF=F FulRan=T
         wScrn=  0.000000 ICntrl=       600 IOpCl=  0 I1Cent=           0 NGrid=           0
         NMat0=    1 NMatS0=   6105 NMatT0=    0 NMatD0=    1 NMtDS0=    0 NMtDT0=    0
 Symmetry not used in FoFCou.
 Two-electron integral symmetry not used.
          MDV=    4294967296 using IRadAn=       1.
          Solving linear equations simultaneously, MaxMat=       0.
          There are    51 degrees of freedom in the 1st order CPHF.  IDoFFX=6 NUNeed=     0.
     45 vectors produced by pass  0 Test12= 4.05D-15 1.96D-09 XBig12= 1.28D-01 1.35D-01.
 AX will form    45 AO Fock derivatives at one time.
     45 vectors produced by pass  1 Test12= 4.05D-15 1.96D-09 XBig12= 7.26D-03 3.13D-02.
     45 vectors produced by pass  2 Test12= 4.05D-15 1.96D-09 XBig12= 1.10D-04 2.28D-03.
     45 vectors produced by pass  3 Test12= 4.05D-15 1.96D-09 XBig12= 6.35D-07 1.69D-04.
     45 vectors produced by pass  4 Test12= 4.05D-15 1.96D-09 XBig12= 2.12D-09 8.02D-06.
     45 vectors produced by pass  5 Test12= 4.05D-15 1.96D-09 XBig12= 6.30D-12 3.04D-07.
     13 vectors produced by pass  6 Test12= 4.05D-15 1.96D-09 XBig12= 1.23D-14 1.18D-08.
 InvSVY:  IOpt=1 It=  1 EMax= 3.89D-16
 Solved reduced A of dimension   283 with    51 vectors.
 End of Minotr F.D. properties file   721 does not exist.
 End of Minotr F.D. properties file   722 does not exist.
 End of Minotr F.D. properties file   788 does not exist.
 Leave Link 1002 at Thu Jan  9 14:33:42 2020, MaxMem=  4294967296 cpu:             655.1 elap:              48.1
 (Enter /home/cwagen/sw/g16/g16/l601.exe)
 Copying SCF densities to generalized density rwf, IOpCl= 0 IROHF=0.

 **********************************************************************

            Population analysis using the SCF density.

 **********************************************************************

 Orbital symmetries:
       Occupied  (A) (A) (A) (A) (A) (A) (A) (A) (A) (A) (A) (A)
                 (A) (A) (A) (A) (A) (A) (A) (A) (A) (A) (A) (A)
       Virtual   (A) (A) (A) (A) (A) (A) (A) (A) (A) (A) (A) (A)
                 (A) (A) (A) (A) (A) (A) (A) (A) (A) (A) (A) (A)
                 (A) (A) (A) (A) (A) (A) (A) (A) (A) (A) (A) (A)
                 (A) (A) (A) (A) (A) (A) (A) (A) (A) (A) (A) (A)
                 (A) (A) (A) (A) (A) (A) (A) (A) (A) (A) (A) (A)
                 (A) (A) (A) (A) (A) (A) (A) (A) (A) (A) (A) (A)
                 (A) (A) (A) (A) (A) (A) (A) (A) (A) (A) (A) (A)
                 (A) (A)
 The electronic state is 1-A.
 Alpha  occ. eigenvalues --  -19.61397 -10.61899 -10.57756 -10.55532 -10.53816
 Alpha  occ. eigenvalues --  -10.53664  -1.12274  -0.90667  -0.83144  -0.77356
 Alpha  occ. eigenvalues --   -0.66477  -0.64378  -0.55494  -0.54109  -0.52795
 Alpha  occ. eigenvalues --   -0.49570  -0.48133  -0.45391  -0.44366  -0.43784
 Alpha  occ. eigenvalues --   -0.42346  -0.33435  -0.31889  -0.30281
 Alpha virt. eigenvalues --    0.00341   0.11702   0.13538   0.15635   0.18247
 Alpha virt. eigenvalues --    0.18991   0.20286   0.21773   0.22674   0.24776
 Alpha virt. eigenvalues --    0.25291   0.27477   0.30232   0.33055   0.35470
 Alpha virt. eigenvalues --    0.38818   0.51663   0.56149   0.57416   0.58684
 Alpha virt. eigenvalues --    0.60527   0.63323   0.65452   0.67981   0.70291
 Alpha virt. eigenvalues --    0.72626   0.75886   0.80086   0.82724   0.85501
 Alpha virt. eigenvalues --    0.87472   0.88976   0.91883   0.92417   0.94703
 Alpha virt. eigenvalues --    0.96884   0.98654   0.99310   1.00145   1.03593
 Alpha virt. eigenvalues --    1.04152   1.10547   1.13556   1.19838   1.26415
 Alpha virt. eigenvalues --    1.28198   1.35712   1.39813   1.46859   1.51580
 Alpha virt. eigenvalues --    1.55953   1.59124   1.67481   1.69862   1.77344
 Alpha virt. eigenvalues --    1.82705   1.84017   1.90563   1.91082   1.96827
 Alpha virt. eigenvalues --    2.04369   2.05815   2.09189   2.11632   2.21341
 Alpha virt. eigenvalues --    2.25084   2.27099   2.29875   2.32270   2.34016
 Alpha virt. eigenvalues --    2.35276   2.36775   2.51568   2.55399   2.58348
 Alpha virt. eigenvalues --    2.61259   2.76707   2.79795   2.83232   2.98209
 Alpha virt. eigenvalues --    3.95474   4.16953   4.26682   4.36788   4.43882
 Alpha virt. eigenvalues --    4.49069
          Condensed to atoms (all electrons):
               1          2          3          4          5          6
     1  C    4.772833   0.333049   0.385713  -0.029990  -0.027308  -0.022636
     2  C    0.333049   5.252258  -0.080992   0.374340   0.371602   0.347903
     3  H    0.385713  -0.080992   0.604210  -0.000931   0.004341   0.003506
     4  H   -0.029990   0.374340  -0.000931   0.522775  -0.025242  -0.026233
     5  H   -0.027308   0.371602   0.004341  -0.025242   0.535327  -0.023921
     6  H   -0.022636   0.347903   0.003506  -0.026233  -0.023921   0.565877
     7  O    0.363294  -0.070506  -0.044600  -0.000002   0.000330   0.003490
     8  C    0.152631  -0.029912  -0.028335   0.003356  -0.005700  -0.001658
     9  C   -0.004909  -0.013039   0.002469   0.000440   0.000979   0.001056
    10  H   -0.008540  -0.000174  -0.000744  -0.000035  -0.000068   0.001168
    11  H   -0.016855   0.002737  -0.007369  -0.000059  -0.000006   0.000015
    12  C   -0.015223   0.001007  -0.000823  -0.000142   0.000869   0.000006
    13  H   -0.001570   0.000912  -0.000028  -0.000007   0.000793   0.000238
    14  H    0.000600   0.000039  -0.000020   0.000001  -0.000079  -0.000004
    15  H   -0.040195  -0.000503   0.006378  -0.000477   0.002557   0.000005
    16  H    0.000692  -0.000017  -0.000086   0.000003  -0.000009   0.000002
               7          8          9         10         11         12
     1  C    0.363294   0.152631  -0.004909  -0.008540  -0.016855  -0.015223
     2  C   -0.070506  -0.029912  -0.013039  -0.000174   0.002737   0.001007
     3  H   -0.044600  -0.028335   0.002469  -0.000744  -0.007369  -0.000823
     4  H   -0.000002   0.003356   0.000440  -0.000035  -0.000059  -0.000142
     5  H    0.000330  -0.005700   0.000979  -0.000068  -0.000006   0.000869
     6  H    0.003490  -0.001658   0.001056   0.001168   0.000015   0.000006
     7  O    8.330913  -0.025381  -0.039980   0.001025  -0.000932  -0.071920
     8  C   -0.025381   5.246498   0.508992   0.369815   0.385048  -0.071059
     9  C   -0.039980   0.508992   4.871011  -0.030815  -0.042839   0.479946
    10  H    0.001025   0.369815  -0.030815   0.523301  -0.030138   0.005430
    11  H   -0.000932   0.385048  -0.042839  -0.030138   0.517389  -0.002693
    12  C   -0.071920  -0.071059   0.479946   0.005430  -0.002693   5.341106
    13  H   -0.000248  -0.047133   0.384063  -0.005315   0.004391  -0.045086
    14  H    0.000737   0.005260  -0.028181  -0.000148  -0.000013   0.371707
    15  H    0.120195  -0.032871  -0.020088   0.000297   0.000809   0.205669
    16  H   -0.003085  -0.003348  -0.035536  -0.000121   0.002829   0.376109
              13         14         15         16
     1  C   -0.001570   0.000600  -0.040195   0.000692
     2  C    0.000912   0.000039  -0.000503  -0.000017
     3  H   -0.000028  -0.000020   0.006378  -0.000086
     4  H   -0.000007   0.000001  -0.000477   0.000003
     5  H    0.000793  -0.000079   0.002557  -0.000009
     6  H    0.000238  -0.000004   0.000005   0.000002
     7  O   -0.000248   0.000737   0.120195  -0.003085
     8  C   -0.047133   0.005260  -0.032871  -0.003348
     9  C    0.384063  -0.028181  -0.020088  -0.035536
    10  H   -0.005315  -0.000148   0.000297  -0.000121
    11  H    0.004391  -0.000013   0.000809   0.002829
    12  C   -0.045086   0.371707   0.205669   0.376109
    13  H    0.536849  -0.005590   0.001246   0.003953
    14  H   -0.005590   0.509189  -0.006737  -0.027089
    15  H    0.001246  -0.006737   0.423141  -0.015210
    16  H    0.003953  -0.027089  -0.015210   0.500253
 Mulliken charges:
               1
     1  C    0.158417
     2  C   -0.488704
     3  H    0.157310
     4  H    0.182203
     5  H    0.165537
     6  H    0.151186
     7  O   -0.563328
     8  C   -0.426202
     9  C   -0.033568
    10  H    0.175061
    11  H    0.187688
    12  C   -0.574902
    13  H    0.172532
    14  H    0.180328
    15  H    0.355785
    16  H    0.200659
 Sum of Mulliken charges =   0.00000
 Mulliken charges with hydrogens summed into heavy atoms:
               1
     1  C    0.315726
     2  C    0.010221
     7  O   -0.207544
     8  C   -0.063453
     9  C    0.138964
    12  C   -0.193915
 APT charges:
               1
     1  C   -0.320137
     2  C   -1.185577
     3  H    0.445492
     4  H    0.543212
     5  H    0.292757
     6  H    0.419446
     7  O   -0.469853
     8  C   -0.925368
     9  C   -0.342257
    10  H    0.457025
    11  H    0.429242
    12  C   -1.109490
    13  H    0.428960
    14  H    0.557513
    15  H    0.323196
    16  H    0.455838
 Sum of APT charges =   0.00000
 APT charges with hydrogens summed into heavy atoms:
               1
     1  C    0.125355
     2  C    0.069838
     7  O   -0.146658
     8  C   -0.039100
     9  C    0.086704
    12  C   -0.096139
 Electronic spatial extent (au):  <R**2>=            628.8307
 Charge=              0.0000 electrons
 Dipole moment (field-independent basis, Debye):
    X=             -0.2278    Y=              2.1921    Z=             -0.3885  Tot=              2.2379
 Quadrupole moment (field-independent basis, Debye-Ang):
   XX=            -36.9774   YY=            -41.8028   ZZ=            -36.4390
   XY=              2.5927   XZ=              0.7136   YZ=              0.6878
 Traceless Quadrupole moment (field-independent basis, Debye-Ang):
   XX=              1.4290   YY=             -3.3964   ZZ=              1.9674
   XY=              2.5927   XZ=              0.7136   YZ=              0.6878
 Octapole moment (field-independent basis, Debye-Ang**2):
  XXX=              6.8351  YYY=              3.0860  ZZZ=              1.6346  XYY=             -0.5591
  XXY=             -6.1575  XXZ=              0.2117  XZZ=             -1.6112  YZZ=             -0.5000
  YYZ=             -1.8698  XYZ=              1.2743
 Hexadecapole moment (field-independent basis, Debye-Ang**3):
 XXXX=           -480.6761 YYYY=           -226.2787 ZZZZ=           -131.3257 XXXY=              3.4806
 XXXZ=              1.9654 YYYX=              6.9745 YYYZ=              0.2583 ZZZX=              3.8768
 ZZZY=             -1.6598 XXYY=           -117.2206 XXZZ=            -98.4674 YYZZ=            -60.7623
 XXYZ=              0.0245 YYXZ=              1.6050 ZZXY=             -0.2577
 N-N= 2.453244816389D+02 E-N=-1.121866850530D+03  KE= 2.691328940899D+02
  Exact polarizability:   0.000   0.000   0.000   0.000   0.000   0.000
 Approx polarizability:  85.373  -0.176  81.897  11.843   0.698  64.538
 No NMR shielding tensors so no spin-rotation constants.
 Leave Link  601 at Thu Jan  9 14:33:44 2020, MaxMem=  4294967296 cpu:              27.6 elap:               2.5
 (Enter /home/cwagen/sw/g16/g16/l701.exe)
 ... and contract with generalized density number  0.
 Compute integral second derivatives.
 Leave Link  701 at Thu Jan  9 14:33:46 2020, MaxMem=  4294967296 cpu:              15.7 elap:               1.3
 (Enter /home/cwagen/sw/g16/g16/l702.exe)
 L702 exits ... SP integral derivatives will be done elsewhere.
 Leave Link  702 at Thu Jan  9 14:33:46 2020, MaxMem=  4294967296 cpu:               1.1 elap:               0.2
 (Enter /home/cwagen/sw/g16/g16/l703.exe)
 Integral derivatives from FoFJK, PRISM(SPDF).
 Compute integral second derivatives, UseDBF=F ICtDFT=           0.
 Calling FoFJK, ICntrl=    100147 FMM=F ISym2X=0 I1Cent= 0 IOpClX= 0 NMat=1 NMatS=1 NMatT=0.
 FoFJK:  IHMeth= 1 ICntrl=  100147 DoSepK=F KAlg= 0 I1Cent=           0 FoldK=F
 IRaf=         0 NMat=       1 IRICut=       1 DoRegI=T DoRafI=F ISym2E= 0 IDoP0=0 IntGTp=1.
 FoFCou: FMM=F IPFlag=           0 FMFlag=      100000 FMFlg1=         800
         NFxFlg=           0 DoJE=F BraDBF=F KetDBF=F FulRan=T
         wScrn=  0.000000 ICntrl=    100147 IOpCl=  0 I1Cent=           0 NGrid=           0
         NMat0=    1 NMatS0=      1 NMatT0=    0 NMatD0=    1 NMtDS0=    0 NMtDT0=    0
 Symmetry not used in FoFCou.
 Leave Link  703 at Thu Jan  9 14:34:25 2020, MaxMem=  4294967296 cpu:             491.4 elap:              39.6
 (Enter /home/cwagen/sw/g16/g16/l716.exe)
 Dipole        =-8.96299589D-02 8.62425480D-01-1.52849802D-01
 Polarizability= 0.00000000D+00 0.00000000D+00 0.00000000D+00
                 0.00000000D+00 0.00000000D+00 0.00000000D+00
 ***** Axes restored to original set *****
 -------------------------------------------------------------------
 Center     Atomic                   Forces (Hartrees/Bohr)
 Number     Number              X              Y              Z
 -------------------------------------------------------------------
      1        6           0.005067323    0.002036709   -0.000848216
      2        6           0.000771163    0.000271794    0.000429583
      3        1           0.001295307   -0.000148766   -0.000854505
      4        1           0.001327864   -0.000387753    0.000492029
      5        1           0.000196398    0.000248578    0.000755199
      6        1           0.000637954    0.001062856    0.000119984
      7        8           0.001051741   -0.007957801   -0.001842520
      8        6          -0.001155386    0.003442275   -0.002001160
      9        6          -0.003641007    0.005324180    0.001835476
     10        1          -0.000098215    0.000435093   -0.000316244
     11        1          -0.000094362    0.000780385   -0.000394010
     12        6           0.003993719   -0.005298789   -0.000366170
     13        1           0.000199194   -0.000107615    0.000166125
     14        1          -0.000943910   -0.000364940    0.000785676
     15        1          -0.007171460    0.000725740    0.002320354
     16        1          -0.001436322   -0.000061945   -0.000281600
 -------------------------------------------------------------------
 Cartesian Forces:  Max     0.007957801 RMS     0.002391981
 FormGI is forming the generalized inverse of G from B-inverse, IUseBI=4.
 Leave Link  716 at Thu Jan  9 14:34:26 2020, MaxMem=  4294967296 cpu:               3.2 elap:               0.3
 (Enter /home/cwagen/sw/g16/g16/l103.exe)

 GradGradGradGradGradGradGradGradGradGradGradGradGradGradGradGradGradGrad
 Berny optimization.
 Red2BG is reusing G-inverse.
 Internal  Forces:  Max     0.024139909 RMS     0.005702790
 Search for a saddle point.
 Step number   1 out of a maximum of   70
 All quantities printed in internal units (Hartrees-Bohrs-Radians)
 Swapping is turned off.
 Second derivative matrix not updated -- analytic derivatives used.
 ITU=  0
     Eigenvalues ---   -0.13234   0.00310   0.00523   0.01487   0.02124
     Eigenvalues ---    0.02680   0.02913   0.03677   0.04288   0.04642
     Eigenvalues ---    0.05725   0.05831   0.05949   0.07591   0.08664
     Eigenvalues ---    0.10902   0.11509   0.11949   0.12457   0.13468
     Eigenvalues ---    0.13956   0.14524   0.15924   0.17353   0.20421
     Eigenvalues ---    0.24840   0.29104   0.33096   0.34220   0.34806
     Eigenvalues ---    0.35257   0.35474   0.35836   0.36281   0.36343
     Eigenvalues ---    0.36629   0.37364   0.42600   0.53805   0.69189
     Eigenvalues ---    0.94710   1.73998
 Eigenvectors required to have negative eigenvalues:
                          R7        R14       R3        D8        A18
   1                   -0.58226   0.42232   0.23323   0.18552  -0.17837
                          R11       R8        D12       D11       D5
   1                   -0.17754   0.16897  -0.16823   0.14972   0.14145
 RFO step:  Lambda0=1.271525233D-03 Lambda=-1.51120306D-03.
 Linear search not attempted -- option 19 set.
 Iteration  1 RMS(Cart)=  0.03134086 RMS(Int)=  0.00044876
 Iteration  2 RMS(Cart)=  0.00049110 RMS(Int)=  0.00013293
 Iteration  3 RMS(Cart)=  0.00000013 RMS(Int)=  0.00013293
 ITry= 1 IFail=0 DXMaxC= 9.70D-02 DCOld= 1.00D+10 DXMaxT= 3.00D-01 DXLimC= 3.00D+00 Rises=F
 Variable       Old X    -DE/DX   Delta X   Delta X   Delta X     New X
                                 (Linear)    (Quad)   (Total)
    R1        2.87747  -0.00344   0.00000  -0.00903  -0.00903   2.86844
    R2        2.07811  -0.00122   0.00000  -0.00228  -0.00228   2.07583
    R3        2.45159  -0.00675   0.00000  -0.02863  -0.02863   2.42296
    R4        2.07356  -0.00133   0.00000  -0.00356  -0.00356   2.07000
    R5        2.06789  -0.00056   0.00000  -0.00199  -0.00199   2.06590
    R6        2.06967  -0.00117   0.00000  -0.00367  -0.00367   2.06600
    R7        2.47470  -0.01080   0.00000   0.03821   0.03821   2.51291
    R8        2.64377  -0.00261   0.00000  -0.02251  -0.02251   2.62125
    R9        2.05454  -0.00032   0.00000  -0.00181  -0.00181   2.05273
   R10        2.05662  -0.00018   0.00000  -0.00125  -0.00125   2.05537
   R11        2.66452  -0.00665   0.00000   0.00186   0.00186   2.66638
   R12        2.06012  -0.00013   0.00000  -0.00039  -0.00039   2.05973
   R13        2.05732  -0.00122   0.00000  -0.00353  -0.00353   2.05379
   R14        2.49773  -0.00473   0.00000  -0.03305  -0.03305   2.46468
   R15        2.06297  -0.00086   0.00000  -0.00234  -0.00234   2.06063
    A1        1.99259   0.00145   0.00000   0.01233   0.01200   2.00460
    A2        2.05693  -0.00142   0.00000   0.00187   0.00158   2.05851
    A3        2.01090   0.00039   0.00000   0.01516   0.01481   2.02571
    A4        1.89823  -0.00067   0.00000  -0.00597  -0.00599   1.89225
    A5        1.93232  -0.00069   0.00000  -0.00783  -0.00785   1.92447
    A6        1.95754  -0.00026   0.00000   0.00383   0.00383   1.96138
    A7        1.87545   0.00055   0.00000   0.00132   0.00128   1.87673
    A8        1.89065   0.00059   0.00000   0.00359   0.00360   1.89425
    A9        1.90733   0.00053   0.00000   0.00514   0.00514   1.91247
   A10        1.86646  -0.01718   0.00000  -0.00006  -0.00006   1.86640
   A11        2.08200   0.00014   0.00000   0.01090   0.01046   2.09247
   A12        2.04977  -0.00040   0.00000   0.00499   0.00456   2.05433
   A13        1.99755   0.00059   0.00000   0.01327   0.01277   2.01031
   A14        2.09766  -0.00541   0.00000   0.00172   0.00161   2.09927
   A15        2.05775   0.00174   0.00000   0.00386   0.00374   2.06149
   A16        2.06184   0.00273   0.00000   0.00360   0.00349   2.06533
   A17        2.06527   0.00389   0.00000  -0.00110  -0.00111   2.06416
   A18        1.62504  -0.02177   0.00000  -0.00139  -0.00138   1.62365
   A19        2.05233   0.00187   0.00000  -0.00801  -0.00802   2.04431
   A20        1.94840   0.00996   0.00000  -0.00284  -0.00284   1.94556
   A21        1.98732  -0.00091   0.00000   0.00433   0.00431   1.99164
   A22        1.70234   0.00416   0.00000   0.01109   0.01110   1.71344
   A23        2.68509  -0.02414   0.00000  -0.01254  -0.01254   2.67255
    D1        1.27757   0.00045   0.00000   0.01299   0.01301   1.29058
    D2       -2.94877   0.00030   0.00000   0.00640   0.00646  -2.94231
    D3       -0.81324   0.00031   0.00000   0.01008   0.01012  -0.80312
    D4       -1.16469  -0.00030   0.00000  -0.03261  -0.03268  -1.19737
    D5        0.89215  -0.00044   0.00000  -0.03920  -0.03922   0.85293
    D6        3.02769  -0.00044   0.00000  -0.03553  -0.03557   2.99212
    D7       -1.60891   0.00096   0.00000   0.03171   0.03179  -1.57713
    D8        2.23914  -0.00019   0.00000  -0.01319  -0.01327   2.22588
    D9       -0.70383   0.00689   0.00000  -0.00004  -0.00004  -0.70387
   D10        3.10477  -0.00123   0.00000   0.00063   0.00053   3.10530
   D11        0.35220   0.00078   0.00000  -0.02604  -0.02616   0.32604
   D12       -0.63553  -0.00047   0.00000   0.05610   0.05622  -0.57932
   D13        2.89509   0.00154   0.00000   0.02942   0.02953   2.92462
   D14       -3.03655   0.00559   0.00000  -0.02222  -0.02222  -3.05877
   D15       -1.00037   0.00494   0.00000  -0.02682  -0.02682  -1.02719
   D16        0.74794  -0.00181   0.00000  -0.01614  -0.01616   0.73178
   D17       -0.28488   0.00335   0.00000   0.00457   0.00458  -0.28029
   D18        1.75130   0.00271   0.00000  -0.00003  -0.00001   1.75128
   D19       -2.78357  -0.00405   0.00000   0.01065   0.01064  -2.77293
   D20        0.80540   0.00133   0.00000  -0.01364  -0.01364   0.79176
   D21        2.93813  -0.00214   0.00000  -0.01646  -0.01646   2.92167
   D22       -1.26042   0.00278   0.00000  -0.00671  -0.00671  -1.26713
         Item               Value     Threshold  Converged?
 Maximum Force            0.024140     0.000450     NO 
 RMS     Force            0.005703     0.000300     NO 
 Maximum Displacement     0.097000     0.001800     NO 
 RMS     Displacement     0.031332     0.001200     NO 
 Predicted change in Energy=-1.197743D-04
 Lowest energy point so far.  Saving SCF results.
 GradGradGradGradGradGradGradGradGradGradGradGradGradGradGradGradGradGrad

 Leave Link  103 at Thu Jan  9 14:34:35 2020, MaxMem=  4294967296 cpu:             115.6 elap:               9.0
 (Enter /home/cwagen/sw/g16/g16/l202.exe)
                          Input orientation:                          
 ---------------------------------------------------------------------
 Center     Atomic      Atomic             Coordinates (Angstroms)
 Number     Number       Type             X           Y           Z
 ---------------------------------------------------------------------
      1          6           0       -1.004239    0.227246    0.470042
      2          6           0       -1.856334   -0.294044   -0.672874
      3          1           0       -1.382337   -0.010572    1.473610
      4          1           0       -2.759160    0.322562   -0.740649
      5          1           0       -1.319468   -0.197042   -1.620246
      6          1           0       -2.156675   -1.335083   -0.526945
      7          8           0       -0.453927    1.377208    0.333234
      8          6           0        0.434364   -1.135151    0.707462
      9          6           0        1.213891   -0.735208   -0.367922
     10          1           0       -0.088271   -2.086792    0.672918
     11          1           0        0.736477   -0.808834    1.700052
     12          6           0        1.861021    0.518502   -0.350231
     13          1           0        1.046843   -1.217607   -1.330942
     14          1           0        2.398915    0.832699   -1.240809
     15          1           0        0.740811    1.172347   -0.213515
     16          1           0        2.332549    0.821557    0.585118
 ---------------------------------------------------------------------
                    Distance matrix (angstroms):
                    1          2          3          4          5
     1  C    0.000000
     2  C    1.517915   0.000000
     3  H    1.098483   2.216399   0.000000
     4  H    2.134152   1.095396   2.628605   0.000000
     5  H    2.156083   1.093229   3.100108   1.765331   0.000000
     6  H    2.182421   1.093280   2.521141   1.776639   1.786438
     7  O    1.282174   2.402515   2.021963   2.753108   2.653961
     8  C    1.995513   2.803584   2.269816   3.797440   3.061731
     9  C    2.559024   3.116713   3.264466   4.128309   2.876776
    10  H    2.496984   2.855021   2.574181   3.864817   3.216458
    11  H    2.369911   3.552246   2.275493   4.410959   3.952920
    12  C    2.994561   3.818777   3.758416   4.640786   3.498636
    13  H    3.088378   3.116802   3.901713   4.148039   2.593198
    14  H    3.856818   4.438383   4.730439   5.207317   3.876946
    15  H    2.098968   3.017694   2.958622   3.640028   2.845851
    16  H    3.391254   4.513740   3.909250   5.285088   4.386161
                    6          7          8          9         10
     6  H    0.000000
     7  O    3.315988   0.000000
     8  C    2.877015   2.690921   0.000000
     9  C    3.427222   2.781283   1.387108   0.000000
    10  H    2.506598   3.499769   1.086260   2.146102   0.000000
    11  H    3.688737   2.839724   1.087654   2.123644   1.835318
    12  C    4.428192   2.561930   2.426651   1.410986   3.410885
    13  H    3.304956   3.428535   2.130028   1.089963   2.461589
    14  H    5.095320   3.303455   3.395241   2.150476   4.286243
    15  H    3.844589   1.329775   2.503330   1.971399   3.477806
    16  H    5.103030   2.852480   2.728880   2.140841   3.785046
                   11         12         13         14         15
    11  H    0.000000
    12  C    2.688881   0.000000
    13  H    3.074141   2.153777   0.000000
    14  H    3.755929   1.086821   2.457637   0.000000
    15  H    2.754422   1.304253   2.655970   1.979901   0.000000
    16  H    2.539429   1.090440   3.079369   1.827167   1.815076
                   16
    16  H    0.000000
 Stoichiometry    C5H10O
 Framework group  C1[X(C5H10O)]
 Deg. of freedom    42
 Full point group                 C1      NOp   1
 RotChk:  IX=0 Diff= 7.71D-03
 Largest Abelian subgroup         C1      NOp   1
 Largest concise Abelian subgroup C1      NOp   1
                         Standard orientation:                         
 ---------------------------------------------------------------------
 Center     Atomic      Atomic             Coordinates (Angstroms)
 Number     Number       Type             X           Y           Z
 ---------------------------------------------------------------------
      1          6           0        1.001370   -0.222513    0.467033
      2          6           0        1.850962    0.304678   -0.675040
      3          1           0        1.377953    0.016099    1.470982
      4          1           0        2.757069   -0.307040   -0.743332
      5          1           0        1.314851    0.205968   -1.622663
      6          1           0        2.145731    1.347120   -0.527780
      7          8           0        0.457210   -1.375216    0.328699
      8          6           0       -0.444510    1.131933    0.705735
      9          6           0       -1.221638    0.729152   -0.370327
     10          1           0        0.073069    2.086379    0.672470
     11          1           0       -0.745128    0.802817    1.697855
     12          6           0       -1.862101   -0.528000   -0.354310
     13          1           0       -1.056920    1.213594   -1.332722
     14          1           0       -2.398100   -0.843974   -1.245402
     15          1           0       -0.738465   -1.176048   -0.218102
     16          1           0       -2.332241   -0.834685    0.580554
 ---------------------------------------------------------------------
 Rotational constants (GHZ):           5.0738780           2.8094347           2.3377016
 Leave Link  202 at Thu Jan  9 14:34:35 2020, MaxMem=  4294967296 cpu:               1.9 elap:               0.2
 (Enter /home/cwagen/sw/g16/g16/l301.exe)
 Standard basis: 6-31G(d) (6D, 7F)
 Ernie: Thresh=  0.10000D-02 Tol=  0.10000D-05 Strict=F.
 There are   110 symmetry adapted cartesian basis functions of A   symmetry.
 There are   110 symmetry adapted basis functions of A   symmetry.
   110 basis functions,   208 primitive gaussians,   110 cartesian basis functions
    24 alpha electrons       24 beta electrons
       nuclear repulsion energy       246.3854657086 Hartrees.
 IExCor= 4336 DFT=T Ex+Corr=M062X ExCW=0 ScaHFX=  0.540000
 ScaDFX=  1.000000  1.000000  1.000000  1.000000 ScalE2=  1.000000  1.000000
 IRadAn=      5 IRanWt=     -1 IRanGd=            0 ICorTp=0 IEmpDi=  4
 NAtoms=   16 NActive=   16 NUniq=   16 SFac= 1.00D+00 NAtFMM=   60 NAOKFM=F Big=F
 Integral buffers will be    131072 words long.
 Raffenetti 2 integral format.
 Two-electron integral symmetry is turned on.
 Leave Link  301 at Thu Jan  9 14:34:35 2020, MaxMem=  4294967296 cpu:               1.6 elap:               0.2
 (Enter /home/cwagen/sw/g16/g16/l302.exe)
 NPDir=0 NMtPBC=     1 NCelOv=     1 NCel=       1 NClECP=     1 NCelD=      1
         NCelK=      1 NCelE2=     1 NClLst=     1 CellRange=     0.0.
 One-electron integrals computed using PRISM.
 One-electron integral symmetry used in STVInt
 NBasis=   110 RedAO= T EigKep=  4.09D-03  NBF=   110
 NBsUse=   110 1.00D-06 EigRej= -1.00D+00 NBFU=   110
 Precomputing XC quadrature grid using
 IXCGrd= 4 IRadAn=           5 IRanWt=          -1 IRanGd=           0 AccXCQ= 0.00D+00.
 Generated NRdTot=       0 NPtTot=           0 NUsed=           0 NTot=          32
 NSgBfM=   110   110   110   110   110 MxSgAt=    16 MxSgA2=    16.
 Leave Link  302 at Thu Jan  9 14:34:37 2020, MaxMem=  4294967296 cpu:              24.5 elap:               2.1
 (Enter /home/cwagen/sw/g16/g16/l303.exe)
 DipDrv:  MaxL=1.
 Leave Link  303 at Thu Jan  9 14:34:38 2020, MaxMem=  4294967296 cpu:               3.0 elap:               0.3
 (Enter /home/cwagen/sw/g16/g16/l401.exe)
 Initial guess from the checkpoint file:  "/scratch/users/cwagen/cwagen_starting_TS/Gau-41850.chk"
 B after Tr=     0.000000    0.000000    0.000000
         Rot=    0.999996    0.000265    0.000219   -0.002703 Ang=   0.31 deg.
 Guess basis will be translated and rotated to current coordinates.
 JPrj=2 DoOrth=T DoCkMO=T.
 Generating alternative initial guess.
 ExpMin= 1.61D-01 ExpMax= 5.48D+03 ExpMxC= 8.25D+02 IAcc=2 IRadAn=         4 AccDes= 0.00D+00
 Harris functional with IExCor= 1009 and IRadAn=       4 diagonalized for initial guess.
 HarFok:  IExCor= 1009 AccDes= 0.00D+00 IRadAn=         4 IDoV= 1 UseB2=F ITyADJ=14
 ICtDFT=  3500011 ScaDFX=  1.000000  1.000000  1.000000  1.000000
 FoFCou: FMM=F IPFlag=           0 FMFlag=      100000 FMFlg1=           0
         NFxFlg=           0 DoJE=T BraDBF=F KetDBF=T FulRan=T
         wScrn=  0.000000 ICntrl=       500 IOpCl=  0 I1Cent=   200000004 NGrid=           0
         NMat0=    1 NMatS0=      1 NMatT0=    0 NMatD0=    1 NMtDS0=    0 NMtDT0=    0
 Petite list used in FoFCou.
 Harris En= -271.488717882885    
 Leave Link  401 at Thu Jan  9 14:34:42 2020, MaxMem=  4294967296 cpu:              46.8 elap:               4.1
 (Enter /home/cwagen/sw/g16/g16/l502.exe)
 Integral symmetry usage will be decided dynamically.
 Closed shell SCF:
 Using DIIS extrapolation, IDIIS=  1040.
 NGot=  4294967296 LenX=  4294939854 LenY=  4294927313
 Requested convergence on RMS density matrix=1.00D-08 within 128 cycles.
 Requested convergence on MAX density matrix=1.00D-06.
 Requested convergence on             energy=1.00D-06.
 No special actions if energy rises.
 Fock matrices will be formed incrementally for  20 cycles.
 Integral accuracy reduced to 1.0D-05 until final iterations.

 Cycle   1  Pass 0  IDiag  1:
 FoFJK:  IHMeth= 1 ICntrl=       0 DoSepK=F KAlg= 0 I1Cent=           0 FoldK=F
 IRaf= 990000000 NMat=       1 IRICut=       1 DoRegI=T DoRafI=F ISym2E= 0 IDoP0=0 IntGTp=1.
 FoFCou: FMM=F IPFlag=           0 FMFlag=      100000 FMFlg1=           0
         NFxFlg=           0 DoJE=F BraDBF=F KetDBF=F FulRan=T
         wScrn=  0.000000 ICntrl=         0 IOpCl=  0 I1Cent=           0 NGrid=           0
         NMat0=    1 NMatS0=      1 NMatT0=    0 NMatD0=    1 NMtDS0=    0 NMtDT0=    0
 Symmetry not used in FoFCou.
 E= -271.542120301517    
 DIIS: error= 1.29D-03 at cycle   1 NSaved=   1.
 NSaved= 1 IEnMin= 1 EnMin= -271.542120301517     IErMin= 1 ErrMin= 1.29D-03
 ErrMax= 1.29D-03  0.00D+00 EMaxC= 1.00D-01 BMatC= 6.33D-04 BMatP= 6.33D-04
 IDIUse=3 WtCom= 9.87D-01 WtEn= 1.29D-02
 Coeff-Com:  0.100D+01
 Coeff-En:   0.100D+01
 Coeff:      0.100D+01
 Gap=     1.742 Goal=   None    Shift=    0.000
 GapD=    1.742 DampG=2.000 DampE=1.000 DampFc=2.0000 IDamp=-1.
 RMSDP=3.43D-04 MaxDP=5.55D-03              OVMax= 1.19D-02

 Cycle   2  Pass 0  IDiag  1:
 RMSU=  3.43D-04    CP:  1.00D+00
 E= -271.543456773539     Delta-E=       -0.001336472021 Rises=F Damp=F
 DIIS: error= 5.01D-04 at cycle   2 NSaved=   2.
 NSaved= 2 IEnMin= 2 EnMin= -271.543456773539     IErMin= 2 ErrMin= 5.01D-04
 ErrMax= 5.01D-04  0.00D+00 EMaxC= 1.00D-01 BMatC= 5.44D-05 BMatP= 6.33D-04
 IDIUse=3 WtCom= 9.95D-01 WtEn= 5.01D-03
 Coeff-Com: -0.711D-01 0.107D+01
 Coeff-En:   0.000D+00 0.100D+01
 Coeff:     -0.707D-01 0.107D+01
 Gap=     0.310 Goal=   None    Shift=    0.000
 RMSDP=1.59D-04 MaxDP=1.86D-03 DE=-1.34D-03 OVMax= 5.20D-03

 Cycle   3  Pass 0  IDiag  1:
 RMSU=  1.45D-04    CP:  1.00D+00  1.18D+00
 E= -271.543537470035     Delta-E=       -0.000080696497 Rises=F Damp=F
 DIIS: error= 4.68D-04 at cycle   3 NSaved=   3.
 NSaved= 3 IEnMin= 3 EnMin= -271.543537470035     IErMin= 3 ErrMin= 4.68D-04
 ErrMax= 4.68D-04  0.00D+00 EMaxC= 1.00D-01 BMatC= 4.17D-05 BMatP= 5.44D-05
 IDIUse=3 WtCom= 9.95D-01 WtEn= 4.68D-03
 Coeff-Com: -0.101D+00 0.539D+00 0.562D+00
 Coeff-En:   0.000D+00 0.000D+00 0.100D+01
 Coeff:     -0.101D+00 0.537D+00 0.564D+00
 Gap=     0.309 Goal=   None    Shift=    0.000
 RMSDP=6.65D-05 MaxDP=1.24D-03 DE=-8.07D-05 OVMax= 3.02D-03

 Cycle   4  Pass 0  IDiag  1:
 RMSU=  4.78D-05    CP:  1.00D+00  1.28D+00  7.79D-01
 E= -271.543581288211     Delta-E=       -0.000043818176 Rises=F Damp=F
 DIIS: error= 1.70D-04 at cycle   4 NSaved=   4.
 NSaved= 4 IEnMin= 4 EnMin= -271.543581288211     IErMin= 4 ErrMin= 1.70D-04
 ErrMax= 1.70D-04  0.00D+00 EMaxC= 1.00D-01 BMatC= 3.52D-06 BMatP= 4.17D-05
 IDIUse=3 WtCom= 9.98D-01 WtEn= 1.70D-03
 Coeff-Com: -0.342D-01 0.102D+00 0.244D+00 0.687D+00
 Coeff-En:   0.000D+00 0.000D+00 0.000D+00 0.100D+01
 Coeff:     -0.341D-01 0.102D+00 0.244D+00 0.688D+00
 Gap=     0.309 Goal=   None    Shift=    0.000
 RMSDP=2.60D-05 MaxDP=4.39D-04 DE=-4.38D-05 OVMax= 1.07D-03

 Cycle   5  Pass 0  IDiag  1:
 RMSU=  1.92D-05    CP:  1.00D+00  1.30D+00  8.92D-01  9.93D-01
 E= -271.543585385261     Delta-E=       -0.000004097050 Rises=F Damp=F
 DIIS: error= 6.73D-05 at cycle   5 NSaved=   5.
 NSaved= 5 IEnMin= 5 EnMin= -271.543585385261     IErMin= 5 ErrMin= 6.73D-05
 ErrMax= 6.73D-05  0.00D+00 EMaxC= 1.00D-01 BMatC= 5.70D-07 BMatP= 3.52D-06
 IDIUse=1 WtCom= 1.00D+00 WtEn= 0.00D+00
 Coeff-Com:  0.715D-02-0.773D-01-0.241D-02 0.295D+00 0.778D+00
 Coeff:      0.715D-02-0.773D-01-0.241D-02 0.295D+00 0.778D+00
 Gap=     0.309 Goal=   None    Shift=    0.000
 RMSDP=1.39D-05 MaxDP=1.67D-04 DE=-4.10D-06 OVMax= 5.70D-04

 Cycle   6  Pass 0  IDiag  1:
 RMSU=  5.94D-06    CP:  1.00D+00  1.31D+00  9.47D-01  1.17D+00  9.14D-01
 E= -271.543586342260     Delta-E=       -0.000000956999 Rises=F Damp=F
 DIIS: error= 1.97D-05 at cycle   6 NSaved=   6.
 NSaved= 6 IEnMin= 6 EnMin= -271.543586342260     IErMin= 6 ErrMin= 1.97D-05
 ErrMax= 1.97D-05  0.00D+00 EMaxC= 1.00D-01 BMatC= 5.67D-08 BMatP= 5.70D-07
 IDIUse=1 WtCom= 1.00D+00 WtEn= 0.00D+00
 Coeff-Com:  0.684D-02-0.401D-01-0.223D-01 0.214D-01 0.279D+00 0.755D+00
 Coeff:      0.684D-02-0.401D-01-0.223D-01 0.214D-01 0.279D+00 0.755D+00
 Gap=     0.309 Goal=   None    Shift=    0.000
 RMSDP=4.18D-06 MaxDP=4.82D-05 DE=-9.57D-07 OVMax= 2.34D-04

 Initial convergence to 1.0D-05 achieved.  Increase integral accuracy.
 Cycle   7  Pass 1  IDiag  1:
 E= -271.543533588860     Delta-E=        0.000052753400 Rises=F Damp=F
 DIIS: error= 1.13D-05 at cycle   1 NSaved=   1.
 NSaved= 1 IEnMin= 1 EnMin= -271.543533588860     IErMin= 1 ErrMin= 1.13D-05
 ErrMax= 1.13D-05  0.00D+00 EMaxC= 1.00D-01 BMatC= 5.71D-08 BMatP= 5.71D-08
 IDIUse=1 WtCom= 1.00D+00 WtEn= 0.00D+00
 Coeff-Com:  0.100D+01
 Coeff:      0.100D+01
 Gap=     0.309 Goal=   None    Shift=    0.000
 RMSDP=4.18D-06 MaxDP=4.82D-05 DE= 5.28D-05 OVMax= 7.83D-05

 Cycle   8  Pass 1  IDiag  1:
 RMSU=  4.64D-06    CP:  1.00D+00
 E= -271.543533633324     Delta-E=       -0.000000044463 Rises=F Damp=F
 DIIS: error= 1.02D-05 at cycle   2 NSaved=   2.
 NSaved= 2 IEnMin= 2 EnMin= -271.543533633324     IErMin= 2 ErrMin= 1.02D-05
 ErrMax= 1.02D-05  0.00D+00 EMaxC= 1.00D-01 BMatC= 1.67D-08 BMatP= 5.71D-08
 IDIUse=1 WtCom= 1.00D+00 WtEn= 0.00D+00
 Coeff-Com:  0.288D+00 0.712D+00
 Coeff:      0.288D+00 0.712D+00
 Gap=     0.309 Goal=   None    Shift=    0.000
 RMSDP=1.81D-06 MaxDP=3.03D-05 DE=-4.45D-08 OVMax= 8.25D-05

 Cycle   9  Pass 1  IDiag  1:
 RMSU=  1.70D-06    CP:  1.00D+00  8.65D-01
 E= -271.543533645746     Delta-E=       -0.000000012422 Rises=F Damp=F
 DIIS: error= 4.44D-06 at cycle   3 NSaved=   3.
 NSaved= 3 IEnMin= 3 EnMin= -271.543533645746     IErMin= 3 ErrMin= 4.44D-06
 ErrMax= 4.44D-06  0.00D+00 EMaxC= 1.00D-01 BMatC= 6.91D-09 BMatP= 1.67D-08
 IDIUse=1 WtCom= 1.00D+00 WtEn= 0.00D+00
 Coeff-Com: -0.418D-01 0.384D+00 0.658D+00
 Coeff:     -0.418D-01 0.384D+00 0.658D+00
 Gap=     0.309 Goal=   None    Shift=    0.000
 RMSDP=7.79D-07 MaxDP=1.03D-05 DE=-1.24D-08 OVMax= 2.48D-05

 Cycle  10  Pass 1  IDiag  1:
 RMSU=  3.35D-07    CP:  1.00D+00  9.77D-01  7.19D-01
 E= -271.543533653003     Delta-E=       -0.000000007257 Rises=F Damp=F
 DIIS: error= 7.69D-07 at cycle   4 NSaved=   4.
 NSaved= 4 IEnMin= 4 EnMin= -271.543533653003     IErMin= 4 ErrMin= 7.69D-07
 ErrMax= 7.69D-07  0.00D+00 EMaxC= 1.00D-01 BMatC= 5.89D-11 BMatP= 6.91D-09
 IDIUse=1 WtCom= 1.00D+00 WtEn= 0.00D+00
 Coeff-Com: -0.151D-01 0.563D-01 0.901D-01 0.869D+00
 Coeff:     -0.151D-01 0.563D-01 0.901D-01 0.869D+00
 Gap=     0.309 Goal=   None    Shift=    0.000
 RMSDP=1.58D-07 MaxDP=2.67D-06 DE=-7.26D-09 OVMax= 6.98D-06

 Cycle  11  Pass 1  IDiag  1:
 RMSU=  1.13D-07    CP:  1.00D+00  9.88D-01  7.30D-01  1.28D+00
 E= -271.543533653107     Delta-E=       -0.000000000104 Rises=F Damp=F
 DIIS: error= 4.90D-07 at cycle   5 NSaved=   5.
 NSaved= 5 IEnMin= 5 EnMin= -271.543533653107     IErMin= 5 ErrMin= 4.90D-07
 ErrMax= 4.90D-07  0.00D+00 EMaxC= 1.00D-01 BMatC= 3.15D-11 BMatP= 5.89D-11
 IDIUse=1 WtCom= 1.00D+00 WtEn= 0.00D+00
 Coeff-Com:  0.258D-02-0.451D-01-0.949D-01 0.426D+00 0.711D+00
 Coeff:      0.258D-02-0.451D-01-0.949D-01 0.426D+00 0.711D+00
 Gap=     0.309 Goal=   None    Shift=    0.000
 RMSDP=8.03D-08 MaxDP=1.47D-06 DE=-1.04D-10 OVMax= 3.89D-06

 Cycle  12  Pass 1  IDiag  1:
 RMSU=  4.72D-08    CP:  1.00D+00  9.92D-01  7.34D-01  1.46D+00  8.72D-01
 E= -271.543533653150     Delta-E=       -0.000000000043 Rises=F Damp=F
 DIIS: error= 1.74D-07 at cycle   6 NSaved=   6.
 NSaved= 6 IEnMin= 6 EnMin= -271.543533653150     IErMin= 6 ErrMin= 1.74D-07
 ErrMax= 1.74D-07  0.00D+00 EMaxC= 1.00D-01 BMatC= 3.09D-12 BMatP= 3.15D-11
 IDIUse=1 WtCom= 1.00D+00 WtEn= 0.00D+00
 Coeff-Com:  0.204D-02-0.213D-01-0.456D-01 0.437D-01 0.270D+00 0.751D+00
 Coeff:      0.204D-02-0.213D-01-0.456D-01 0.437D-01 0.270D+00 0.751D+00
 Gap=     0.309 Goal=   None    Shift=    0.000
 RMSDP=3.33D-08 MaxDP=5.65D-07 DE=-4.31D-11 OVMax= 1.51D-06

 Cycle  13  Pass 1  IDiag  1:
 RMSU=  1.90D-08    CP:  1.00D+00  9.94D-01  7.34D-01  1.53D+00  9.81D-01
                    CP:  1.02D+00
 E= -271.543533653153     Delta-E=       -0.000000000003 Rises=F Damp=F
 DIIS: error= 6.66D-08 at cycle   7 NSaved=   7.
 NSaved= 7 IEnMin= 7 EnMin= -271.543533653153     IErMin= 7 ErrMin= 6.66D-08
 ErrMax= 6.66D-08  0.00D+00 EMaxC= 1.00D-01 BMatC= 7.74D-13 BMatP= 3.09D-12
 IDIUse=1 WtCom= 1.00D+00 WtEn= 0.00D+00
 Coeff-Com:  0.752D-03-0.154D-02-0.521D-02-0.706D-01-0.197D-02 0.394D+00
 Coeff-Com:  0.685D+00
 Coeff:      0.752D-03-0.154D-02-0.521D-02-0.706D-01-0.197D-02 0.394D+00
 Coeff:      0.685D+00
 Gap=     0.309 Goal=   None    Shift=    0.000
 RMSDP=1.41D-08 MaxDP=1.93D-07 DE=-3.30D-12 OVMax= 7.44D-07

 Cycle  14  Pass 1  IDiag  1:
 RMSU=  6.15D-09    CP:  1.00D+00  9.94D-01  7.34D-01  1.56D+00  1.03D+00
                    CP:  1.18D+00  8.70D-01
 E= -271.543533653155     Delta-E=       -0.000000000002 Rises=F Damp=F
 DIIS: error= 1.88D-08 at cycle   8 NSaved=   8.
 NSaved= 8 IEnMin= 8 EnMin= -271.543533653155     IErMin= 8 ErrMin= 1.88D-08
 ErrMax= 1.88D-08  0.00D+00 EMaxC= 1.00D-01 BMatC= 3.78D-14 BMatP= 7.74D-13
 IDIUse=1 WtCom= 1.00D+00 WtEn= 0.00D+00
 Coeff-Com: -0.120D-03 0.253D-02 0.465D-02-0.227D-01-0.316D-01-0.772D-02
 Coeff-Com:  0.169D+00 0.886D+00
 Coeff:     -0.120D-03 0.253D-02 0.465D-02-0.227D-01-0.316D-01-0.772D-02
 Coeff:      0.169D+00 0.886D+00
 Gap=     0.309 Goal=   None    Shift=    0.000
 RMSDP=4.65D-09 MaxDP=7.53D-08 DE=-2.16D-12 OVMax= 2.50D-07

 SCF Done:  E(RM062X) =  -271.543533653     A.U. after   14 cycles
            NFock= 14  Conv=0.47D-08     -V/T= 2.0086
 KE= 2.692348706026D+02 PE=-1.124050713962D+03 EE= 3.368868439971D+02
 Leave Link  502 at Thu Jan  9 14:35:13 2020, MaxMem=  4294967296 cpu:             416.8 elap:              31.2
 (Enter /home/cwagen/sw/g16/g16/l701.exe)
 ... and contract with generalized density number  0.
 Compute integral first derivatives.
 Leave Link  701 at Thu Jan  9 14:35:14 2020, MaxMem=  4294967296 cpu:              12.0 elap:               1.2
 (Enter /home/cwagen/sw/g16/g16/l702.exe)
 L702 exits ... SP integral derivatives will be done elsewhere.
 Leave Link  702 at Thu Jan  9 14:35:14 2020, MaxMem=  4294967296 cpu:               2.0 elap:               0.2
 (Enter /home/cwagen/sw/g16/g16/l703.exe)
 Integral derivatives from FoFJK, PRISM(SPDF).
 Compute integral first derivatives, UseDBF=F ICtDFT=           0.
 Calling FoFJK, ICntrl=      2127 FMM=F ISym2X=0 I1Cent= 0 IOpClX= 0 NMat=1 NMatS=1 NMatT=0.
 FoFJK:  IHMeth= 1 ICntrl=    2127 DoSepK=F KAlg= 0 I1Cent=           0 FoldK=F
 IRaf=         0 NMat=       1 IRICut=       1 DoRegI=T DoRafI=F ISym2E= 0 IDoP0=0 IntGTp=1.
 FoFCou: FMM=F IPFlag=           0 FMFlag=      100000 FMFlg1=         800
         NFxFlg=           0 DoJE=F BraDBF=F KetDBF=F FulRan=T
         wScrn=  0.000000 ICntrl=      2127 IOpCl=  0 I1Cent=           0 NGrid=           0
         NMat0=    1 NMatS0=      1 NMatT0=    0 NMatD0=    1 NMtDS0=    0 NMtDT0=    0
 Symmetry not used in FoFCou.
 Leave Link  703 at Thu Jan  9 14:35:19 2020, MaxMem=  4294967296 cpu:              50.1 elap:               4.7
 (Enter /home/cwagen/sw/g16/g16/l716.exe)
 Dipole        =-5.38279837D-02 8.63930819D-01-1.53374097D-01
 ***** Axes restored to original set *****
 -------------------------------------------------------------------
 Center     Atomic                   Forces (Hartrees/Bohr)
 Number     Number              X              Y              Z
 -------------------------------------------------------------------
      1        6          -0.000145451   -0.000714262   -0.000097232
      2        6          -0.000086797   -0.000008814   -0.000059431
      3        1          -0.000007925   -0.000004951    0.000013121
      4        1          -0.000018440   -0.000017950   -0.000002098
      5        1          -0.000010434    0.000017522    0.000012682
      6        1           0.000018821   -0.000018245   -0.000013788
      7        8           0.000387846    0.000825845   -0.000053523
      8        6          -0.000192475   -0.000069437    0.000557551
      9        6           0.000255252    0.000132783   -0.000579879
     10        1          -0.000032734   -0.000000862    0.000007960
     11        1           0.000010050    0.000003548    0.000027299
     12        6           0.000132001   -0.000130348   -0.000056939
     13        1           0.000005384   -0.000025278    0.000018002
     14        1           0.000030765   -0.000008855    0.000005127
     15        1          -0.000302923   -0.000007603    0.000209030
     16        1          -0.000042940    0.000026909    0.000012117
 -------------------------------------------------------------------
 Cartesian Forces:  Max     0.000825845 RMS     0.000220856
 Leave Link  716 at Thu Jan  9 14:35:19 2020, MaxMem=  4294967296 cpu:               1.2 elap:               0.1
 (Enter /home/cwagen/sw/g16/g16/l103.exe)

 GradGradGradGradGradGradGradGradGradGradGradGradGradGradGradGradGradGrad
 Berny optimization.
[...]

 ----------------------------------------------------------------------

 Dipole orientation:
     6         -1.83191332          0.87726484         -0.67584441
     6         -3.58474344         -1.00746413          0.59042604
     1         -2.47008526          2.85105160         -0.59997783
     1         -5.25406436         -1.25613205         -0.60816843
     1         -2.65742071         -2.84612431          0.75504020
     1         -4.20500915         -0.37486825          2.45682368
     8         -0.71388134          0.19672590         -2.71587275
     6          0.79843610          1.66930363          1.91342094
     6          2.19139517         -0.53084708          1.60764029
     1         -0.26709248          1.97492162          3.64113290
     1          1.49064324          3.37450988          0.99819072
     6          3.51336157         -0.97754548         -0.66504149
     1          1.74194334         -2.13988889          2.81227178
     1          4.46464159         -2.78274468         -0.89848962
     1          1.46949348         -0.84863449         -2.03499896
     1          4.52121603          0.61759137         -1.49337165

 Electric dipole moment (dipole orientation):
 (Debye = 10**-18 statcoulomb cm , SI units = C m)
                  (au)            (Debye)         (10**-30 SI)
   Tot        0.881415D+00      0.224033D+01      0.747294D+01
   x          0.000000D+00      0.000000D+00      0.000000D+00
   y          0.000000D+00      0.000000D+00      0.000000D+00
   z          0.881415D+00      0.224033D+01      0.747294D+01

 Dipole polarizability, Alpha (dipole orientation).
 (esu units = cm**3 , SI units = C**2 m**2 J**-1)
 Alpha(0;0):
               (au)            (10**-24 esu)      (10**-40 SI)
   iso        0.613873D+02      0.909666D+01      0.101214D+02
   aniso      0.210396D+02      0.311775D+01      0.346897D+01
   xx         0.723008D+02      0.107139D+02      0.119208D+02
   yx        -0.727719D+01     -0.107837D+01     -0.119985D+01
   yy         0.547378D+02      0.811131D+01      0.902505D+01
   zx        -0.111181D+01     -0.164753D+00     -0.183313D+00
   zy         0.161577D+01      0.239432D+00      0.266404D+00
   zz         0.571233D+02      0.846479D+01      0.941835D+01

 ----------------------------------------------------------------------
 1\1\GINC-NODE096\Freq\RM062X\6-31G(d)\C5H10O1\CWAGEN\09-Jan-2020\0\\#P
  Geom=AllCheck Guess=TCheck SCRF=Check GenChk RM062X/6-31G(d) Freq\\ti
 tle\\0,1\C,-1.0050618949,0.2275847614,0.4703411898\C,-1.8544294838,-0.
 2921771133,-0.6753084399\H,-1.3842107716,-0.0127864418,1.472872809\H,-
 2.7624322234,0.3174255567,-0.7374768942\H,-1.3191821587,-0.1831978129,
 -1.622256466\H,-2.1460772322,-1.3367441294,-0.537176976\O,-0.454163237
 8,1.3781540397,0.3368309447\C,0.4354970923,-1.1352637028,0.711049887\C
 ,1.2120974979,-0.7369865588,-0.3675247136\H,-0.0876532331,-2.086749036
 6,0.6801084444\H,0.7382641937,-0.8048915534,1.7020967712\C,1.859202754
 6,0.5170643128,-0.3522006463\H,1.0431152789,-1.2215537372,-1.329067910
 2\H,2.395678718,0.8304810312,-1.2439254035\H,0.7403785525,1.1717185381
 ,-0.2119975379\H,2.3334341477,0.8197098464,0.5819369417\\Version=AS64L
 -G16RevA.03\State=1-A\HF=-271.5435359\RMSD=1.200e-09\RMSF=2.874e-05\Ze
 roPoint=0.1378608\Thermal=0.1444639\Dipole=0.0446546,-0.8664297,-0.155
 5542\DipoleDeriv=0.9623282,-0.0039415,0.0909635,-0.5037706,0.8429008,0
 .0890688,0.4138351,0.075966,0.4969579,-0.1598293,-0.0230843,-0.1013482
 ,0.0794522,0.0781486,-0.0210821,-0.0574483,-0.1048399,-0.1353907,-0.14
 85602,-0.0260324,0.0723506,-0.0030396,0.0472414,0.0090217,-0.0033734,0
 .0268553,-0.1599826,-0.0968133,0.0744658,-0.0331705,0.0688105,0.017600
 9,-0.0042108,-0.0844727,-0.0070322,0.0629489,0.0200053,-0.0100829,0.09
 39338,-0.0291754,0.0447826,0.0070305,0.0305924,-0.0000491,-0.0536552,0
 .0427957,-0.0113534,-0.0072805,-0.0843718,-0.1086067,0.0073619,-0.0027
 696,0.0538772,0.0340575,-0.61399,0.0383421,-0.0361918,0.2481866,-1.015
 2029,-0.0659099,-0.1731723,-0.0482463,-0.4287775,-0.757944,0.1237191,0
 .1443471,0.3637199,-0.0440081,0.0117508,0.2551273,-0.0068527,-0.070001
 1,0.2653612,0.347304,-0.0907507,0.6485838,0.1107634,-0.1565246,-0.3996
 332,0.0510456,0.2026228,0.0990395,-0.0739535,-0.0053759,-0.1075014,-0.
 0309368,0.0134389,0.0047084,-0.0107468,0.0351229,0.0945801,-0.0250924,
 -0.056962,-0.0772947,0.0255901,-0.0276378,-0.0192019,-0.0074929,-0.036
 2766,-0.0146202,0.1675509,-0.1016007,-0.3521009,-0.4656596,0.1210364,-
 0.0091168,-0.0374094,0.0597615,0.0994424,-0.0732974,-0.024922,-0.05223
 44,0.043965,-0.0494156,-0.0056236,-0.0681496,-0.0534648,-0.0054211,-0.
 1050166,0.0638862,-0.0211831,0.1128747,-0.0011524,0.0527339,0.0312234,
 -0.0307394,0.2327445,-0.3022289,-0.0122398,-0.1834338,0.2230001,0.0706
 058,0.025739,0.0725558,0.1272901,-0.0191189,-0.0972987,0.0043608,0.005
 3529,0.1175466,-0.0033817,-0.0279244,-0.0207045,-0.0504738\Polar=72.72
 5804,3.0741557,57.8444543,-5.970268,-1.2321149,53.5916322\Quadrupole=1
 .0187989,-2.5229242,1.5041252,1.9008337,-0.4939365,-0.5624611\PG=C01 [
 X(C5H10O1)]\NImag=1\\0.40054482,0.29106526,0.46226312,-0.05137692,-0.0
 3478726,0.60719791,-0.10790840,-0.03344060,-0.05071617,0.54176503,-0.0
 2352441,-0.07797183,-0.02645614,0.00039162,0.59378310,-0.05207509,-0.0
 2329513,-0.17935561,-0.04883304,-0.02606781,0.54102997,-0.06742441,-0.
 03272565,0.07954385,0.00946932,0.00106091,-0.01812977,0.07960085,-0.02
 101472,-0.03988475,0.03188619,0.00338676,0.00494524,-0.00833482,0.0310
 7584,0.06759660,0.07216875,0.03513933,-0.27865518,0.01020784,0.0033617
 9,-0.01813542,-0.08191342,-0.05240532,0.29191101,-0.01651564,0.0096289
 5,-0.00086075,-0.23396161,0.12661267,-0.00967066,0.00041520,-0.0003107
 1,-0.00026554,0.25192044,-0.00966274,0.00446158,0.00059370,0.12511157,
 -0.13394633,0.00729895,0.00062937,0.00009895,0.00041632,-0.13835810,0.
 14125375,-0.02177741,0.01173301,-0.00084822,-0.01240121,0.00919510,-0.
 04780966,0.00115345,0.00008076,0.00011155,0.01384908,-0.00775630,0.049
 63042,0.00967646,0.00344665,-0.02163129,-0.11568991,-0.01531146,0.1217
 9479,-0.00194027,-0.00204989,-0.00339109,-0.01282278,-0.00401059,0.023
 95588,0.12481561,0.00686677,0.00062769,-0.00869565,-0.01500263,-0.0520
 4804,0.02384129,-0.00133619,-0.00000107,-0.00146488,0.00880224,0.00173
 077,-0.01737897,0.01512358,0.04970173,0.01512841,0.00482240,-0.0250112
 1,0.11954504,0.02302167,-0.25350106,-0.00359704,-0.00212120,-0.0028705
 1,-0.00155973,-0.00047658,0.00242860,-0.12885315,-0.02555953,0.2749418
 1,-0.00535164,-0.01720304,0.00827068,-0.06695273,-0.06823879,0.0096146
 9,0.00044082,0.00060330,-0.00017680,0.00941415,0.02675358,-0.00362633,
 -0.00462141,-0.01521529,0.00014780,0.06973316,0.00168950,-0.00865904,0
 .00593190,-0.07028470,-0.30107143,0.03364843,-0.00008272,0.00011571,-0
 .00074194,-0.00562925,-0.01568899,0.00213543,0.00056039,-0.00052001,-0
 .00006068,0.07598554,0.32518630,-0.00370471,-0.02422353,0.00916546,0.0
 1064108,0.03607900,-0.05685715,0.00108746,0.00104690,-0.00008612,0.000
 59101,0.00074177,-0.00138363,0.00531802,0.02794150,-0.00135608,-0.0086
 0708,-0.03825870,0.05471141,-0.18423129,-0.10553155,0.01666817,-0.0048
 3240,-0.03951530,-0.00434139,-0.00155250,-0.03155823,0.01049125,0.0035
 1700,0.00100057,0.00407547,0.00090714,0.00089166,-0.00036001,-0.002660
 56,-0.00313823,-0.00535787,0.18183770,-0.19349208,-0.36463253,0.024128
 70,-0.01595504,-0.03090445,-0.00735489,-0.00693334,-0.02610845,0.01503
 627,-0.00072379,0.00074794,0.00155697,0.00164163,0.00047225,0.00093732
 ,-0.00346898,-0.00045241,-0.00348090,0.14953848,0.51072263,0.03050882,
 0.01528154,-0.09731830,-0.01380803,-0.02727350,0.01479453,0.01057758,0
 .03793212,0.00529813,-0.00011831,-0.00035635,-0.00038387,0.00259517,0.
 00091251,0.00438904,-0.00554873,-0.00317498,-0.00395784,-0.02468926,-0
 .01915065,0.08709047,0.01670097,-0.10466163,0.01317114,-0.01851494,0.0
 1267123,-0.00002502,-0.02060723,0.01597295,-0.00227207,-0.00158965,-0.
 00121401,-0.00404243,0.00080839,-0.00031406,-0.00006403,-0.00023454,0.
 00023168,0.00002617,0.04848451,0.05211280,-0.01520148,0.31370648,-0.03
 298917,0.03523672,-0.00978293,0.00468399,-0.00112742,-0.00046877,0.009
 09603,-0.00563786,-0.00004955,-0.00068153,0.00053838,0.00058449,-0.000
 28096,-0.00032564,0.00001404,-0.00040977,0.00006701,-0.00050296,-0.011
 89457,-0.04345106,0.01273497,0.29870106,0.49288576,-0.01606921,0.02911
 532,-0.02634893,-0.00764113,0.00573246,-0.00194910,0.01119905,-0.00824
 004,-0.00013627,-0.00118755,-0.00027213,-0.00070454,0.00057629,0.00021
 735,0.00072242,0.00032153,0.00071892,0.00028392,-0.01557599,-0.0202117
 8,0.00416125,-0.06247188,-0.00162082,0.69523182,-0.03244419,0.06487735
 ,-0.00066432,0.00162122,-0.00374198,-0.00156838,0.00307706,-0.00443137
 ,0.00004640,0.00117616,0.00021359,0.00180118,-0.00124800,0.00030046,0.
 00039304,-0.00035692,-0.00056037,-0.00049881,-0.03978735,-0.02161792,0
 .01979223,-0.13147934,-0.09410382,0.13236287,0.37249188,-0.01710201,0.
 05410769,-0.01008973,0.00440558,-0.00310729,-0.00088801,0.00671673,-0.
 00530526,0.00171662,0.00092155,0.00026087,0.00116637,0.00053126,0.0005
 4226,0.00034768,0.00018301,0.00007586,0.00021847,-0.03842526,-0.039820
 83,0.01526038,-0.04274585,-0.13006866,0.05386767,0.21501300,0.53980845
 ,0.02174650,-0.05142868,0.00349129,-0.00649551,0.00462464,0.00186551,-
 0.00516415,0.00357537,0.00023364,-0.00143999,-0.00052579,-0.00215507,-
 0.00051784,0.00031161,-0.00039889,0.00013685,-0.00003314,0.00013849,0.
 02594204,0.02531088,-0.00675496,0.11839642,0.08472279,-0.30414802,-0.1
 0667828,0.06494027,0.69487151,0.00433323,0.01181273,-0.00064365,0.0006
 7888,-0.00016205,-0.00036718,0.00083812,-0.00062609,0.00038431,0.00019
 987,-0.00016640,0.00034642,-0.00008564,-0.00002411,0.00007756,-0.00074
 252,0.00015104,-0.00043441,-0.00412782,0.00076023,-0.00054394,-0.10259
 506,-0.13227444,-0.00548869,-0.01155906,-0.02161926,-0.00129445,0.1136
 4077,-0.00477504,-0.00884350,-0.00004303,-0.00121099,0.00016449,0.0002
 0898,-0.00027151,0.00033084,-0.00036798,0.00001883,0.00044663,-0.00032
 806,0.00011436,-0.00001134,-0.00010833,0.00062934,0.00065967,0.0002736
 6,0.00361774,-0.00049639,0.00047319,-0.13915907,-0.27417426,-0.0088114
 4,0.00284118,-0.00084837,-0.00366497,0.14329373,0.28760917,0.00036582,
 0.00203791,-0.00035505,0.00001731,0.00027042,-0.00005874,-0.00014727,-
 0.00025663,-0.00031125,0.00005568,-0.00016080,-0.00002042,0.00003808,0
 .00008079,-0.00006152,-0.00056192,0.00008147,-0.00001120,-0.00103121,0
 .00004846,0.00044724,-0.00380485,-0.01392135,-0.05819655,0.00910816,0.
 02390111,0.00507691,0.00257449,0.01025419,0.05325643,-0.01033488,0.006
 36033,-0.01121650,-0.00186925,0.00142099,0.00035152,-0.00053768,-0.000
 29162,-0.00086118,-0.00045981,0.00012627,-0.00053042,0.00021337,0.0000
 5526,0.00017527,0.00024455,0.00032219,0.00006806,-0.00244752,-0.004687
 23,0.00256619,-0.05702838,-0.04063407,-0.08015175,0.00406571,0.0037241
 9,0.02387363,-0.00307409,-0.00187299,-0.01169861,0.06776211,0.00893537
 ,-0.00622613,0.00848654,0.00086713,-0.00139387,-0.00003159,-0.00018230
 ,0.00075960,0.00101316,0.00037919,0.00018715,0.00029198,-0.00011578,-0
 .00000427,-0.00010521,0.00014106,0.00014931,-0.00002416,0.00295674,0.0
 0405107,-0.00165895,-0.04348623,-0.07556697,-0.07691133,0.00731908,0.0
 0825264,0.00228261,-0.00562633,-0.00445479,-0.02400440,0.03475552,0.07
 496028,-0.00043063,0.00030273,-0.00243276,-0.00043630,0.00016957,0.000
 43420,0.00073704,-0.00053934,0.00135318,-0.00001161,0.00001027,-0.0000
 4684,0.00013895,-0.00005619,0.00015002,0.00005042,-0.00000316,-0.00002
 524,-0.00058227,-0.00026240,0.00080562,-0.07073074,-0.08146795,-0.2932
 1351,-0.00863312,-0.00927222,-0.02105726,0.00111373,0.00106840,0.00284
 190,0.07489277,0.08815663,0.31201798,-0.00527124,0.03851640,-0.0041717
 4,0.00017054,-0.00110038,-0.00125945,0.00414897,-0.00404531,0.00124784
 ,0.00030850,-0.00013036,0.00042968,-0.00017043,0.00012509,0.00019225,0
 .00004691,-0.00018008,-0.00021299,-0.06776398,-0.01591856,0.02500706,0
 .01187634,-0.02699646,-0.00201495,-0.14870345,-0.16345810,0.00708756,0
 .00045842,-0.00227547,0.00299934,-0.00305941,0.00331441,-0.00127036,0.
 42372541,0.01486057,-0.08116751,0.01237289,-0.00406303,0.00605643,0.00
 253872,-0.00564225,0.00814984,-0.00243321,-0.00118941,-0.00035941,-0.0
 0243639,0.00064417,-0.00031799,-0.00073057,0.00045231,0.00050048,0.000
 58245,0.08432352,0.03432418,-0.03386651,-0.06361719,0.00792633,0.02799
 399,-0.11059521,-0.25637955,-0.03430568,0.00250983,-0.00022421,0.00101
 562,0.00613307,-0.00516260,-0.00025857,0.26004107,0.43552710,0.0036627
 9,-0.00656041,0.00012033,-0.00017609,0.00020275,-0.00007392,-0.0000161
 1,-0.00034922,0.00006570,0.00005875,0.00034238,0.00020438,0.00026384,0
 .00015726,0.00031089,-0.00005098,0.00015854,0.00013068,0.01561854,0.00
 259895,-0.00307340,0.01120095,0.02853635,0.00847474,0.00577697,-0.0020
 9356,-0.10932508,0.00554065,0.00073578,-0.00313667,0.00037051,0.000079
 39,0.00124437,-0.02998880,-0.00481091,0.64536322,0.00123501,0.00002205
 ,-0.00079222,-0.00000858,0.00015845,-0.00006347,0.00064979,-0.00027554
 ,0.00025422,0.00006774,-0.00007951,-0.00010601,-0.00067679,0.00038170,
 -0.00012971,-0.00006160,-0.00011244,0.00008646,-0.00017384,0.00050638,
 -0.00029744,0.00731501,0.00550284,0.01854601,-0.05617925,-0.02748971,-
 0.04070752,-0.00235831,0.00178185,-0.00103534,0.00169237,-0.00390518,0
 .00296432,0.00246341,-0.00710212,-0.01246333,0.04591353,-0.00119766,0.
 00124453,-0.00007918,0.00002666,0.00018957,-0.00065705,-0.00022361,-0.
 00000520,-0.00027329,-0.00015424,-0.00004573,0.00025640,0.00015469,-0.
 00003618,0.00029026,-0.00003738,-0.00012901,0.00002568,-0.00049548,-0.
 00077187,0.00055655,0.00217442,0.00787250,0.00853500,-0.02511323,-0.11
 028997,-0.10743712,0.00303114,-0.00103474,0.00028303,-0.00453937,0.003
 12016,0.00151424,-0.00938582,-0.00520881,-0.02576333,0.03479531,0.1079
 6819,-0.00019988,-0.00026133,-0.00062561,-0.00000730,0.00010526,-0.000
 22826,-0.00004676,0.00009125,0.00027602,-0.00003363,0.00006014,0.00029
 728,-0.00009995,-0.00010616,0.00050637,0.00012816,-0.00002916,-0.00003
 565,0.00043740,0.00032878,0.00006482,-0.00671498,-0.01153437,-0.019498
 18,-0.03361927,-0.11220757,-0.27588952,-0.00080725,0.00068536,0.000949
 25,0.00446369,0.00030168,-0.00205039,0.00189897,0.00093168,0.00324558,
 0.03518667,0.12157252,0.29143528,0.00121450,-0.00344149,0.00063528,-0.
 00027900,0.00051766,0.00037179,-0.00023996,0.00036637,-0.00013862,-0.0
 0012370,-0.00010787,-0.00023198,0.00006007,-0.00013087,-0.00009298,0.0
 0006375,-0.00005657,-0.00003224,0.00008971,0.00192361,-0.00093016,-0.0
 0064150,-0.00324327,0.00136446,-0.00391975,0.00479678,0.00640918,0.000
 42439,-0.00063177,0.00104892,-0.00011796,0.00009919,0.00058441,-0.1149
 8874,-0.05486194,0.12045123,-0.00215859,0.00165496,-0.00043619,0.11826
 975,0.00035451,0.00107475,-0.00063468,-0.00005181,-0.00025720,-0.00012
 413,0.00016573,-0.00035895,0.00004062,0.00002669,0.00008815,0.00009430
 ,-0.00005710,0.00010855,0.00007037,0.00000386,0.00006231,0.00002890,0.
 00015530,-0.00050309,0.00049535,-0.00259727,-0.00469200,-0.00286110,-0
 .01692209,-0.00716493,0.02964580,-0.00124507,-0.00004308,0.00103713,0.
 00009724,-0.00014216,-0.00034545,-0.04772819,-0.06471287,0.06039963,0.
 00304772,-0.00018671,0.00019895,0.05423637,0.07034546,-0.00013888,-0.0
 0161546,0.00028304,-0.00003881,0.00014759,0.00009562,-0.00016776,0.000
 10345,-0.00001117,-0.00001628,-0.00002816,-0.00005325,0.00002115,-0.00
 000150,-0.00000714,-0.00000233,0.00000078,0.00001260,0.00173978,0.0001
 9847,-0.00022141,-0.00069710,0.00006346,0.00151245,-0.00225086,-0.0010
 0661,0.00309592,0.00022629,-0.00037707,0.00035757,-0.00014886,-0.00026
 495,0.00050257,0.11877679,0.06676596,-0.25404600,-0.00072021,0.0007776
 0,0.00071010,-0.12900136,-0.07186976,0.26467143,-0.00545663,-0.1190740
 1,0.02184216,-0.00298713,0.00785111,0.00382827,-0.00568948,0.01244493,
 -0.00545721,-0.00136399,-0.00010484,-0.00254443,0.00064694,-0.00054553
 ,-0.00098152,0.00098675,0.00101898,0.00094434,0.06531524,0.05132996,-0
 .02758763,-0.05859292,0.02181533,0.02425085,0.04188419,0.06615614,-0.0
 2943835,0.00321229,-0.00202222,0.00149144,0.00468859,-0.00403823,0.001
 30333,-0.00925385,-0.06551846,-0.01106955,-0.00094231,0.00180201,-0.00
 115381,-0.00608487,0.00412932,-0.00160138,-0.00647721,-0.01922938,0.02
 222342,0.00866714,0.00067390,-0.00271180,-0.00007856,-0.00161416,-0.00
 415839,0.00080604,0.00056188,0.00019080,0.00051929,-0.00031957,0.00015
 455,-0.00043293,-0.00018884,-0.00023270,-0.00035825,-0.00656068,-0.040
 05410,0.00008491,0.00874607,-0.00724421,-0.00467475,0.00401145,-0.0363
 3561,0.00884260,-0.00034080,0.00114781,-0.00095504,-0.00014859,0.00028
 080,-0.00001318,0.01334692,-0.02516880,0.00425909,-0.00154019,0.000667
 25,-0.00018183,-0.00694599,0.00418639,-0.00004281,0.01087031,0.0860315
 8,0.00257794,0.04307566,-0.00933206,-0.00009235,-0.00302695,-0.0001066
 3,0.00483341,-0.00249624,0.00099351,0.00058430,0.00013829,0.00064021,-
 0.00020723,-0.00019949,-0.00027156,-0.00008788,-0.00037591,-0.00074104
 ,-0.02306021,-0.01954769,-0.00644389,0.02095556,-0.00748916,-0.0061917
 6,-0.01462787,-0.02369972,0.00876837,-0.00092524,0.00031000,-0.0007976
 4,-0.00124439,0.00148835,-0.00076673,-0.01495729,0.03042384,-0.0260265
 0,-0.00021676,-0.00035599,-0.00009613,0.01209234,-0.00961326,-0.000618
 44,0.02582775,-0.01576290,0.04274375,0.00123334,-0.00965174,0.00194229
 ,-0.00070105,0.00090973,0.00037238,-0.00064860,0.00075334,-0.00032470,
 -0.00018188,-0.00000054,-0.00035093,0.00012725,0.00002193,-0.00002119,
 0.00005184,0.00008504,0.00008551,0.00742596,0.00498384,-0.00232208,-0.
 00760815,0.00370881,0.00198009,0.00136108,0.00839193,-0.01185609,0.000
 75652,-0.00007798,0.00057995,0.00026227,-0.00141362,0.00031006,-0.0939
 8739,-0.05637494,-0.10917939,0.00322241,-0.00249241,0.00100415,0.00843
 189,0.00638481,0.01401982,-0.01988559,-0.00132231,-0.01145208,0.100140
 09,-0.00078477,0.00614580,-0.00149846,0.00046161,-0.00059917,-0.000235
 63,0.00026712,-0.00053686,0.00020601,0.00009502,0.00003551,0.00028562,
 -0.00007138,-0.00007327,0.00009127,0.00001009,-0.00006306,-0.00008984,
 -0.00536472,-0.00312288,0.00174942,0.00718511,-0.00223862,-0.00257731,
 -0.01749011,-0.01372729,-0.02686119,0.00052582,-0.00022789,0.00028809,
 -0.00082119,0.00118979,0.00099661,-0.04412515,-0.05378260,-0.05789270,
 -0.00569160,-0.00335398,0.00004480,0.00582484,0.00219539,0.00714900,0.
 01388520,0.00102303,0.00713118,0.04609410,0.06713611,-0.00038629,0.000
 66392,0.00002489,0.00023466,-0.00008586,-0.00014426,0.00005046,0.00002
 678,-0.00003682,0.00002522,-0.00002572,0.00009306,-0.00000162,0.000000
 06,0.00002881,-0.00000808,0.00000220,0.00001140,0.00002557,-0.00013650
 ,0.00110259,0.00227434,0.00018175,0.00000027,-0.00073994,-0.00216115,0
 .00218717,0.00024136,-0.00030870,0.00001975,-0.00090995,0.00090026,0.0
 0024291,-0.10376390,-0.06378332,-0.26347833,-0.00050568,0.00075468,0.0
 0093905,-0.01209409,-0.00656268,-0.01628390,0.00034574,-0.00067884,-0.
 00175345,0.11521220,0.07121313,0.27704685\\-0.00007563,-0.00007665,0.0
 0005295,0.00000115,-0.00000888,-0.00000687,-0.00000502,0.00000228,0.00
 000355,0.00000102,0.00000193,0.00000768,-0.00000349,0.00001295,0.00000
 248,0.00000012,0.00000389,-0.00000131,0.00005860,0.00010327,-0.0000223
 5,0.00000350,-0.00003510,0.00003333,0.00003241,0.00002067,-0.00006863,
 0.00000198,0.00000042,-0.00000476,-0.00000300,0.00000902,-0.00000776,-
 0.00000785,-0.00001840,0.00002058,-0.00000457,0.00000234,-0.00000236,0
 .00000834,0.00000167,0.00000534,-0.00000437,-0.00001929,-0.00001109,-0
 .00000319,-0.00000011,-0.00000075\\\@


 MODELS ARE TO BE USED, NOT BELIEVED.

    -- PARAPHRASED BY H. THIEL IN "PRINCIPLES OF ECONOMETRICS"
 Job cpu time:       0 days  0 hours 38 minutes 48.2 seconds.
 Elapsed time:       0 days  0 hours  3 minutes 11.8 seconds.
 File lengths (MBytes):  RWF=     28 Int=      0 D2E=      0 Chk=      2 Scr=      1
 Normal termination of Gaussian 16 at Thu Jan  9 14:39:25 2020.
