 Entering Gaussian System, Link 0=g16
 Input=acetone-couplings4.gjf
 Output=acetone-couplings4.out
 Initial command:
 /n/sw/g16_nehalem/g16/l1.exe "/scratch/Gau-27776.inp" -scrdir="/scratch/"
 Entering Link 1 = /n/sw/g16_nehalem/g16/l1.exe PID=     27778.
  
 Copyright (c) 1988,1990,1992,1993,1995,1998,2003,2009,2016,
            Gaussian, Inc.  All Rights Reserved.
  
 This is part of the Gaussian(R) 16 program.  It is based on
 the Gaussian(R) 09 system (copyright 2009, Gaussian, Inc.),
 the Gaussian(R) 03 system (copyright 2003, Gaussian, Inc.),
 the Gaussian(R) 98 system (copyright 1998, Gaussian, Inc.),
 the Gaussian(R) 94 system (copyright 1995, Gaussian, Inc.),
 the Gaussian 92(TM) system (copyright 1992, Gaussian, Inc.),
 the Gaussian 90(TM) system (copyright 1990, Gaussian, Inc.),
 the Gaussian 88(TM) system (copyright 1988, Gaussian, Inc.),
 the Gaussian 86(TM) system (copyright 1986, Carnegie Mellon
 University), and the Gaussian 82(TM) system (copyright 1983,
 Carnegie Mellon University). Gaussian is a federally registered
 trademark of Gaussian, Inc.
  
 This software contains proprietary and confidential information,
 including trade secrets, belonging to Gaussian, Inc.
  
 This software is provided under written license and may be
 used, copied, transmitted, or stored only in accord with that
 written license.
  
 The following legend is applicable only to US Government
 contracts under FAR:
  
                    RESTRICTED RIGHTS LEGEND
  
 Use, reproduction and disclosure by the US Government is
 subject to restrictions as set forth in subparagraphs (a)
 and (c) of the Commercial Computer Software - Restricted
 Rights clause in FAR 52.227-19.
  
 Gaussian, Inc.
 340 Quinnipiac St., Bldg. 40, Wallingford CT 06492
  
  
 ---------------------------------------------------------------
 Warning -- This program may not be used in any manner that
 competes with the business of Gaussian, Inc. or will provide
 assistance to any competitor of Gaussian, Inc.  The licensee
 of this program is prohibited from giving any competitor of
 Gaussian, Inc. access to this program.  By using this program,
 the user acknowledges that Gaussian, Inc. is engaged in the
 business of creating and licensing software in the field of
 computational chemistry and represents and warrants to the
 licensee that it is not a competitor of Gaussian, Inc. and that
 it will not use this program in any manner prohibited above.
 ---------------------------------------------------------------
  

 Cite this work as:
 Gaussian 16, Revision A.03,
 M. J. Frisch, G. W. Trucks, H. B. Schlegel, G. E. Scuseria, 
 M. A. Robb, J. R. Cheeseman, G. Scalmani, V. Barone, 
 G. A. Petersson, H. Nakatsuji, X. Li, M. Caricato, A. V. Marenich, 
 J. Bloino, B. G. Janesko, R. Gomperts, B. Mennucci, H. P. Hratchian, 
 J. V. Ortiz, A. F. Izmaylov, J. L. Sonnenberg, D. Williams-Young, 
 F. Ding, F. Lipparini, F. Egidi, J. Goings, B. Peng, A. Petrone, 
 T. Henderson, D. Ranasinghe, V. G. Zakrzewski, J. Gao, N. Rega, 
 G. Zheng, W. Liang, M. Hada, M. Ehara, K. Toyota, R. Fukuda, 
 J. Hasegawa, M. Ishida, T. Nakajima, Y. Honda, O. Kitao, H. Nakai, 
 T. Vreven, K. Throssell, J. A. Montgomery, Jr., J. E. Peralta, 
 F. Ogliaro, M. J. Bearpark, J. J. Heyd, E. N. Brothers, K. N. Kudin, 
 V. N. Staroverov, T. A. Keith, R. Kobayashi, J. Normand, 
 K. Raghavachari, A. P. Rendell, J. C. Burant, S. S. Iyengar, 
 J. Tomasi, M. Cossi, J. M. Millam, M. Klene, C. Adamo, R. Cammi, 
 J. W. Ochterski, R. L. Martin, K. Morokuma, O. Farkas, 
 J. B. Foresman, and D. J. Fox, Gaussian, Inc., Wallingford CT, 2016.
 
 ******************************************
 Gaussian 16:  ES64L-G16RevA.03 25-Dec-2016
                27-May-2020 
 ******************************************
 %chk=checkpoint.chk
 %mem=3GB
 %nprocshared=4
 Will use up to    4 processors via shared memory.
 -------------------
 #p b3lyp 6-31g* opt
 -------------------
 1/18=20,19=15,26=3,38=1/1,3;
 2/9=110,12=2,17=6,18=5,40=1/2;
 3/5=1,6=6,7=1,11=2,25=1,30=1,71=1,74=-5/1,2,3;
 4//1;
 5/5=2,38=5/2;
 6/7=2,8=2,9=2,10=2,28=1/1;
 7//1,2,3,16;
 1/18=20,19=15,26=3/3(2);
 2/9=110/2;
 99//99;
 2/9=110/2;
 3/5=1,6=6,7=1,11=2,25=1,30=1,71=1,74=-5/1,2,3;
 4/5=5,16=3,69=1/1;
 5/5=2,38=5/2;
 7//1,2,3,16;
 1/18=20,19=15,26=3/3(-5);
 2/9=110/2;
 6/7=2,8=2,9=2,10=2,19=2,28=1/1;
 99/9=1/99;
 Leave Link    1 at Wed May 27 10:19:18 2020, MaxMem=   402653184 cpu:               0.1 elap:               0.0
 (Enter /n/sw/g16_nehalem/g16/l101.exe)
 -------------------
 Title Card Required
 -------------------
 Symbolic Z-matrix:
 Charge =  0 Multiplicity = 1
 C                    -4.33702   0.08287   0. 
 H                    -3.98036  -0.92594   0. 
 H                    -3.98034   0.58727  -0.87365 
 H                    -5.40702   0.08289   0. 
 C                    -3.82367   0.80883   1.2574 
 O                    -4.12504   2.01356   1.46078 
 C                    -2.93848   0.05788   2.26939 
 H                    -3.47481  -0.78272   2.65751 
 H                    -2.04832  -0.28112   1.78197 
 H                    -2.67729   0.71573   3.07184 
 
 ITRead=  0  0  0  0  0  0  0  0  0  0
 MicOpt= -1 -1 -1 -1 -1 -1 -1 -1 -1 -1
 NAtoms=     10 NQM=       10 NQMF=       0 NMMI=      0 NMMIF=      0
                NMic=       0 NMicF=      0.
                    Isotopes and Nuclear Properties:
 (Nuclear quadrupole moments (NQMom) in fm**2, nuclear magnetic moments (NMagM)
  in nuclear magnetons)

  Atom         1           2           3           4           5           6           7           8           9          10
 IAtWgt=          12           1           1           1          12          16          12           1           1           1
 AtmWgt=  12.0000000   1.0078250   1.0078250   1.0078250  12.0000000  15.9949146  12.0000000   1.0078250   1.0078250   1.0078250
 NucSpn=           0           1           1           1           0           0           0           1           1           1
 AtZEff=   0.0000000   0.0000000   0.0000000   0.0000000   0.0000000   0.0000000   0.0000000   0.0000000   0.0000000   0.0000000
 NQMom=    0.0000000   0.0000000   0.0000000   0.0000000   0.0000000   0.0000000   0.0000000   0.0000000   0.0000000   0.0000000
 NMagM=    0.0000000   2.7928460   2.7928460   2.7928460   0.0000000   0.0000000   0.0000000   2.7928460   2.7928460   2.7928460
 AtZNuc=   6.0000000   1.0000000   1.0000000   1.0000000   6.0000000   8.0000000   6.0000000   1.0000000   1.0000000   1.0000000
 Leave Link  101 at Wed May 27 10:19:18 2020, MaxMem=   402653184 cpu:               0.5 elap:               0.1
 (Enter /n/sw/g16_nehalem/g16/l103.exe)

 GradGradGradGradGradGradGradGradGradGradGradGradGradGradGradGradGradGrad
 Berny optimization.
 Initialization pass.
                           ----------------------------
                           !    Initial Parameters    !
                           ! (Angstroms and Degrees)  !
 --------------------------                            --------------------------
 ! Name  Definition              Value          Derivative Info.                !
 --------------------------------------------------------------------------------
 ! R1    R(1,2)                  1.07           estimate D2E/DX2                !
 ! R2    R(1,3)                  1.07           estimate D2E/DX2                !
 ! R3    R(1,4)                  1.07           estimate D2E/DX2                !
 ! R4    R(1,5)                  1.54           estimate D2E/DX2                !
 ! R5    R(5,6)                  1.2584         estimate D2E/DX2                !
 ! R6    R(5,7)                  1.54           estimate D2E/DX2                !
 ! R7    R(7,8)                  1.07           estimate D2E/DX2                !
 ! R8    R(7,9)                  1.07           estimate D2E/DX2                !
 ! R9    R(7,10)                 1.07           estimate D2E/DX2                !
 ! A1    A(2,1,3)              109.4712         estimate D2E/DX2                !
 ! A2    A(2,1,4)              109.4712         estimate D2E/DX2                !
 ! A3    A(2,1,5)              109.4712         estimate D2E/DX2                !
 ! A4    A(3,1,4)              109.4712         estimate D2E/DX2                !
 ! A5    A(3,1,5)              109.4713         estimate D2E/DX2                !
 ! A6    A(4,1,5)              109.4712         estimate D2E/DX2                !
 ! A7    A(1,5,6)              120.2269         estimate D2E/DX2                !
 ! A8    A(1,5,7)              119.8865         estimate D2E/DX2                !
 ! A9    A(6,5,7)              119.8865         estimate D2E/DX2                !
 ! A10   A(5,7,8)              109.4712         estimate D2E/DX2                !
 ! A11   A(5,7,9)              109.4712         estimate D2E/DX2                !
 ! A12   A(5,7,10)             109.4712         estimate D2E/DX2                !
 ! A13   A(8,7,9)              109.4713         estimate D2E/DX2                !
 ! A14   A(8,7,10)             109.4712         estimate D2E/DX2                !
 ! A15   A(9,7,10)             109.4712         estimate D2E/DX2                !
 ! D1    D(2,1,5,6)            179.9997         estimate D2E/DX2                !
 ! D2    D(2,1,5,7)             -0.0003         estimate D2E/DX2                !
 ! D3    D(3,1,5,6)             59.9997         estimate D2E/DX2                !
 ! D4    D(3,1,5,7)           -120.0003         estimate D2E/DX2                !
 ! D5    D(4,1,5,6)            -60.0003         estimate D2E/DX2                !
 ! D6    D(4,1,5,7)            119.9997         estimate D2E/DX2                !
 ! D7    D(1,5,7,8)            -60.1103         estimate D2E/DX2                !
 ! D8    D(1,5,7,9)             59.8897         estimate D2E/DX2                !
 ! D9    D(1,5,7,10)           179.8897         estimate D2E/DX2                !
 ! D10   D(6,5,7,8)            119.8897         estimate D2E/DX2                !
 ! D11   D(6,5,7,9)           -120.1103         estimate D2E/DX2                !
 ! D12   D(6,5,7,10)            -0.1103         estimate D2E/DX2                !
 --------------------------------------------------------------------------------
 Trust Radius=3.00D-01 FncErr=1.00D-07 GrdErr=1.00D-06 EigMax=2.50D+02 EigMin=1.00D-04
 Number of steps in this run=     46 maximum allowed number of steps=    100.
 GradGradGradGradGradGradGradGradGradGradGradGradGradGradGradGradGradGrad

 Leave Link  103 at Wed May 27 10:19:19 2020, MaxMem=   402653184 cpu:               0.0 elap:               0.0
 (Enter /n/sw/g16_nehalem/g16/l202.exe)
                          Input orientation:                          
 ---------------------------------------------------------------------
 Center     Atomic      Atomic             Coordinates (Angstroms)
 Number     Number       Type             X           Y           Z
 ---------------------------------------------------------------------
      1          6           0       -4.337016    0.082873    0.000000
      2          1           0       -3.980362   -0.925937    0.000000
      3          1           0       -3.980344    0.587271   -0.873652
      4          1           0       -5.407016    0.082886    0.000000
      5          6           0       -3.823674    0.808829    1.257405
      6          8           0       -4.125044    2.013563    1.460784
      7          6           0       -2.938484    0.057884    2.269393
      8          1           0       -3.474812   -0.782721    2.657510
      9          1           0       -2.048319   -0.281117    1.781965
     10          1           0       -2.677286    0.715729    3.071836
 ---------------------------------------------------------------------
                    Distance matrix (angstroms):
                    1          2          3          4          5
     1  C    0.000000
     2  H    1.070000   0.000000
     3  H    1.070000   1.747302   0.000000
     4  H    1.070000   1.747303   1.747303   0.000000
     5  C    1.540000   2.148263   2.148263   2.148263   0.000000
     6  O    2.430306   3.285648   2.739496   2.739499   1.258400
     7  C    2.665832   2.683944   3.353274   3.353270   1.540000
     8  H    2.924895   2.708958   3.821197   3.397801   2.148263
     9  H    2.923359   2.706286   3.396928   3.819522   2.148263
    10  H    3.548435   3.718770   4.157082   4.157895   2.148263
                    6          7          8          9         10
     6  O    0.000000
     7  C    2.426202   0.000000
     8  H    3.110331   1.070000   0.000000
     9  H    3.111511   1.070000   1.747303   0.000000
    10  H    2.525048   1.070000   1.747303   1.747303   0.000000
 Stoichiometry    C3H6O
 Framework group  C1[X(C3H6O)]
 Deg. of freedom    24
 Full point group                 C1      NOp   1
 Largest Abelian subgroup         C1      NOp   1
 Largest concise Abelian subgroup C1      NOp   1
                         Standard orientation:                         
 ---------------------------------------------------------------------
 Center     Atomic      Atomic             Coordinates (Angstroms)
 Number     Number       Type             X           Y           Z
 ---------------------------------------------------------------------
      1          6           0       -1.336113   -0.613654    0.000000
      2          1           0       -1.143414   -1.666159   -0.000006
      3          1           0       -1.896504   -0.353654   -0.873648
      4          1           0       -1.896499   -0.353662    0.873654
      5          6           0       -0.000374    0.152766    0.000000
      6          8           0        0.007986    1.411139    0.000000
      7          6           0        1.329701   -0.623443    0.000000
      8          1           0        1.384361   -1.237406    0.874621
      9          1           0        1.382666   -1.240312   -0.872679
     10          1           0        2.146218    0.068073   -0.001942
 ---------------------------------------------------------------------
 Rotational constants (GHZ):          10.0769211           8.0492929           4.7327343
 Leave Link  202 at Wed May 27 10:19:19 2020, MaxMem=   402653184 cpu:               0.0 elap:               0.0
 (Enter /n/sw/g16_nehalem/g16/l301.exe)
 Standard basis: 6-31G(d) (6D, 7F)
 Ernie: Thresh=  0.10000D-02 Tol=  0.10000D-05 Strict=F.
 There are    72 symmetry adapted cartesian basis functions of A   symmetry.
 There are    72 symmetry adapted basis functions of A   symmetry.
    72 basis functions,   136 primitive gaussians,    72 cartesian basis functions
    16 alpha electrons       16 beta electrons
       nuclear repulsion energy       117.7782126891 Hartrees.
 IExCor=  402 DFT=T Ex+Corr=B3LYP ExCW=0 ScaHFX=  0.200000
 ScaDFX=  0.800000  0.720000  1.000000  0.810000 ScalE2=  1.000000  1.000000
 IRadAn=      5 IRanWt=     -1 IRanGd=            0 ICorTp=0 IEmpDi=  4
 NAtoms=   10 NActive=   10 NUniq=   10 SFac= 1.00D+00 NAtFMM=   60 NAOKFM=F Big=F
 Integral buffers will be    131072 words long.
 Raffenetti 2 integral format.
 Two-electron integral symmetry is turned on.
 Leave Link  301 at Wed May 27 10:19:19 2020, MaxMem=   402653184 cpu:               0.3 elap:               0.1
 (Enter /n/sw/g16_nehalem/g16/l302.exe)
 NPDir=0 NMtPBC=     1 NCelOv=     1 NCel=       1 NClECP=     1 NCelD=      1
         NCelK=      1 NCelE2=     1 NClLst=     1 CellRange=     0.0.
 One-electron integrals computed using PRISM.
 One-electron integral symmetry used in STVInt
 NBasis=    72 RedAO= T EigKep=  5.43D-03  NBF=    72
 NBsUse=    72 1.00D-06 EigRej= -1.00D+00 NBFU=    72
 Precomputing XC quadrature grid using
 IXCGrd= 4 IRadAn=           5 IRanWt=          -1 IRanGd=           0 AccXCQ= 0.00D+00.
 Generated NRdTot=       0 NPtTot=           0 NUsed=           0 NTot=          32
 NSgBfM=    72    72    72    72    72 MxSgAt=    10 MxSgA2=    10.
 Leave Link  302 at Wed May 27 10:19:19 2020, MaxMem=   402653184 cpu:               0.7 elap:               0.2
 (Enter /n/sw/g16_nehalem/g16/l303.exe)
 DipDrv:  MaxL=1.
 Leave Link  303 at Wed May 27 10:19:19 2020, MaxMem=   402653184 cpu:               0.1 elap:               0.0
 (Enter /n/sw/g16_nehalem/g16/l401.exe)
 ExpMin= 1.61D-01 ExpMax= 5.48D+03 ExpMxC= 8.25D+02 IAcc=3 IRadAn=         5 AccDes= 0.00D+00
 Harris functional with IExCor=  402 and IRadAn=       5 diagonalized for initial guess.
 HarFok:  IExCor=  402 AccDes= 0.00D+00 IRadAn=         5 IDoV= 1 UseB2=F ITyADJ=14
 ICtDFT=  3500011 ScaDFX=  1.000000  1.000000  1.000000  1.000000
 FoFCou: FMM=F IPFlag=           0 FMFlag=      100000 FMFlg1=           0
         NFxFlg=           0 DoJE=T BraDBF=F KetDBF=T FulRan=T
         wScrn=  0.000000 ICntrl=       500 IOpCl=  0 I1Cent=   200000004 NGrid=           0
         NMat0=    1 NMatS0=      1 NMatT0=    0 NMatD0=    1 NMtDS0=    0 NMtDT0=    0
 Petite list used in FoFCou.
 Harris En= -193.205651184166    
 JPrj=0 DoOrth=F DoCkMO=F.
 Leave Link  401 at Wed May 27 10:19:20 2020, MaxMem=   402653184 cpu:               2.8 elap:               0.7
 (Enter /n/sw/g16_nehalem/g16/l502.exe)
 Keep R1 ints in memory in canonical form, NReq=7040236.
 FoFCou: FMM=F IPFlag=           0 FMFlag=           0 FMFlg1=           0
         NFxFlg=           0 DoJE=F BraDBF=F KetDBF=F FulRan=T
         wScrn=  0.000000 ICntrl=       600 IOpCl=  0 I1Cent=           0 NGrid=           0
         NMat0=    1 NMatS0=   2628 NMatT0=    0 NMatD0=    1 NMtDS0=    0 NMtDT0=    0
 Symmetry not used in FoFCou.
 Two-electron integral symmetry not used.
 Closed shell SCF:
 Using DIIS extrapolation, IDIIS=  1040.
 NGot=   402653184 LenX=   399186864 LenY=   399181239
 Requested convergence on RMS density matrix=1.00D-08 within 128 cycles.
 Requested convergence on MAX density matrix=1.00D-06.
 Requested convergence on             energy=1.00D-06.
 No special actions if energy rises.
 Integral accuracy reduced to 1.0D-05 until final iterations.

 Cycle   1  Pass 0  IDiag  1:
 E= -192.974812857772    
 DIIS: error= 5.89D-02 at cycle   1 NSaved=   1.
 NSaved= 1 IEnMin= 1 EnMin= -192.974812857772     IErMin= 1 ErrMin= 5.89D-02
 ErrMax= 5.89D-02  0.00D+00 EMaxC= 1.00D-01 BMatC= 1.86D-01 BMatP= 1.86D-01
 IDIUse=3 WtCom= 4.11D-01 WtEn= 5.89D-01
 Coeff-Com:  0.100D+01
 Coeff-En:   0.100D+01
 Coeff:      0.100D+01
 Gap=     0.108 Goal=   None    Shift=    0.000
 GapD=    0.108 DampG=1.000 DampE=0.500 DampFc=0.5000 IDamp=-1.
 Damping current iteration by 5.00D-01
 RMSDP=1.32D-02 MaxDP=2.06D-01              OVMax= 3.20D-01

 Cycle   2  Pass 0  IDiag  1:
 E= -193.029927316085     Delta-E=       -0.055114458313 Rises=F Damp=T
 DIIS: error= 1.94D-02 at cycle   2 NSaved=   2.
 NSaved= 2 IEnMin= 2 EnMin= -193.029927316085     IErMin= 2 ErrMin= 1.94D-02
 ErrMax= 1.94D-02  0.00D+00 EMaxC= 1.00D-01 BMatC= 2.71D-02 BMatP= 1.86D-01
 IDIUse=3 WtCom= 8.06D-01 WtEn= 1.94D-01
 Coeff-Com:  0.212D+00 0.788D+00
 Coeff-En:   0.305D+00 0.695D+00
 Coeff:      0.230D+00 0.770D+00
 Gap=     0.217 Goal=   None    Shift=    0.000
 RMSDP=4.00D-03 MaxDP=6.14D-02 DE=-5.51D-02 OVMax= 2.67D-01

 Cycle   3  Pass 0  IDiag  1:
 E= -193.119926039713     Delta-E=       -0.089998723628 Rises=F Damp=F
 DIIS: error= 2.50D-02 at cycle   3 NSaved=   3.
 NSaved= 3 IEnMin= 3 EnMin= -193.119926039713     IErMin= 2 ErrMin= 1.94D-02
 ErrMax= 2.50D-02  0.00D+00 EMaxC= 1.00D-01 BMatC= 3.22D-02 BMatP= 2.71D-02
 IDIUse=2 WtCom= 0.00D+00 WtEn= 1.00D+00
 Coeff-En:   0.000D+00 0.000D+00 0.100D+01
 Coeff:      0.000D+00 0.000D+00 0.100D+01
 Gap=     0.189 Goal=   None    Shift=    0.000
 RMSDP=6.64D-03 MaxDP=1.28D-01 DE=-9.00D-02 OVMax= 2.39D-01

 Cycle   4  Pass 0  IDiag  1:
 E= -192.999059173593     Delta-E=        0.120866866120 Rises=F Damp=F
 DIIS: error= 6.01D-02 at cycle   4 NSaved=   4.
 NSaved= 4 IEnMin= 3 EnMin= -193.119926039713     IErMin= 2 ErrMin= 1.94D-02
 ErrMax= 6.01D-02  0.00D+00 EMaxC= 1.00D-01 BMatC= 1.84D-01 BMatP= 2.71D-02
 IDIUse=2 WtCom= 0.00D+00 WtEn= 1.00D+00
 Coeff-En:   0.000D+00 0.000D+00 0.788D+00 0.212D+00
 Coeff:      0.000D+00 0.000D+00 0.788D+00 0.212D+00
 Gap=     0.207 Goal=   None    Shift=    0.000
 RMSDP=3.77D-03 MaxDP=7.07D-02 DE= 1.21D-01 OVMax= 1.33D-01

 Cycle   5  Pass 0  IDiag  1:
 E= -193.138752174962     Delta-E=       -0.139693001369 Rises=F Damp=F
 DIIS: error= 1.43D-02 at cycle   5 NSaved=   5.
 NSaved= 5 IEnMin= 5 EnMin= -193.138752174962     IErMin= 5 ErrMin= 1.43D-02
 ErrMax= 1.43D-02  0.00D+00 EMaxC= 1.00D-01 BMatC= 1.13D-02 BMatP= 2.71D-02
 IDIUse=3 WtCom= 8.57D-01 WtEn= 1.43D-01
 Coeff-Com: -0.168D-01 0.536D-01 0.277D+00-0.100D+00 0.786D+00
 Coeff-En:   0.000D+00 0.000D+00 0.299D+00 0.000D+00 0.701D+00
 Coeff:     -0.144D-01 0.459D-01 0.280D+00-0.859D-01 0.774D+00
 Gap=     0.221 Goal=   None    Shift=    0.000
 RMSDP=1.19D-03 MaxDP=2.16D-02 DE=-1.40D-01 OVMax= 3.89D-02

 Cycle   6  Pass 0  IDiag  1:
 E= -193.148416481907     Delta-E=       -0.009664306945 Rises=F Damp=F
 DIIS: error= 6.57D-04 at cycle   6 NSaved=   6.
 NSaved= 6 IEnMin= 6 EnMin= -193.148416481907     IErMin= 6 ErrMin= 6.57D-04
 ErrMax= 6.57D-04  0.00D+00 EMaxC= 1.00D-01 BMatC= 2.63D-05 BMatP= 1.13D-02
 IDIUse=3 WtCom= 9.93D-01 WtEn= 6.57D-03
 Coeff-Com: -0.668D-02 0.131D-01 0.788D-01-0.307D-01 0.265D+00 0.681D+00
 Coeff-En:   0.000D+00 0.000D+00 0.000D+00 0.000D+00 0.000D+00 0.100D+01
 Coeff:     -0.664D-02 0.130D-01 0.783D-01-0.305D-01 0.263D+00 0.683D+00
 Gap=     0.221 Goal=   None    Shift=    0.000
 RMSDP=6.57D-05 MaxDP=1.37D-03 DE=-9.66D-03 OVMax= 2.11D-03

 Cycle   7  Pass 0  IDiag  1:
 E= -193.148436628934     Delta-E=       -0.000020147027 Rises=F Damp=F
 DIIS: error= 1.05D-04 at cycle   7 NSaved=   7.
 NSaved= 7 IEnMin= 7 EnMin= -193.148436628934     IErMin= 7 ErrMin= 1.05D-04
 ErrMax= 1.05D-04  0.00D+00 EMaxC= 1.00D-01 BMatC= 7.44D-07 BMatP= 2.63D-05
 IDIUse=3 WtCom= 9.99D-01 WtEn= 1.05D-03
 Coeff-Com: -0.180D-02 0.274D-02 0.165D-01-0.819D-02 0.673D-01 0.320D+00
 Coeff-Com:  0.604D+00
 Coeff-En:   0.000D+00 0.000D+00 0.000D+00 0.000D+00 0.000D+00 0.000D+00
 Coeff-En:   0.100D+01
 Coeff:     -0.180D-02 0.273D-02 0.165D-01-0.818D-02 0.672D-01 0.319D+00
 Coeff:      0.604D+00
 Gap=     0.221 Goal=   None    Shift=    0.000
 RMSDP=1.50D-05 MaxDP=1.70D-04 DE=-2.01D-05 OVMax= 2.56D-04

 Cycle   8  Pass 0  IDiag  1:
 E= -193.148437286183     Delta-E=       -0.000000657249 Rises=F Damp=F
 DIIS: error= 1.05D-05 at cycle   8 NSaved=   8.
 NSaved= 8 IEnMin= 8 EnMin= -193.148437286183     IErMin= 8 ErrMin= 1.05D-05
 ErrMax= 1.05D-05  0.00D+00 EMaxC= 1.00D-01 BMatC= 8.33D-09 BMatP= 7.44D-07
 IDIUse=1 WtCom= 1.00D+00 WtEn= 0.00D+00
 Coeff-Com: -0.142D-04-0.105D-03 0.187D-03-0.380D-03 0.204D-02 0.233D-01
 Coeff-Com:  0.667D-01 0.908D+00
 Coeff:     -0.142D-04-0.105D-03 0.187D-03-0.380D-03 0.204D-02 0.233D-01
 Coeff:      0.667D-01 0.908D+00
 Gap=     0.221 Goal=   None    Shift=    0.000
 RMSDP=1.26D-06 MaxDP=1.77D-05 DE=-6.57D-07 OVMax= 2.06D-05

 Initial convergence to 1.0D-05 achieved.  Increase integral accuracy.
 Cycle   9  Pass 1  IDiag  1:
 E= -193.148442059617     Delta-E=       -0.000004773434 Rises=F Damp=F
 DIIS: error= 1.51D-06 at cycle   1 NSaved=   1.
 NSaved= 1 IEnMin= 1 EnMin= -193.148442059617     IErMin= 1 ErrMin= 1.51D-06
 ErrMax= 1.51D-06  0.00D+00 EMaxC= 1.00D-01 BMatC= 2.55D-10 BMatP= 2.55D-10
 IDIUse=1 WtCom= 1.00D+00 WtEn= 0.00D+00
 Coeff-Com:  0.100D+01
 Coeff:      0.100D+01
 Gap=     0.221 Goal=   None    Shift=    0.000
 RMSDP=1.26D-06 MaxDP=1.77D-05 DE=-4.77D-06 OVMax= 6.17D-06

 Cycle  10  Pass 1  IDiag  1:
 E= -193.148442059781     Delta-E=       -0.000000000164 Rises=F Damp=F
 DIIS: error= 1.85D-06 at cycle   2 NSaved=   2.
 NSaved= 2 IEnMin= 2 EnMin= -193.148442059781     IErMin= 1 ErrMin= 1.51D-06
 ErrMax= 1.85D-06  0.00D+00 EMaxC= 1.00D-01 BMatC= 1.84D-10 BMatP= 2.55D-10
 IDIUse=1 WtCom= 1.00D+00 WtEn= 0.00D+00
 Coeff-Com:  0.446D+00 0.554D+00
 Coeff:      0.446D+00 0.554D+00
 Gap=     0.221 Goal=   None    Shift=    0.000
 RMSDP=2.85D-07 MaxDP=6.05D-06 DE=-1.64D-10 OVMax= 9.91D-06

 Cycle  11  Pass 1  IDiag  1:
 E= -193.148442059837     Delta-E=       -0.000000000056 Rises=F Damp=F
 DIIS: error= 1.61D-06 at cycle   3 NSaved=   3.
 NSaved= 3 IEnMin= 3 EnMin= -193.148442059837     IErMin= 1 ErrMin= 1.51D-06
 ErrMax= 1.61D-06  0.00D+00 EMaxC= 1.00D-01 BMatC= 1.24D-10 BMatP= 1.84D-10
 IDIUse=1 WtCom= 1.00D+00 WtEn= 0.00D+00
 Coeff-Com:  0.535D-01 0.441D+00 0.505D+00
 Coeff:      0.535D-01 0.441D+00 0.505D+00
 Gap=     0.221 Goal=   None    Shift=    0.000
 RMSDP=1.20D-07 MaxDP=2.69D-06 DE=-5.62D-11 OVMax= 4.45D-06

 Cycle  12  Pass 1  IDiag  1:
 E= -193.148442059930     Delta-E=       -0.000000000093 Rises=F Damp=F
 DIIS: error= 1.58D-07 at cycle   4 NSaved=   4.
 NSaved= 4 IEnMin= 4 EnMin= -193.148442059930     IErMin= 4 ErrMin= 1.58D-07
 ErrMax= 1.58D-07  0.00D+00 EMaxC= 1.00D-01 BMatC= 2.85D-12 BMatP= 1.24D-10
 IDIUse=1 WtCom= 1.00D+00 WtEn= 0.00D+00
 Coeff-Com: -0.774D-02 0.174D+00 0.237D+00 0.597D+00
 Coeff:     -0.774D-02 0.174D+00 0.237D+00 0.597D+00
 Gap=     0.221 Goal=   None    Shift=    0.000
 RMSDP=2.79D-08 MaxDP=4.20D-07 DE=-9.25D-11 OVMax= 4.14D-07

 Cycle  13  Pass 1  IDiag  1:
 E= -193.148442059931     Delta-E=       -0.000000000002 Rises=F Damp=F
 DIIS: error= 3.77D-08 at cycle   5 NSaved=   5.
 NSaved= 5 IEnMin= 5 EnMin= -193.148442059931     IErMin= 5 ErrMin= 3.77D-08
 ErrMax= 3.77D-08  0.00D+00 EMaxC= 1.00D-01 BMatC= 1.26D-13 BMatP= 2.85D-12
 IDIUse=1 WtCom= 1.00D+00 WtEn= 0.00D+00
 Coeff-Com: -0.566D-02 0.540D-01 0.739D-01 0.254D+00 0.623D+00
 Coeff:     -0.566D-02 0.540D-01 0.739D-01 0.254D+00 0.623D+00
 Gap=     0.221 Goal=   None    Shift=    0.000
 RMSDP=5.65D-09 MaxDP=7.51D-08 DE=-1.65D-12 OVMax= 8.67D-08

 SCF Done:  E(RB3LYP) =  -193.148442060     A.U. after   13 cycles
            NFock= 13  Conv=0.57D-08     -V/T= 2.0094
 KE= 1.913444224613D+02 PE=-6.855739913799D+02 EE= 1.833029141695D+02
 Leave Link  502 at Wed May 27 10:19:24 2020, MaxMem=   402653184 cpu:              18.8 elap:               4.8
 (Enter /n/sw/g16_nehalem/g16/l601.exe)
 Copying SCF densities to generalized density rwf, IOpCl= 0 IROHF=0.

 **********************************************************************

            Population analysis using the SCF density.

 **********************************************************************

 Orbital symmetries:
       Occupied  (A) (A) (A) (A) (A) (A) (A) (A) (A) (A) (A) (A)
                 (A) (A) (A) (A)
       Virtual   (A) (A) (A) (A) (A) (A) (A) (A) (A) (A) (A) (A)
                 (A) (A) (A) (A) (A) (A) (A) (A) (A) (A) (A) (A)
                 (A) (A) (A) (A) (A) (A) (A) (A) (A) (A) (A) (A)
                 (A) (A) (A) (A) (A) (A) (A) (A) (A) (A) (A) (A)
                 (A) (A) (A) (A) (A) (A) (A) (A)
 The electronic state is 1-A.
 Alpha  occ. eigenvalues --  -19.13283 -10.28237 -10.18842 -10.18716  -1.00990
 Alpha  occ. eigenvalues --   -0.76592  -0.71737  -0.53301  -0.45806  -0.44992
 Alpha  occ. eigenvalues --   -0.44922  -0.41836  -0.38572  -0.38410  -0.33391
 Alpha  occ. eigenvalues --   -0.24106
 Alpha virt. eigenvalues --   -0.02018   0.09720   0.14223   0.15311   0.15559
 Alpha virt. eigenvalues --    0.16440   0.19406   0.19888   0.27755   0.31285
 Alpha virt. eigenvalues --    0.49127   0.52784   0.56046   0.58014   0.60087
 Alpha virt. eigenvalues --    0.66039   0.66896   0.67303   0.74267   0.82313
 Alpha virt. eigenvalues --    0.86635   0.87778   0.89791   0.92186   0.93102
 Alpha virt. eigenvalues --    0.95313   0.98039   1.02183   1.10462   1.18993
 Alpha virt. eigenvalues --    1.35391   1.38297   1.44928   1.52065   1.75872
 Alpha virt. eigenvalues --    1.77665   1.80219   1.80334   1.88767   1.91598
 Alpha virt. eigenvalues --    1.98847   2.12230   2.17357   2.24821   2.25281
 Alpha virt. eigenvalues --    2.33894   2.35790   2.44044   2.57050   2.64061
 Alpha virt. eigenvalues --    2.90924   2.92265   3.88213   4.06194   4.26783
 Alpha virt. eigenvalues --    4.45661
          Condensed to atoms (all electrons):
               1          2          3          4          5          6
     1  C    5.325434   0.339617   0.365623   0.365627   0.306507  -0.078335
     2  H    0.339617   0.574254  -0.027283  -0.027284  -0.021735   0.003750
     3  H    0.365623  -0.027283   0.503005  -0.017864  -0.016742  -0.000544
     4  H    0.365627  -0.027284  -0.017864   0.503019  -0.016754  -0.000544
     5  C    0.306507  -0.021735  -0.016742  -0.016754   4.507821   0.549984
     6  O   -0.078335   0.003750  -0.000544  -0.000544   0.549984   8.037490
     7  C   -0.120315   0.005421   0.003684   0.003687   0.332940  -0.076098
     8  H    0.003951  -0.000246   0.000024  -0.000228  -0.021583   0.001529
     9  H    0.003957  -0.000247  -0.000227   0.000024  -0.021588   0.001543
    10  H    0.005897  -0.000127  -0.000156  -0.000155  -0.020793   0.005769
               7          8          9         10
     1  C   -0.120315   0.003951   0.003957   0.005897
     2  H    0.005421  -0.000246  -0.000247  -0.000127
     3  H    0.003684   0.000024  -0.000227  -0.000156
     4  H    0.003687  -0.000228   0.000024  -0.000155
     5  C    0.332940  -0.021583  -0.021588  -0.020793
     6  O   -0.076098   0.001529   0.001543   0.005769
     7  C    5.310661   0.354115   0.354035   0.356076
     8  H    0.354115   0.539861  -0.026013  -0.023245
     9  H    0.354035  -0.026013   0.540068  -0.023276
    10  H    0.356076  -0.023245  -0.023276   0.513637
 Mulliken charges:
               1
     1  C   -0.517962
     2  H    0.153881
     3  H    0.190480
     4  H    0.190473
     5  C    0.421945
     6  O   -0.444544
     7  C   -0.524205
     8  H    0.171835
     9  H    0.171723
    10  H    0.186375
 Sum of Mulliken charges =   0.00000
 Mulliken charges with hydrogens summed into heavy atoms:
               1
     1  C    0.016872
     5  C    0.421945
     6  O   -0.444544
     7  C    0.005728
 Electronic spatial extent (au):  <R**2>=            298.9477
 Charge=              0.0000 electrons
 Dipole moment (field-independent basis, Debye):
    X=             -0.1144    Y=             -2.8988    Z=              0.0003  Tot=              2.9011
 Quadrupole moment (field-independent basis, Debye-Ang):
   XX=            -22.8716   YY=            -28.6118   ZZ=            -23.6518
   XY=             -0.1188   XZ=              0.0006   YZ=             -0.0005
 Traceless Quadrupole moment (field-independent basis, Debye-Ang):
   XX=              2.1735   YY=             -3.5667   ZZ=              1.3932
   XY=             -0.1188   XZ=              0.0006   YZ=             -0.0005
 Octapole moment (field-independent basis, Debye-Ang**2):
  XXX=             -0.4492  YYY=             -2.2266  ZZZ=              0.0039  XYY=              0.5765
  XXY=              1.8174  XXZ=             -0.0003  XZZ=             -0.8097  YZZ=              1.0917
  YYZ=             -0.0017  XYZ=             -0.0022
 Hexadecapole moment (field-independent basis, Debye-Ang**3):
 XXXX=           -200.6764 YYYY=           -146.0499 ZZZZ=            -34.0119 XXXY=              1.2560
 XXXZ=             -0.0031 YYYX=             -0.2830 YYYZ=              0.0051 ZZZX=              0.0068
 ZZZY=             -0.0037 XXYY=            -59.3145 XXZZ=            -37.3561 YYZZ=            -28.0509
 XXYZ=             -0.0056 YYXZ=             -0.0006 ZZXY=             -1.1680
 N-N= 1.177782126891D+02 E-N=-6.855739901738D+02  KE= 1.913444224613D+02
 No NMR shielding tensors so no spin-rotation constants.
 Leave Link  601 at Wed May 27 10:19:25 2020, MaxMem=   402653184 cpu:               0.5 elap:               0.1
 (Enter /n/sw/g16_nehalem/g16/l701.exe)
 ... and contract with generalized density number  0.
 Compute integral first derivatives.
 Leave Link  701 at Wed May 27 10:19:25 2020, MaxMem=   402653184 cpu:               0.5 elap:               0.1
 (Enter /n/sw/g16_nehalem/g16/l702.exe)
 L702 exits ... SP integral derivatives will be done elsewhere.
 Leave Link  702 at Wed May 27 10:19:25 2020, MaxMem=   402653184 cpu:               0.1 elap:               0.0
 (Enter /n/sw/g16_nehalem/g16/l703.exe)
 Integral derivatives from FoFJK, PRISM(SPDF).
 Compute integral first derivatives, UseDBF=F ICtDFT=           0.
 Calling FoFJK, ICntrl=      2127 FMM=F ISym2X=0 I1Cent= 0 IOpClX= 0 NMat=1 NMatS=1 NMatT=0.
 FoFJK:  IHMeth= 1 ICntrl=    2127 DoSepK=F KAlg= 0 I1Cent=           0 FoldK=F
 IRaf=         0 NMat=       1 IRICut=       1 DoRegI=T DoRafI=F ISym2E= 0 IDoP0=0 IntGTp=1.
 FoFCou: FMM=F IPFlag=           0 FMFlag=      100000 FMFlg1=         800
         NFxFlg=           0 DoJE=F BraDBF=F KetDBF=F FulRan=T
         wScrn=  0.000000 ICntrl=      2127 IOpCl=  0 I1Cent=           0 NGrid=           0
         NMat0=    1 NMatS0=      1 NMatT0=    0 NMatD0=    1 NMtDS0=    0 NMtDT0=    0
 Symmetry not used in FoFCou.
 Leave Link  703 at Wed May 27 10:19:26 2020, MaxMem=   402653184 cpu:               5.9 elap:               1.5
 (Enter /n/sw/g16_nehalem/g16/l716.exe)
 Dipole        =-4.50160149D-02-1.14048592D+00 1.34771045D-04
 ***** Axes restored to original set *****
 -------------------------------------------------------------------
 Center     Atomic                   Forces (Hartrees/Bohr)
 Number     Number              X              Y              Z
 -------------------------------------------------------------------
      1        6           0.015438748    0.005327852    0.028305516
      2        1           0.003836075   -0.017205811   -0.003667862
      3        1           0.004210289    0.009143975   -0.013755133
      4        1          -0.016944963    0.001664919   -0.000803303
      5        6          -0.012202448    0.056310765    0.012578438
      6        8           0.013176317   -0.056569658   -0.011140974
      7        6          -0.018132513    0.016932652   -0.019922183
      8        1          -0.007134417   -0.016933613    0.005692494
      9        1           0.014968970   -0.009168009   -0.007863801
     10        1           0.002783941    0.010496927    0.010576806
 -------------------------------------------------------------------
 Cartesian Forces:  Max     0.056569658 RMS     0.019088687
 Leave Link  716 at Wed May 27 10:19:27 2020, MaxMem=   402653184 cpu:               0.1 elap:               0.0
 (Enter /n/sw/g16_nehalem/g16/l103.exe)

 GradGradGradGradGradGradGradGradGradGradGradGradGradGradGradGradGradGrad
 Berny optimization.
 FormGI is forming the generalized inverse of G from B-inverse, IUseBI=4.
 Internal  Forces:  Max     0.059113294 RMS     0.012667584
 Search for a local minimum.
 Step number   1 out of a maximum of   46
 All quantities printed in internal units (Hartrees-Bohrs-Radians)
 RMS Force = .12668D-01 SwitMx=.10000D-02 MixMth= 1
 Mixed Optimization -- RFO/linear search
 Second derivative matrix not updated -- first step.
 ITU=  0
     Eigenvalues ---    0.00237   0.00237   0.00237   0.07243   0.07243
     Eigenvalues ---    0.07243   0.07243   0.16000   0.16000   0.16000
     Eigenvalues ---    0.16000   0.16000   0.16000   0.25000   0.25000
     Eigenvalues ---    0.28519   0.28519   0.37230   0.37230   0.37230
     Eigenvalues ---    0.37230   0.37230   0.37230   0.80209
 RFO step:  Lambda=-1.10870009D-02 EMin= 2.36824214D-03
 Linear search not attempted -- first point.
 Iteration  1 RMS(Cart)=  0.02805225 RMS(Int)=  0.00036264
 Iteration  2 RMS(Cart)=  0.00033520 RMS(Int)=  0.00010729
 Iteration  3 RMS(Cart)=  0.00000012 RMS(Int)=  0.00010729
 ITry= 1 IFail=0 DXMaxC= 5.72D-02 DCOld= 1.00D+10 DXMaxT= 3.00D-01 DXLimC= 3.00D+00 Rises=F
 Variable       Old X    -DE/DX   Delta X   Delta X   Delta X     New X
                                 (Linear)    (Quad)   (Total)
    R1        2.02201   0.01750   0.00000   0.04565   0.04565   2.06765
    R2        2.02201   0.01695   0.00000   0.04420   0.04420   2.06621
    R3        2.02201   0.01695   0.00000   0.04420   0.04420   2.06621
    R4        2.91018  -0.00991   0.00000  -0.03344  -0.03344   2.87674
    R5        2.37803  -0.05911   0.00000  -0.07269  -0.07269   2.30534
    R6        2.91018  -0.01253   0.00000  -0.04231  -0.04231   2.86787
    R7        2.02201   0.01894   0.00000   0.04941   0.04941   2.07142
    R8        2.02201   0.01894   0.00000   0.04940   0.04940   2.07141
    R9        2.02201   0.01507   0.00000   0.03929   0.03929   2.06130
    A1        1.91063  -0.00135   0.00000  -0.00078  -0.00091   1.90972
    A2        1.91063  -0.00135   0.00000  -0.00078  -0.00091   1.90972
    A3        1.91063   0.00721   0.00000   0.04928   0.04914   1.95978
    A4        1.91063  -0.00130   0.00000  -0.02183  -0.02224   1.88839
    A5        1.91063  -0.00161   0.00000  -0.01295  -0.01322   1.89742
    A6        1.91063  -0.00160   0.00000  -0.01292  -0.01319   1.89745
    A7        2.09836   0.00153   0.00000   0.00587   0.00587   2.10423
    A8        2.09241  -0.00750   0.00000  -0.02873  -0.02873   2.06368
    A9        2.09241   0.00597   0.00000   0.02286   0.02286   2.11528
   A10        1.91063   0.00207   0.00000   0.01026   0.01028   1.92091
   A11        1.91063   0.00210   0.00000   0.01047   0.01048   1.92112
   A12        1.91063  -0.00247   0.00000  -0.01078  -0.01076   1.89987
   A13        1.91063  -0.00358   0.00000  -0.02823  -0.02821   1.88242
   A14        1.91063   0.00094   0.00000   0.00908   0.00910   1.91973
   A15        1.91063   0.00094   0.00000   0.00920   0.00923   1.91986
    D1        3.14159   0.00000   0.00000   0.00014   0.00014  -3.14146
    D2       -0.00001   0.00000   0.00000  -0.00005  -0.00005  -0.00005
    D3        1.04719  -0.00178   0.00000  -0.02114  -0.02102   1.02617
    D4       -2.09440  -0.00178   0.00000  -0.02133  -0.02121  -2.11561
    D5       -1.04720   0.00178   0.00000   0.02144   0.02132  -1.02588
    D6        2.09439   0.00178   0.00000   0.02125   0.02113   2.11552
    D7       -1.04912   0.00091   0.00000   0.01121   0.01121  -1.03792
    D8        1.04527  -0.00091   0.00000  -0.01067  -0.01067   1.03461
    D9        3.13967   0.00001   0.00000   0.00041   0.00041   3.14008
   D10        2.09247   0.00091   0.00000   0.01102   0.01101   2.10348
   D11       -2.09632  -0.00092   0.00000  -0.01086  -0.01086  -2.10718
   D12       -0.00193   0.00001   0.00000   0.00022   0.00022  -0.00171
         Item               Value     Threshold  Converged?
 Maximum Force            0.059113     0.000450     NO 
 RMS     Force            0.012668     0.000300     NO 
 Maximum Displacement     0.057197     0.001800     NO 
 RMS     Displacement     0.028003     0.001200     NO 
 Predicted change in Energy=-5.701658D-03
 Lowest energy point so far.  Saving SCF results.
 GradGradGradGradGradGradGradGradGradGradGradGradGradGradGradGradGradGrad

 Leave Link  103 at Wed May 27 10:19:27 2020, MaxMem=   402653184 cpu:               0.1 elap:               0.0
 (Enter /n/sw/g16_nehalem/g16/l202.exe)
                          Input orientation:                          
 ---------------------------------------------------------------------
 Center     Atomic      Atomic             Coordinates (Angstroms)
 Number     Number       Type             X           Y           Z
 ---------------------------------------------------------------------
      1          6           0       -4.318209    0.080414    0.029361
      2          1           0       -3.969226   -0.956205    0.000925
      3          1           0       -3.965182    0.607390   -0.861238
      4          1           0       -5.411473    0.096191    0.024532
      5          6           0       -3.824434    0.822161    1.263628
      6          8           0       -4.125085    1.990146    1.447076
      7          6           0       -2.952974    0.070104    2.252625
      8          1           0       -3.492482   -0.800655    2.642819
      9          1           0       -2.045711   -0.291834    1.755230
     10          1           0       -2.687583    0.741546    3.070283
 ---------------------------------------------------------------------
                    Distance matrix (angstroms):
                    1          2          3          4          5
     1  C    0.000000
     2  H    1.094155   0.000000
     3  H    1.093389   1.785545   0.000000
     4  H    1.093389   1.785545   1.771348   0.000000
     5  C    1.522307   2.185856   2.140325   2.140346   0.000000
     6  O    2.386272   3.285822   2.695533   2.695458   1.219932
     7  C    2.608999   2.675113   3.318039   3.318026   1.517613
     8  H    2.878936   2.689068   3.805845   3.367832   2.155433
     9  H    2.877749   2.686799   3.367325   3.804502   2.155578
    10  H    3.513295   3.734424   4.136075   4.136745   2.136102
                    6          7          8          9         10
     6  O    0.000000
     7  C    2.389417   0.000000
     8  H    3.101380   1.096148   0.000000
     9  H    3.102610   1.096142   1.771965   0.000000
    10  H    2.502042   1.090794   1.791360   1.791435   0.000000
 Stoichiometry    C3H6O
 Framework group  C1[X(C3H6O)]
 Deg. of freedom    24
 Full point group                 C1      NOp   1
 RotChk:  IX=0 Diff= 5.18D-03
 Largest Abelian subgroup         C1      NOp   1
 Largest concise Abelian subgroup C1      NOp   1
                         Standard orientation:                         
 ---------------------------------------------------------------------
 Center     Atomic      Atomic             Coordinates (Angstroms)
 Number     Number       Type             X           Y           Z
 ---------------------------------------------------------------------
      1          6           0       -1.299222   -0.619173    0.000009
      2          1           0       -1.130639   -1.700262    0.000051
      3          1           0       -1.877083   -0.341403   -0.885666
      4          1           0       -1.877051   -0.341330    0.885681
      5          6           0        0.003589    0.168291   -0.000072
      6          8           0       -0.008908    1.388159    0.000017
      7          6           0        1.309735   -0.604451   -0.000012
      8          1           0        1.366996   -1.246007    0.886930
      9          1           0        1.365691   -1.248762   -0.885032
     10          1           0        2.138737    0.104481   -0.001647
 ---------------------------------------------------------------------
 Rotational constants (GHZ):          10.2676795           8.3164421           4.8752405
 Leave Link  202 at Wed May 27 10:19:27 2020, MaxMem=   402653184 cpu:               0.0 elap:               0.0
 (Enter /n/sw/g16_nehalem/g16/l301.exe)
 Standard basis: 6-31G(d) (6D, 7F)
 Ernie: Thresh=  0.10000D-02 Tol=  0.10000D-05 Strict=F.
 There are    72 symmetry adapted cartesian basis functions of A   symmetry.
 There are    72 symmetry adapted basis functions of A   symmetry.
    72 basis functions,   136 primitive gaussians,    72 cartesian basis functions
    16 alpha electrons       16 beta electrons
       nuclear repulsion energy       118.9564554172 Hartrees.
 IExCor=  402 DFT=T Ex+Corr=B3LYP ExCW=0 ScaHFX=  0.200000
 ScaDFX=  0.800000  0.720000  1.000000  0.810000 ScalE2=  1.000000  1.000000
 IRadAn=      5 IRanWt=     -1 IRanGd=            0 ICorTp=0 IEmpDi=  4
 NAtoms=   10 NActive=   10 NUniq=   10 SFac= 1.00D+00 NAtFMM=   60 NAOKFM=F Big=F
 Integral buffers will be    131072 words long.
 Raffenetti 2 integral format.
 Two-electron integral symmetry is turned on.
 Leave Link  301 at Wed May 27 10:19:27 2020, MaxMem=   402653184 cpu:               0.2 elap:               0.1
 (Enter /n/sw/g16_nehalem/g16/l302.exe)
 NPDir=0 NMtPBC=     1 NCelOv=     1 NCel=       1 NClECP=     1 NCelD=      1
         NCelK=      1 NCelE2=     1 NClLst=     1 CellRange=     0.0.
 One-electron integrals computed using PRISM.
 One-electron integral symmetry used in STVInt
 NBasis=    72 RedAO= T EigKep=  4.87D-03  NBF=    72
 NBsUse=    72 1.00D-06 EigRej= -1.00D+00 NBFU=    72
 Precomputing XC quadrature grid using
 IXCGrd= 4 IRadAn=           5 IRanWt=          -1 IRanGd=           0 AccXCQ= 0.00D+00.
 Generated NRdTot=       0 NPtTot=           0 NUsed=           0 NTot=          32
 NSgBfM=    72    72    72    72    72 MxSgAt=    10 MxSgA2=    10.
 Leave Link  302 at Wed May 27 10:19:27 2020, MaxMem=   402653184 cpu:               1.1 elap:               0.3
 (Enter /n/sw/g16_nehalem/g16/l303.exe)
 DipDrv:  MaxL=1.
 Leave Link  303 at Wed May 27 10:19:27 2020, MaxMem=   402653184 cpu:               0.1 elap:               0.0
 (Enter /n/sw/g16_nehalem/g16/l401.exe)
 Initial guess from the checkpoint file:  "checkpoint.chk"
 B after Tr=     0.000000    0.000000    0.000000
         Rot=    0.999993   -0.000005    0.000008   -0.003758 Ang=  -0.43 deg.
 Guess basis will be translated and rotated to current coordinates.
 JPrj=2 DoOrth=T DoCkMO=T.
 Generating alternative initial guess.
 ExpMin= 1.61D-01 ExpMax= 5.48D+03 ExpMxC= 8.25D+02 IAcc=2 IRadAn=         4 AccDes= 0.00D+00
 Harris functional with IExCor=  402 and IRadAn=       4 diagonalized for initial guess.
 HarFok:  IExCor=  402 AccDes= 0.00D+00 IRadAn=         4 IDoV= 1 UseB2=F ITyADJ=14
 ICtDFT=  3500011 ScaDFX=  1.000000  1.000000  1.000000  1.000000
 FoFCou: FMM=F IPFlag=           0 FMFlag=      100000 FMFlg1=           0
         NFxFlg=           0 DoJE=T BraDBF=F KetDBF=T FulRan=T
         wScrn=  0.000000 ICntrl=       500 IOpCl=  0 I1Cent=   200000004 NGrid=           0
         NMat0=    1 NMatS0=      1 NMatT0=    0 NMatD0=    1 NMtDS0=    0 NMtDT0=    0
 Petite list used in FoFCou.
 Harris En= -193.201594989908    
 Leave Link  401 at Wed May 27 10:19:28 2020, MaxMem=   402653184 cpu:               1.8 elap:               0.5
 (Enter /n/sw/g16_nehalem/g16/l502.exe)
 Keep R1 ints in memory in canonical form, NReq=7040236.
 FoFCou: FMM=F IPFlag=           0 FMFlag=           0 FMFlg1=           0
         NFxFlg=           0 DoJE=F BraDBF=F KetDBF=F FulRan=T
         wScrn=  0.000000 ICntrl=       600 IOpCl=  0 I1Cent=           0 NGrid=           0
         NMat0=    1 NMatS0=   2628 NMatT0=    0 NMatD0=    1 NMtDS0=    0 NMtDT0=    0
 Symmetry not used in FoFCou.
 Two-electron integral symmetry not used.
 Closed shell SCF:
 Using DIIS extrapolation, IDIIS=  1040.
 NGot=   402653184 LenX=   399186864 LenY=   399181239
 Requested convergence on RMS density matrix=1.00D-08 within 128 cycles.
 Requested convergence on MAX density matrix=1.00D-06.
 Requested convergence on             energy=1.00D-06.
 No special actions if energy rises.
 Integral accuracy reduced to 1.0D-05 until final iterations.

 Cycle   1  Pass 0  IDiag  1:
 E= -193.152620020960    
 DIIS: error= 3.84D-03 at cycle   1 NSaved=   1.
 NSaved= 1 IEnMin= 1 EnMin= -193.152620020960     IErMin= 1 ErrMin= 3.84D-03
 ErrMax= 3.84D-03  0.00D+00 EMaxC= 1.00D-01 BMatC= 1.33D-03 BMatP= 1.33D-03
 IDIUse=3 WtCom= 9.62D-01 WtEn= 3.84D-02
 Coeff-Com:  0.100D+01
 Coeff-En:   0.100D+01
 Coeff:      0.100D+01
 Gap=     1.910 Goal=   None    Shift=    0.000
 GapD=    1.910 DampG=2.000 DampE=1.000 DampFc=2.0000 IDamp=-1.
 RMSDP=8.35D-04 MaxDP=1.06D-02              OVMax= 1.46D-02

 Cycle   2  Pass 0  IDiag  1:
 E= -193.153893632074     Delta-E=       -0.001273611114 Rises=F Damp=F
 DIIS: error= 2.76D-03 at cycle   2 NSaved=   2.
 NSaved= 2 IEnMin= 2 EnMin= -193.153893632074     IErMin= 2 ErrMin= 2.76D-03
 ErrMax= 2.76D-03  0.00D+00 EMaxC= 1.00D-01 BMatC= 6.37D-04 BMatP= 1.33D-03
 IDIUse=3 WtCom= 9.72D-01 WtEn= 2.76D-02
 Coeff-Com:  0.377D+00 0.623D+00
 Coeff-En:   0.000D+00 0.100D+01
 Coeff:      0.367D+00 0.633D+00
 Gap=     0.229 Goal=   None    Shift=    0.000
 RMSDP=5.11D-04 MaxDP=7.70D-03 DE=-1.27D-03 OVMax= 1.24D-02

 Cycle   3  Pass 0  IDiag  1:
 E= -193.154193923428     Delta-E=       -0.000300291354 Rises=F Damp=F
 DIIS: error= 2.33D-03 at cycle   3 NSaved=   3.
 NSaved= 3 IEnMin= 3 EnMin= -193.154193923428     IErMin= 3 ErrMin= 2.33D-03
 ErrMax= 2.33D-03  0.00D+00 EMaxC= 1.00D-01 BMatC= 3.21D-04 BMatP= 6.37D-04
 IDIUse=3 WtCom= 9.77D-01 WtEn= 2.33D-02
 Coeff-Com:  0.486D-01 0.408D+00 0.544D+00
 Coeff-En:   0.000D+00 0.337D+00 0.663D+00
 Coeff:      0.475D-01 0.406D+00 0.546D+00
 Gap=     0.232 Goal=   None    Shift=    0.000
 RMSDP=2.72D-04 MaxDP=5.70D-03 DE=-3.00D-04 OVMax= 9.29D-03

 Cycle   4  Pass 0  IDiag  1:
 E= -193.154407025038     Delta-E=       -0.000213101610 Rises=F Damp=F
 DIIS: error= 1.17D-03 at cycle   4 NSaved=   4.
 NSaved= 4 IEnMin= 4 EnMin= -193.154407025038     IErMin= 4 ErrMin= 1.17D-03
 ErrMax= 1.17D-03  0.00D+00 EMaxC= 1.00D-01 BMatC= 6.46D-05 BMatP= 3.21D-04
 IDIUse=3 WtCom= 9.88D-01 WtEn= 1.17D-02
 Coeff-Com: -0.131D-01 0.200D+00 0.379D+00 0.434D+00
 Coeff-En:   0.000D+00 0.000D+00 0.151D+00 0.849D+00
 Coeff:     -0.129D-01 0.198D+00 0.376D+00 0.439D+00
 Gap=     0.230 Goal=   None    Shift=    0.000
 RMSDP=7.48D-05 MaxDP=1.60D-03 DE=-2.13D-04 OVMax= 2.49D-03

 Cycle   5  Pass 0  IDiag  1:
 E= -193.154457668584     Delta-E=       -0.000050643546 Rises=F Damp=F
 DIIS: error= 3.34D-05 at cycle   5 NSaved=   5.
 NSaved= 5 IEnMin= 5 EnMin= -193.154457668584     IErMin= 5 ErrMin= 3.34D-05
 ErrMax= 3.34D-05  0.00D+00 EMaxC= 1.00D-01 BMatC= 8.11D-08 BMatP= 6.46D-05
 IDIUse=1 WtCom= 1.00D+00 WtEn= 0.00D+00
 Coeff-Com: -0.298D-02 0.140D-01 0.432D-01 0.543D-01 0.891D+00
 Coeff:     -0.298D-02 0.140D-01 0.432D-01 0.543D-01 0.891D+00
 Gap=     0.230 Goal=   None    Shift=    0.000
 RMSDP=7.10D-06 MaxDP=8.99D-05 DE=-5.06D-05 OVMax= 1.17D-04

 Initial convergence to 1.0D-05 achieved.  Increase integral accuracy.
 Cycle   6  Pass 1  IDiag  1:
 E= -193.154459426920     Delta-E=       -0.000001758336 Rises=F Damp=F
 DIIS: error= 6.88D-06 at cycle   1 NSaved=   1.
 NSaved= 1 IEnMin= 1 EnMin= -193.154459426920     IErMin= 1 ErrMin= 6.88D-06
 ErrMax= 6.88D-06  0.00D+00 EMaxC= 1.00D-01 BMatC= 2.99D-09 BMatP= 2.99D-09
 IDIUse=1 WtCom= 1.00D+00 WtEn= 0.00D+00
 Coeff-Com:  0.100D+01
 Coeff:      0.100D+01
 Gap=     0.230 Goal=   None    Shift=    0.000
 RMSDP=7.10D-06 MaxDP=8.99D-05 DE=-1.76D-06 OVMax= 3.09D-05

 Cycle   7  Pass 1  IDiag  1:
 E= -193.154459427174     Delta-E=       -0.000000000254 Rises=F Damp=F
 DIIS: error= 7.60D-06 at cycle   2 NSaved=   2.
 NSaved= 2 IEnMin= 2 EnMin= -193.154459427174     IErMin= 1 ErrMin= 6.88D-06
 ErrMax= 7.60D-06  0.00D+00 EMaxC= 1.00D-01 BMatC= 3.03D-09 BMatP= 2.99D-09
 IDIUse=1 WtCom= 1.00D+00 WtEn= 0.00D+00
 Coeff-Com:  0.502D+00 0.498D+00
 Coeff:      0.502D+00 0.498D+00
 Gap=     0.230 Goal=   None    Shift=    0.000
 RMSDP=9.12D-07 MaxDP=1.38D-05 DE=-2.54D-10 OVMax= 2.58D-05

 Cycle   8  Pass 1  IDiag  1:
 E= -193.154459429480     Delta-E=       -0.000000002306 Rises=F Damp=F
 DIIS: error= 3.80D-06 at cycle   3 NSaved=   3.
 NSaved= 3 IEnMin= 3 EnMin= -193.154459429480     IErMin= 3 ErrMin= 3.80D-06
 ErrMax= 3.80D-06  0.00D+00 EMaxC= 1.00D-01 BMatC= 8.05D-10 BMatP= 2.99D-09
 IDIUse=1 WtCom= 1.00D+00 WtEn= 0.00D+00
 Coeff-Com:  0.238D+00 0.338D+00 0.424D+00
 Coeff:      0.238D+00 0.338D+00 0.424D+00
 Gap=     0.230 Goal=   None    Shift=    0.000
 RMSDP=3.19D-07 MaxDP=7.78D-06 DE=-2.31D-09 OVMax= 1.16D-05

 Cycle   9  Pass 1  IDiag  1:
 E= -193.154459430068     Delta-E=       -0.000000000588 Rises=F Damp=F
 DIIS: error= 5.91D-07 at cycle   4 NSaved=   4.
 NSaved= 4 IEnMin= 4 EnMin= -193.154459430068     IErMin= 4 ErrMin= 5.91D-07
 ErrMax= 5.91D-07  0.00D+00 EMaxC= 1.00D-01 BMatC= 2.38D-11 BMatP= 8.05D-10
 IDIUse=1 WtCom= 1.00D+00 WtEn= 0.00D+00
 Coeff-Com:  0.621D-01 0.113D+00 0.205D+00 0.619D+00
 Coeff:      0.621D-01 0.113D+00 0.205D+00 0.619D+00
 Gap=     0.230 Goal=   None    Shift=    0.000
 RMSDP=8.24D-08 MaxDP=9.91D-07 DE=-5.88D-10 OVMax= 1.50D-06

 Cycle  10  Pass 1  IDiag  1:
 E= -193.154459430087     Delta-E=       -0.000000000019 Rises=F Damp=F
 DIIS: error= 9.77D-08 at cycle   5 NSaved=   5.
 NSaved= 5 IEnMin= 5 EnMin= -193.154459430087     IErMin= 5 ErrMin= 9.77D-08
 ErrMax= 9.77D-08  0.00D+00 EMaxC= 1.00D-01 BMatC= 6.11D-13 BMatP= 2.38D-11
 IDIUse=1 WtCom= 1.00D+00 WtEn= 0.00D+00
 Coeff-Com: -0.288D-02 0.253D-02 0.228D-01 0.176D+00 0.802D+00
 Coeff:     -0.288D-02 0.253D-02 0.228D-01 0.176D+00 0.802D+00
 Gap=     0.230 Goal=   None    Shift=    0.000
 RMSDP=1.46D-08 MaxDP=1.88D-07 DE=-1.94D-11 OVMax= 2.50D-07

 Cycle  11  Pass 1  IDiag  1:
 E= -193.154459430088     Delta-E=       -0.000000000001 Rises=F Damp=F
 DIIS: error= 1.80D-08 at cycle   6 NSaved=   6.
 NSaved= 6 IEnMin= 6 EnMin= -193.154459430088     IErMin= 6 ErrMin= 1.80D-08
 ErrMax= 1.80D-08  0.00D+00 EMaxC= 1.00D-01 BMatC= 4.34D-14 BMatP= 6.11D-13
 IDIUse=1 WtCom= 1.00D+00 WtEn= 0.00D+00
 Coeff-Com: -0.298D-02-0.267D-02 0.327D-02 0.468D-01 0.317D+00 0.639D+00
 Coeff:     -0.298D-02-0.267D-02 0.327D-02 0.468D-01 0.317D+00 0.639D+00
 Gap=     0.230 Goal=   None    Shift=    0.000
 RMSDP=3.05D-09 MaxDP=4.99D-08 DE=-6.82D-13 OVMax= 6.49D-08

 SCF Done:  E(RB3LYP) =  -193.154459430     A.U. after   11 cycles
            NFock= 11  Conv=0.30D-08     -V/T= 2.0094
 KE= 1.913504944560D+02 PE=-6.879238804772D+02 EE= 1.844624711739D+02
 Leave Link  502 at Wed May 27 10:19:32 2020, MaxMem=   402653184 cpu:              18.6 elap:               4.7
 (Enter /n/sw/g16_nehalem/g16/l701.exe)
 ... and contract with generalized density number  0.
 Compute integral first derivatives.
 Leave Link  701 at Wed May 27 10:19:34 2020, MaxMem=   402653184 cpu:               0.5 elap:               0.2
 (Enter /n/sw/g16_nehalem/g16/l702.exe)
 L702 exits ... SP integral derivatives will be done elsewhere.
 Leave Link  702 at Wed May 27 10:19:34 2020, MaxMem=   402653184 cpu:               0.1 elap:               0.0
 (Enter /n/sw/g16_nehalem/g16/l703.exe)
 Integral derivatives from FoFJK, PRISM(SPDF).
 Compute integral first derivatives, UseDBF=F ICtDFT=           0.
 Calling FoFJK, ICntrl=      2127 FMM=F ISym2X=0 I1Cent= 0 IOpClX= 0 NMat=1 NMatS=1 NMatT=0.
 FoFJK:  IHMeth= 1 ICntrl=    2127 DoSepK=F KAlg= 0 I1Cent=           0 FoldK=F
 IRaf=         0 NMat=       1 IRICut=       1 DoRegI=T DoRafI=F ISym2E= 0 IDoP0=0 IntGTp=1.
 FoFCou: FMM=F IPFlag=           0 FMFlag=      100000 FMFlg1=         800
         NFxFlg=           0 DoJE=F BraDBF=F KetDBF=F FulRan=T
         wScrn=  0.000000 ICntrl=      2127 IOpCl=  0 I1Cent=           0 NGrid=           0
         NMat0=    1 NMatS0=      1 NMatT0=    0 NMatD0=    1 NMtDS0=    0 NMtDT0=    0
 Symmetry not used in FoFCou.
 Leave Link  703 at Wed May 27 10:19:36 2020, MaxMem=   402653184 cpu:               7.2 elap:               1.8
 (Enter /n/sw/g16_nehalem/g16/l716.exe)
 Dipole        =-2.99525448D-02-1.07759765D+00 1.21041780D-04
 ***** Axes restored to original set *****
 -------------------------------------------------------------------
 Center     Atomic                   Forces (Hartrees/Bohr)
 Number     Number              X              Y              Z
 -------------------------------------------------------------------
      1        6           0.003017841   -0.002480177    0.003499803
      2        1          -0.000789574   -0.000131003   -0.001365177
      3        1          -0.000846566    0.000173851   -0.001570772
      4        1          -0.001080937    0.000093462   -0.001425977
      5        6          -0.001500316    0.008736374    0.002625950
      6        8           0.000879766   -0.005039514   -0.001487327
      7        6          -0.001995339    0.002434364   -0.001899619
      8        1           0.000814243   -0.001489753    0.000215354
      9        1           0.000601284   -0.001561387    0.000352138
     10        1           0.000899597   -0.000736218    0.001055628
 -------------------------------------------------------------------
 Cartesian Forces:  Max     0.008736374 RMS     0.002395300
 Leave Link  716 at Wed May 27 10:19:36 2020, MaxMem=   402653184 cpu:               0.1 elap:               0.0
 (Enter /n/sw/g16_nehalem/g16/l103.exe)

 GradGradGradGradGradGradGradGradGradGradGradGradGradGradGradGradGradGrad
 Berny optimization.
 Using GEDIIS/GDIIS optimizer.
 FormGI is forming the generalized inverse of G from B-inverse, IUseBI=4.
 Internal  Forces:  Max     0.005265400 RMS     0.001453582
 Search for a local minimum.
 Step number   2 out of a maximum of   46
 All quantities printed in internal units (Hartrees-Bohrs-Radians)
 RMS Force = .14536D-02 SwitMx=.10000D-02 MixMth= 1
 Mixed Optimization -- RFO/linear search
 Update second derivatives using D2CorX and points    1    2
 DE= -6.02D-03 DEPred=-5.70D-03 R= 1.06D+00
 TightC=F SS=  1.41D+00  RLast= 1.70D-01 DXNew= 5.0454D-01 5.0928D-01
 Trust test= 1.06D+00 RLast= 1.70D-01 DXMaxT set to 5.05D-01
 ITU=  1  0
 Use linear search instead of GDIIS.
     Eigenvalues ---    0.00237   0.00237   0.00237   0.06894   0.07111
     Eigenvalues ---    0.07222   0.07348   0.15514   0.16000   0.16000
     Eigenvalues ---    0.16000   0.16000   0.16228   0.24367   0.25000
     Eigenvalues ---    0.28496   0.29206   0.37064   0.37230   0.37230
     Eigenvalues ---    0.37230   0.37230   0.38236   0.77205
 RFO step:  Lambda=-2.78970415D-04 EMin= 2.36824177D-03
 Quartic linear search produced a step of  0.08145.
 Iteration  1 RMS(Cart)=  0.00924057 RMS(Int)=  0.00010293
 Iteration  2 RMS(Cart)=  0.00012049 RMS(Int)=  0.00004611
 Iteration  3 RMS(Cart)=  0.00000000 RMS(Int)=  0.00004611
 ITry= 1 IFail=0 DXMaxC= 2.26D-02 DCOld= 1.00D+10 DXMaxT= 5.05D-01 DXLimC= 3.00D+00 Rises=F
 Variable       Old X    -DE/DX   Delta X   Delta X   Delta X     New X
                                 (Linear)    (Quad)   (Total)
    R1        2.06765  -0.00009   0.00372  -0.00311   0.00061   2.06826
    R2        2.06621   0.00109   0.00360   0.00041   0.00401   2.07022
    R3        2.06621   0.00109   0.00360   0.00041   0.00401   2.07021
    R4        2.87674   0.00174  -0.00272   0.00873   0.00601   2.88275
    R5        2.30534  -0.00527  -0.00592  -0.00275  -0.00867   2.29666
    R6        2.86787   0.00067  -0.00345   0.00525   0.00180   2.86967
    R7        2.07142   0.00086   0.00402  -0.00058   0.00345   2.07486
    R8        2.07141   0.00085   0.00402  -0.00060   0.00343   2.07484
    R9        2.06130   0.00056   0.00320  -0.00083   0.00237   2.06367
    A1        1.90972  -0.00117  -0.00007  -0.00544  -0.00561   1.90411
    A2        1.90972  -0.00117  -0.00007  -0.00542  -0.00559   1.90413
    A3        1.95978   0.00207   0.00400   0.01304   0.01694   1.97672
    A4        1.88839  -0.00176  -0.00181  -0.01559  -0.01743   1.87096
    A5        1.89742   0.00097  -0.00108   0.00623   0.00508   1.90250
    A6        1.89745   0.00096  -0.00107   0.00621   0.00507   1.90251
    A7        2.10423   0.00056   0.00048   0.00204   0.00252   2.10675
    A8        2.06368  -0.00299  -0.00234  -0.01107  -0.01341   2.05027
    A9        2.11528   0.00243   0.00186   0.00903   0.01089   2.12616
   A10        1.92091   0.00089   0.00084   0.00375   0.00454   1.92545
   A11        1.92112   0.00090   0.00085   0.00382   0.00463   1.92575
   A12        1.89987   0.00201  -0.00088   0.01741   0.01644   1.91631
   A13        1.88242  -0.00186  -0.00230  -0.01672  -0.01902   1.86340
   A14        1.91973  -0.00099   0.00074  -0.00431  -0.00366   1.91608
   A15        1.91986  -0.00099   0.00075  -0.00428  -0.00361   1.91625
    D1       -3.14146   0.00000   0.00001  -0.00031  -0.00030   3.14143
    D2       -0.00005   0.00000   0.00000   0.00082   0.00082   0.00076
    D3        1.02617  -0.00051  -0.00171  -0.00614  -0.00788   1.01829
    D4       -2.11561  -0.00051  -0.00173  -0.00501  -0.00676  -2.12237
    D5       -1.02588   0.00051   0.00174   0.00552   0.00728  -1.01859
    D6        2.11552   0.00052   0.00172   0.00666   0.00840   2.12393
    D7       -1.03792   0.00059   0.00091   0.00837   0.00932  -1.02860
    D8        1.03461  -0.00059  -0.00087  -0.00754  -0.00845   1.02616
    D9        3.14008   0.00000   0.00003   0.00046   0.00049   3.14057
   D10        2.10348   0.00059   0.00090   0.00951   0.01045   2.11393
   D11       -2.10718  -0.00059  -0.00088  -0.00640  -0.00732  -2.11449
   D12       -0.00171   0.00001   0.00002   0.00160   0.00162  -0.00008
         Item               Value     Threshold  Converged?
 Maximum Force            0.005265     0.000450     NO 
 RMS     Force            0.001454     0.000300     NO 
 Maximum Displacement     0.022577     0.001800     NO 
 RMS     Displacement     0.009235     0.001200     NO 
 Predicted change in Energy=-1.775585D-04
 Lowest energy point so far.  Saving SCF results.
 GradGradGradGradGradGradGradGradGradGradGradGradGradGradGradGradGradGrad

 Leave Link  103 at Wed May 27 10:19:36 2020, MaxMem=   402653184 cpu:               0.1 elap:               0.0
 (Enter /n/sw/g16_nehalem/g16/l202.exe)
                          Input orientation:                          
 ---------------------------------------------------------------------
 Center     Atomic      Atomic             Coordinates (Angstroms)
 Number     Number       Type             X           Y           Z
 ---------------------------------------------------------------------
      1          6           0       -4.314629    0.079061    0.034807
      2          1           0       -3.969902   -0.959108   -0.000552
      3          1           0       -3.969545    0.602118   -0.863790
      4          1           0       -5.409906    0.093836    0.017698
      5          6           0       -3.826790    0.834108    1.267293
      6          8           0       -4.130029    1.997892    1.442527
      7          6           0       -2.954843    0.076706    2.253239
      8          1           0       -3.488809   -0.802408    2.637400
      9          1           0       -2.049879   -0.295154    1.754972
     10          1           0       -2.678026    0.732208    3.081647
 ---------------------------------------------------------------------
                    Distance matrix (angstroms):
                    1          2          3          4          5
     1  C    0.000000
     2  H    1.094478   0.000000
     3  H    1.095513   1.783987   0.000000
     4  H    1.095511   1.783994   1.763523   0.000000
     5  C    1.525485   2.200804   2.148422   2.148429   0.000000
     6  O    2.386979   3.294233   2.700563   2.700676   1.215341
     7  C    2.602012   2.680080   3.319872   3.320432   1.518565
     8  H    2.869226   2.686037   3.802911   3.369971   2.160928
     9  H    2.868466   2.684993   3.368699   3.802528   2.161129
    10  H    3.519703   3.745590   4.153483   4.154332   2.149866
                    6          7          8          9         10
     6  O    0.000000
     7  C    2.393590   0.000000
     8  H    3.111361   1.097971   0.000000
     9  H    3.111705   1.097956   1.762528   0.000000
    10  H    2.529227   1.092049   1.791583   1.791677   0.000000
 Stoichiometry    C3H6O
 Framework group  C1[X(C3H6O)]
 Deg. of freedom    24
 Full point group                 C1      NOp   1
 RotChk:  IX=0 Diff= 3.45D-03
 Largest Abelian subgroup         C1      NOp   1
 Largest concise Abelian subgroup C1      NOp   1
                         Standard orientation:                         
 ---------------------------------------------------------------------
 Center     Atomic      Atomic             Coordinates (Angstroms)
 Number     Number       Type             X           Y           Z
 ---------------------------------------------------------------------
      1          6           0       -1.290960   -0.628162   -0.000036
      2          1           0       -1.127862   -1.710419    0.000221
      3          1           0       -1.880342   -0.354719   -0.882083
      4          1           0       -1.881039   -0.354390    0.881439
      5          6           0        0.005149    0.176330    0.000316
      6          8           0       -0.018609    1.391439   -0.000086
      7          6           0        1.310888   -0.598966   -0.000070
      8          1           0        1.367497   -1.250893    0.881592
      9          1           0        1.366656   -1.252016   -0.880935
     10          1           0        2.153502    0.095708   -0.000809
 ---------------------------------------------------------------------
 Rotational constants (GHZ):          10.2122875           8.3380784           4.8672220
 Leave Link  202 at Wed May 27 10:19:36 2020, MaxMem=   402653184 cpu:               0.1 elap:               0.0
 (Enter /n/sw/g16_nehalem/g16/l301.exe)
 Standard basis: 6-31G(d) (6D, 7F)
 Ernie: Thresh=  0.10000D-02 Tol=  0.10000D-05 Strict=F.
 There are    72 symmetry adapted cartesian basis functions of A   symmetry.
 There are    72 symmetry adapted basis functions of A   symmetry.
    72 basis functions,   136 primitive gaussians,    72 cartesian basis functions
    16 alpha electrons       16 beta electrons
       nuclear repulsion energy       118.9046081412 Hartrees.
 IExCor=  402 DFT=T Ex+Corr=B3LYP ExCW=0 ScaHFX=  0.200000
 ScaDFX=  0.800000  0.720000  1.000000  0.810000 ScalE2=  1.000000  1.000000
 IRadAn=      5 IRanWt=     -1 IRanGd=            0 ICorTp=0 IEmpDi=  4
 NAtoms=   10 NActive=   10 NUniq=   10 SFac= 1.00D+00 NAtFMM=   60 NAOKFM=F Big=F
 Integral buffers will be    131072 words long.
 Raffenetti 2 integral format.
 Two-electron integral symmetry is turned on.
 Leave Link  301 at Wed May 27 10:19:36 2020, MaxMem=   402653184 cpu:               0.2 elap:               0.1
 (Enter /n/sw/g16_nehalem/g16/l302.exe)
 NPDir=0 NMtPBC=     1 NCelOv=     1 NCel=       1 NClECP=     1 NCelD=      1
         NCelK=      1 NCelE2=     1 NClLst=     1 CellRange=     0.0.
 One-electron integrals computed using PRISM.
 One-electron integral symmetry used in STVInt
 NBasis=    72 RedAO= T EigKep=  4.77D-03  NBF=    72
 NBsUse=    72 1.00D-06 EigRej= -1.00D+00 NBFU=    72
 Precomputing XC quadrature grid using
 IXCGrd= 4 IRadAn=           5 IRanWt=          -1 IRanGd=           0 AccXCQ= 0.00D+00.
 Generated NRdTot=       0 NPtTot=           0 NUsed=           0 NTot=          32
 NSgBfM=    72    72    72    72    72 MxSgAt=    10 MxSgA2=    10.
 Leave Link  302 at Wed May 27 10:19:36 2020, MaxMem=   402653184 cpu:               1.1 elap:               0.3
 (Enter /n/sw/g16_nehalem/g16/l303.exe)
 DipDrv:  MaxL=1.
 Leave Link  303 at Wed May 27 10:19:36 2020, MaxMem=   402653184 cpu:               0.1 elap:               0.0
 (Enter /n/sw/g16_nehalem/g16/l401.exe)
 Initial guess from the checkpoint file:  "checkpoint.chk"
 B after Tr=     0.000000    0.000000    0.000000
         Rot=    0.999997   -0.000041    0.000027   -0.002267 Ang=  -0.26 deg.
 Guess basis will be translated and rotated to current coordinates.
 JPrj=2 DoOrth=T DoCkMO=T.
 Generating alternative initial guess.
 ExpMin= 1.61D-01 ExpMax= 5.48D+03 ExpMxC= 8.25D+02 IAcc=2 IRadAn=         4 AccDes= 0.00D+00
 Harris functional with IExCor=  402 and IRadAn=       4 diagonalized for initial guess.
 HarFok:  IExCor=  402 AccDes= 0.00D+00 IRadAn=         4 IDoV= 1 UseB2=F ITyADJ=14
 ICtDFT=  3500011 ScaDFX=  1.000000  1.000000  1.000000  1.000000
 FoFCou: FMM=F IPFlag=           0 FMFlag=      100000 FMFlg1=           0
         NFxFlg=           0 DoJE=T BraDBF=F KetDBF=T FulRan=T
         wScrn=  0.000000 ICntrl=       500 IOpCl=  0 I1Cent=   200000004 NGrid=           0
         NMat0=    1 NMatS0=      1 NMatT0=    0 NMatD0=    1 NMtDS0=    0 NMtDT0=    0
 Petite list used in FoFCou.
 Harris En= -193.201106738026    
 Leave Link  401 at Wed May 27 10:19:37 2020, MaxMem=   402653184 cpu:               1.8 elap:               0.5
 (Enter /n/sw/g16_nehalem/g16/l502.exe)
 Keep R1 ints in memory in canonical form, NReq=7040236.
 FoFCou: FMM=F IPFlag=           0 FMFlag=           0 FMFlg1=           0
         NFxFlg=           0 DoJE=F BraDBF=F KetDBF=F FulRan=T
         wScrn=  0.000000 ICntrl=       600 IOpCl=  0 I1Cent=           0 NGrid=           0
         NMat0=    1 NMatS0=   2628 NMatT0=    0 NMatD0=    1 NMtDS0=    0 NMtDT0=    0
 Symmetry not used in FoFCou.
 Two-electron integral symmetry not used.
 Closed shell SCF:
 Using DIIS extrapolation, IDIIS=  1040.
 NGot=   402653184 LenX=   399186864 LenY=   399181239
 Requested convergence on RMS density matrix=1.00D-08 within 128 cycles.
 Requested convergence on MAX density matrix=1.00D-06.
 Requested convergence on             energy=1.00D-06.
 No special actions if energy rises.
 Integral accuracy reduced to 1.0D-05 until final iterations.

 Cycle   1  Pass 0  IDiag  1:
 E= -193.154535093007    
 DIIS: error= 6.69D-04 at cycle   1 NSaved=   1.
 NSaved= 1 IEnMin= 1 EnMin= -193.154535093007     IErMin= 1 ErrMin= 6.69D-04
 ErrMax= 6.69D-04  0.00D+00 EMaxC= 1.00D-01 BMatC= 7.50D-05 BMatP= 7.50D-05
 IDIUse=3 WtCom= 9.93D-01 WtEn= 6.69D-03
 Coeff-Com:  0.100D+01
 Coeff-En:   0.100D+01
 Coeff:      0.100D+01
 Gap=     1.883 Goal=   None    Shift=    0.000
 RMSDP=2.13D-04 MaxDP=2.07D-03              OVMax= 3.05D-03

 Cycle   2  Pass 0  IDiag  1:
 E= -193.154631784452     Delta-E=       -0.000096691445 Rises=F Damp=F
 DIIS: error= 5.69D-04 at cycle   2 NSaved=   2.
 NSaved= 2 IEnMin= 2 EnMin= -193.154631784452     IErMin= 2 ErrMin= 5.69D-04
 ErrMax= 5.69D-04  0.00D+00 EMaxC= 1.00D-01 BMatC= 2.56D-05 BMatP= 7.50D-05
 IDIUse=3 WtCom= 9.94D-01 WtEn= 5.69D-03
 Coeff-Com:  0.300D+00 0.700D+00
 Coeff-En:   0.000D+00 0.100D+01
 Coeff:      0.298D+00 0.702D+00
 Gap=     0.231 Goal=   None    Shift=    0.000
 RMSDP=1.10D-04 MaxDP=2.41D-03 DE=-9.67D-05 OVMax= 3.63D-03

 Cycle   3  Pass 0  IDiag  1:
 E= -193.154625065722     Delta-E=        0.000006718730 Rises=F Damp=F
 DIIS: error= 8.54D-04 at cycle   3 NSaved=   3.
 NSaved= 3 IEnMin= 2 EnMin= -193.154631784452     IErMin= 2 ErrMin= 5.69D-04
 ErrMax= 8.54D-04  0.00D+00 EMaxC= 1.00D-01 BMatC= 3.41D-05 BMatP= 2.56D-05
 IDIUse=3 WtCom= 2.55D-01 WtEn= 7.45D-01
 Coeff-Com:  0.399D-03 0.537D+00 0.463D+00
 Coeff-En:   0.000D+00 0.556D+00 0.444D+00
 Coeff:      0.102D-03 0.551D+00 0.449D+00
 Gap=     0.232 Goal=   None    Shift=    0.000
 RMSDP=6.77D-05 MaxDP=1.44D-03 DE= 6.72D-06 OVMax= 2.33D-03

 Cycle   4  Pass 0  IDiag  1:
 E= -193.154651400316     Delta-E=       -0.000026334594 Rises=F Damp=F
 DIIS: error= 7.52D-05 at cycle   4 NSaved=   4.
 NSaved= 4 IEnMin= 4 EnMin= -193.154651400316     IErMin= 4 ErrMin= 7.52D-05
 ErrMax= 7.52D-05  0.00D+00 EMaxC= 1.00D-01 BMatC= 4.19D-07 BMatP= 2.56D-05
 IDIUse=1 WtCom= 1.00D+00 WtEn= 0.00D+00
 Coeff-Com: -0.147D-01 0.214D+00 0.199D+00 0.602D+00
 Coeff:     -0.147D-01 0.214D+00 0.199D+00 0.602D+00
 Gap=     0.232 Goal=   None    Shift=    0.000
 RMSDP=8.20D-06 MaxDP=1.26D-04 DE=-2.63D-05 OVMax= 1.45D-04

 Initial convergence to 1.0D-05 achieved.  Increase integral accuracy.
 Cycle   5  Pass 1  IDiag  1:
 E= -193.154652484927     Delta-E=       -0.000001084611 Rises=F Damp=F
 DIIS: error= 2.55D-05 at cycle   1 NSaved=   1.
 NSaved= 1 IEnMin= 1 EnMin= -193.154652484927     IErMin= 1 ErrMin= 2.55D-05
 ErrMax= 2.55D-05  0.00D+00 EMaxC= 1.00D-01 BMatC= 2.93D-08 BMatP= 2.93D-08
 IDIUse=1 WtCom= 1.00D+00 WtEn= 0.00D+00
 Coeff-Com:  0.100D+01
 Coeff:      0.100D+01
 Gap=     0.232 Goal=   None    Shift=    0.000
 RMSDP=8.20D-06 MaxDP=1.26D-04 DE=-1.08D-06 OVMax= 7.91D-05

 Cycle   6  Pass 1  IDiag  1:
 E= -193.154652472752     Delta-E=        0.000000012175 Rises=F Damp=F
 DIIS: error= 3.00D-05 at cycle   2 NSaved=   2.
 NSaved= 2 IEnMin= 1 EnMin= -193.154652484927     IErMin= 1 ErrMin= 2.55D-05
 ErrMax= 3.00D-05  0.00D+00 EMaxC= 1.00D-01 BMatC= 4.38D-08 BMatP= 2.93D-08
 IDIUse=1 WtCom= 1.00D+00 WtEn= 0.00D+00
 Coeff-Com:  0.552D+00 0.448D+00
 Coeff:      0.552D+00 0.448D+00
 Gap=     0.232 Goal=   None    Shift=    0.000
 RMSDP=2.89D-06 MaxDP=3.42D-05 DE= 1.22D-08 OVMax= 6.39D-05

 Cycle   7  Pass 1  IDiag  1:
 E= -193.154652512936     Delta-E=       -0.000000040184 Rises=F Damp=F
 DIIS: error= 6.87D-06 at cycle   3 NSaved=   3.
 NSaved= 3 IEnMin= 3 EnMin= -193.154652512936     IErMin= 3 ErrMin= 6.87D-06
 ErrMax= 6.87D-06  0.00D+00 EMaxC= 1.00D-01 BMatC= 2.79D-09 BMatP= 2.93D-08
 IDIUse=1 WtCom= 1.00D+00 WtEn= 0.00D+00
 Coeff-Com:  0.325D+00 0.285D+00 0.390D+00
 Coeff:      0.325D+00 0.285D+00 0.390D+00
 Gap=     0.232 Goal=   None    Shift=    0.000
 RMSDP=6.11D-07 MaxDP=1.45D-05 DE=-4.02D-08 OVMax= 2.15D-05

 Cycle   8  Pass 1  IDiag  1:
 E= -193.154652514896     Delta-E=       -0.000000001960 Rises=F Damp=F
 DIIS: error= 1.78D-06 at cycle   4 NSaved=   4.
 NSaved= 4 IEnMin= 4 EnMin= -193.154652514896     IErMin= 4 ErrMin= 1.78D-06
 ErrMax= 1.78D-06  0.00D+00 EMaxC= 1.00D-01 BMatC= 1.02D-10 BMatP= 2.79D-09
 IDIUse=1 WtCom= 1.00D+00 WtEn= 0.00D+00
 Coeff-Com:  0.777D-01 0.714D-01 0.197D+00 0.654D+00
 Coeff:      0.777D-01 0.714D-01 0.197D+00 0.654D+00
 Gap=     0.232 Goal=   None    Shift=    0.000
 RMSDP=1.28D-07 MaxDP=2.30D-06 DE=-1.96D-09 OVMax= 4.37D-06

 Cycle   9  Pass 1  IDiag  1:
 E= -193.154652514981     Delta-E=       -0.000000000085 Rises=F Damp=F
 DIIS: error= 1.22D-07 at cycle   5 NSaved=   5.
 NSaved= 5 IEnMin= 5 EnMin= -193.154652514981     IErMin= 5 ErrMin= 1.22D-07
 ErrMax= 1.22D-07  0.00D+00 EMaxC= 1.00D-01 BMatC= 5.38D-13 BMatP= 1.02D-10
 IDIUse=1 WtCom= 1.00D+00 WtEn= 0.00D+00
 Coeff-Com: -0.323D-02-0.192D-02 0.374D-02 0.773D-01 0.924D+00
 Coeff:     -0.323D-02-0.192D-02 0.374D-02 0.773D-01 0.924D+00
 Gap=     0.232 Goal=   None    Shift=    0.000
 RMSDP=1.42D-08 MaxDP=1.59D-07 DE=-8.55D-11 OVMax= 2.11D-07

 Cycle  10  Pass 1  IDiag  1:
 E= -193.154652514981     Delta-E=        0.000000000000 Rises=F Damp=F
 DIIS: error= 2.86D-08 at cycle   6 NSaved=   6.
 NSaved= 6 IEnMin= 5 EnMin= -193.154652514981     IErMin= 6 ErrMin= 2.86D-08
 ErrMax= 2.86D-08  0.00D+00 EMaxC= 1.00D-01 BMatC= 9.08D-14 BMatP= 5.38D-13
 IDIUse=1 WtCom= 1.00D+00 WtEn= 0.00D+00
 Coeff-Com: -0.375D-02-0.295D-02-0.500D-02 0.143D-01 0.414D+00 0.583D+00
 Coeff:     -0.375D-02-0.295D-02-0.500D-02 0.143D-01 0.414D+00 0.583D+00
 Gap=     0.232 Goal=   None    Shift=    0.000
 RMSDP=6.11D-09 MaxDP=6.89D-08 DE= 3.98D-13 OVMax= 7.61D-08

 SCF Done:  E(RB3LYP) =  -193.154652515     A.U. after   10 cycles
            NFock= 10  Conv=0.61D-08     -V/T= 2.0095
 KE= 1.913445580280D+02 PE=-6.878051029129D+02 EE= 1.844012842287D+02
 Leave Link  502 at Wed May 27 10:19:42 2020, MaxMem=   402653184 cpu:              18.0 elap:               4.6
 (Enter /n/sw/g16_nehalem/g16/l701.exe)
 ... and contract with generalized density number  0.
 Compute integral first derivatives.
 Leave Link  701 at Wed May 27 10:19:42 2020, MaxMem=   402653184 cpu:               0.7 elap:               0.2
 (Enter /n/sw/g16_nehalem/g16/l702.exe)
 L702 exits ... SP integral derivatives will be done elsewhere.
 Leave Link  702 at Wed May 27 10:19:42 2020, MaxMem=   402653184 cpu:               0.1 elap:               0.0
 (Enter /n/sw/g16_nehalem/g16/l703.exe)
 Integral derivatives from FoFJK, PRISM(SPDF).
 Compute integral first derivatives, UseDBF=F ICtDFT=           0.
 Calling FoFJK, ICntrl=      2127 FMM=F ISym2X=0 I1Cent= 0 IOpClX= 0 NMat=1 NMatS=1 NMatT=0.
 FoFJK:  IHMeth= 1 ICntrl=    2127 DoSepK=F KAlg= 0 I1Cent=           0 FoldK=F
 IRaf=         0 NMat=       1 IRICut=       1 DoRegI=T DoRafI=F ISym2E= 0 IDoP0=0 IntGTp=1.
 FoFCou: FMM=F IPFlag=           0 FMFlag=      100000 FMFlg1=         800
         NFxFlg=           0 DoJE=F BraDBF=F KetDBF=F FulRan=T
         wScrn=  0.000000 ICntrl=      2127 IOpCl=  0 I1Cent=           0 NGrid=           0
         NMat0=    1 NMatS0=      1 NMatT0=    0 NMatD0=    1 NMtDS0=    0 NMtDT0=    0
 Symmetry not used in FoFCou.
 Leave Link  703 at Wed May 27 10:19:44 2020, MaxMem=   402653184 cpu:               5.9 elap:               1.5
 (Enter /n/sw/g16_nehalem/g16/l716.exe)
 Dipole        =-1.97774818D-02-1.07427253D+00 1.37566871D-04
 ***** Axes restored to original set *****
 -------------------------------------------------------------------
 Center     Atomic                   Forces (Hartrees/Bohr)
 Number     Number              X              Y              Z
 -------------------------------------------------------------------
      1        6           0.000463005   -0.000819056    0.000370904
      2        1          -0.000118504    0.000414550    0.000050054
      3        1          -0.000191733   -0.000002379   -0.000083245
      4        1          -0.000006859    0.000059164   -0.000211992
      5        6           0.000410303   -0.000139949    0.000313658
      6        8          -0.000257166    0.000523386   -0.000027163
      7        6          -0.000392083    0.000347002   -0.000322896
      8        1           0.000090452    0.000038914   -0.000101870
      9        1          -0.000138381   -0.000022680    0.000019137
     10        1           0.000140965   -0.000398951   -0.000006587
 -------------------------------------------------------------------
 Cartesian Forces:  Max     0.000819056 RMS     0.000290292
 Leave Link  716 at Wed May 27 10:19:44 2020, MaxMem=   402653184 cpu:               0.1 elap:               0.0
 (Enter /n/sw/g16_nehalem/g16/l103.exe)

 GradGradGradGradGradGradGradGradGradGradGradGradGradGradGradGradGradGrad
 Berny optimization.
 Using GEDIIS/GDIIS optimizer.
 FormGI is forming the generalized inverse of G from B-inverse, IUseBI=4.
 Internal  Forces:  Max     0.001011585 RMS     0.000288197
 Search for a local minimum.
 Step number   3 out of a maximum of   46
 All quantities printed in internal units (Hartrees-Bohrs-Radians)
 RMS Force = .28820D-03 SwitMx=.10000D-02 MixMth= 2
 Mixed Optimization -- En-DIIS/RFO-DIIS
 Update second derivatives using D2CorX and points    1    2    3
 DE= -1.93D-04 DEPred=-1.78D-04 R= 1.09D+00
 TightC=F SS=  1.41D+00  RLast= 4.94D-02 DXNew= 8.4853D-01 1.4827D-01
 Trust test= 1.09D+00 RLast= 4.94D-02 DXMaxT set to 5.05D-01
 ITU=  1  1  0
 Use linear search instead of GDIIS.
     Eigenvalues ---    0.00237   0.00237   0.00237   0.06719   0.06749
     Eigenvalues ---    0.07056   0.07318   0.14673   0.16000   0.16000
     Eigenvalues ---    0.16000   0.16012   0.16508   0.22690   0.25019
     Eigenvalues ---    0.28449   0.29618   0.37006   0.37230   0.37230
     Eigenvalues ---    0.37230   0.37233   0.38954   0.81004
 RFO step:  Lambda=-1.24913696D-05 EMin= 2.36769012D-03
 Quartic linear search produced a step of  0.11653.
 Iteration  1 RMS(Cart)=  0.00498237 RMS(Int)=  0.00002476
 Iteration  2 RMS(Cart)=  0.00002930 RMS(Int)=  0.00001009
 Iteration  3 RMS(Cart)=  0.00000000 RMS(Int)=  0.00001009
 ITry= 1 IFail=0 DXMaxC= 1.46D-02 DCOld= 1.00D+10 DXMaxT= 5.05D-01 DXLimC= 3.00D+00 Rises=F
 Variable       Old X    -DE/DX   Delta X   Delta X   Delta X     New X
                                 (Linear)    (Quad)   (Total)
    R1        2.06826  -0.00043   0.00007  -0.00114  -0.00107   2.06719
    R2        2.07022   0.00001   0.00047  -0.00013   0.00034   2.07056
    R3        2.07021   0.00001   0.00047  -0.00011   0.00035   2.07057
    R4        2.88275   0.00002   0.00070  -0.00055   0.00015   2.88290
    R5        2.29666   0.00056  -0.00101   0.00118   0.00017   2.29683
    R6        2.86967  -0.00042   0.00021  -0.00197  -0.00176   2.86792
    R7        2.07486  -0.00011   0.00040  -0.00041   0.00000   2.07486
    R8        2.07484  -0.00011   0.00040  -0.00042  -0.00002   2.07482
    R9        2.06367  -0.00021   0.00028  -0.00065  -0.00037   2.06330
    A1        1.90411   0.00000  -0.00065   0.00070   0.00003   1.90414
    A2        1.90413  -0.00001  -0.00065   0.00068   0.00002   1.90415
    A3        1.97672  -0.00009   0.00197  -0.00156   0.00040   1.97712
    A4        1.87096  -0.00025  -0.00203  -0.00097  -0.00300   1.86796
    A5        1.90250   0.00016   0.00059   0.00049   0.00107   1.90357
    A6        1.90251   0.00018   0.00059   0.00068   0.00126   1.90377
    A7        2.10675   0.00033   0.00029   0.00128   0.00154   2.10829
    A8        2.05027  -0.00101  -0.00156  -0.00347  -0.00506   2.04521
    A9        2.12616   0.00068   0.00127   0.00221   0.00345   2.12961
[...]
 Number     Number       Type             X           Y           Z
 ---------------------------------------------------------------------
      1          6           0       -4.312883    0.078539    0.037556
      2          1           0       -3.966804   -0.958529    0.006401
      3          1           0       -3.968950    0.598700   -0.863287
      4          1           0       -5.408220    0.092031    0.017314
      5          6           0       -3.827251    0.838195    1.268295
      6          8           0       -4.131966    2.002002    1.442057
      7          6           0       -2.956325    0.078376    2.251610
      8          1           0       -3.491346   -0.801996    2.631098
      9          1           0       -2.053605   -0.294301    1.750102
     10          1           0       -2.675006    0.726242    3.084096
 ---------------------------------------------------------------------
                    Distance matrix (angstroms):
                    1          2          3          4          5
     1  C    0.000000
     2  H    1.093733   0.000000
     3  H    1.095616   1.783626   0.000000
     4  H    1.095607   1.783669   1.761724   0.000000
     5  C    1.525659   2.200016   2.149669   2.149693   0.000000
     6  O    2.388528   3.294409   2.703783   2.703092   1.215522
     7  C    2.596591   2.671554   3.316432   3.317236   1.517479
     8  H    2.859497   2.672002   3.794835   3.362373   2.158770
     9  H    2.859399   2.672457   3.360922   3.795425   2.158820
    10  H    3.519029   3.738904   4.156006   4.156661   2.153447
                    6          7          8          9         10
     6  O    0.000000
     7  C    2.395379   0.000000
     8  H    3.112333   1.097868   0.000000
     9  H    3.112473   1.097863   1.760968   0.000000
    10  H    2.539013   1.091743   1.790846   1.790862   0.000000
 Stoichiometry    C3H6O
 Framework group  C1[X(C3H6O)]
 Deg. of freedom    24
 Full point group                 C1      NOp   1
 RotChk:  IX=2 Diff= 1.55D-15
 Largest Abelian subgroup         C1      NOp   1
 Largest concise Abelian subgroup C1      NOp   1
                         Standard orientation:                         
 ---------------------------------------------------------------------
 Center     Atomic      Atomic             Coordinates (Angstroms)
 Number     Number       Type             X           Y           Z
 ---------------------------------------------------------------------
      1          6           0       -1.287440   -0.630823    0.000013
      2          1           0       -1.119735   -1.711622    0.001031
      3          1           0       -1.879317   -0.360476   -0.881445
      4          1           0       -1.880353   -0.358897    0.880278
      5          6           0        0.005721    0.178727    0.000013
      6          8           0       -0.020439    1.393967   -0.000003
      7          6           0        1.308952   -0.598661   -0.000008
      8          1           0        1.361178   -1.252223    0.880585
      9          1           0        1.361062   -1.252516   -0.880383
     10          1           0        2.157278    0.088541   -0.000159
 ---------------------------------------------------------------------
 Rotational constants (GHZ):          10.1785387           8.3678620           4.8690844
 Leave Link  202 at Wed May 27 10:20:25 2020, MaxMem=   402653184 cpu:               0.0 elap:               0.0
 (Enter /n/sw/g16_nehalem/g16/l301.exe)
 Standard basis: 6-31G(d) (6D, 7F)
 Ernie: Thresh=  0.10000D-02 Tol=  0.10000D-05 Strict=F.
 There are    72 symmetry adapted cartesian basis functions of A   symmetry.
 There are    72 symmetry adapted basis functions of A   symmetry.
    72 basis functions,   136 primitive gaussians,    72 cartesian basis functions
    16 alpha electrons       16 beta electrons
       nuclear repulsion energy       118.9185525389 Hartrees.
 IExCor=  402 DFT=T Ex+Corr=B3LYP ExCW=0 ScaHFX=  0.200000
 ScaDFX=  0.800000  0.720000  1.000000  0.810000 ScalE2=  1.000000  1.000000
 IRadAn=      5 IRanWt=     -1 IRanGd=            0 ICorTp=0 IEmpDi=  4
 NAtoms=   10 NActive=   10 NUniq=   10 SFac= 1.00D+00 NAtFMM=   60 NAOKFM=F Big=F
 Integral buffers will be    131072 words long.
 Raffenetti 2 integral format.
 Two-electron integral symmetry is turned on.
 Leave Link  301 at Wed May 27 10:20:25 2020, MaxMem=   402653184 cpu:               0.2 elap:               0.1
 (Enter /n/sw/g16_nehalem/g16/l302.exe)
 NPDir=0 NMtPBC=     1 NCelOv=     1 NCel=       1 NClECP=     1 NCelD=      1
         NCelK=      1 NCelE2=     1 NClLst=     1 CellRange=     0.0.
 One-electron integrals computed using PRISM.
 One-electron integral symmetry used in STVInt
 NBasis=    72 RedAO= T EigKep=  4.74D-03  NBF=    72
 NBsUse=    72 1.00D-06 EigRej= -1.00D+00 NBFU=    72
 Precomputing XC quadrature grid using
 IXCGrd= 4 IRadAn=           5 IRanWt=          -1 IRanGd=           0 AccXCQ= 0.00D+00.
 Generated NRdTot=       0 NPtTot=           0 NUsed=           0 NTot=          32
 NSgBfM=    72    72    72    72    72 MxSgAt=    10 MxSgA2=    10.
 Leave Link  302 at Wed May 27 10:20:25 2020, MaxMem=   402653184 cpu:               0.7 elap:               0.2
 (Enter /n/sw/g16_nehalem/g16/l303.exe)
 DipDrv:  MaxL=1.
 Leave Link  303 at Wed May 27 10:20:25 2020, MaxMem=   402653184 cpu:               0.1 elap:               0.0
 (Enter /n/sw/g16_nehalem/g16/l308.exe)
 Leave Link  308 at Wed May 27 10:20:25 2020, MaxMem=   402653184 cpu:               0.1 elap:               0.0
 (Enter /n/sw/g16_nehalem/g16/l401.exe)
 Initial guess from the checkpoint file:  "checkpoint.chk"
 B after Tr=     0.000000    0.000000    0.000000
         Rot=    1.000000    0.000000    0.000000    0.000000 Ang=   0.00 deg.
 Guess basis will be translated and rotated to current coordinates.
 JPrj=2 DoOrth=T DoCkMO=T.
 Leave Link  401 at Wed May 27 10:20:26 2020, MaxMem=   402653184 cpu:               0.3 elap:               0.1
 (Enter /n/sw/g16_nehalem/g16/l502.exe)
 Keep R1 ints in memory in canonical form, NReq=7040236.
 FoFCou: FMM=F IPFlag=           0 FMFlag=           0 FMFlg1=           0
         NFxFlg=           0 DoJE=F BraDBF=F KetDBF=F FulRan=T
         wScrn=  0.000000 ICntrl=       600 IOpCl=  0 I1Cent=           0 NGrid=           0
         NMat0=    1 NMatS0=   2628 NMatT0=    0 NMatD0=    1 NMtDS0=    0 NMtDT0=    0
 Symmetry not used in FoFCou.
 Two-electron integral symmetry not used.
 Closed shell SCF:
 Using DIIS extrapolation, IDIIS=  1040.
 NGot=   402653184 LenX=   399186864 LenY=   399181239
 Requested convergence on RMS density matrix=1.00D-08 within 128 cycles.
 Requested convergence on MAX density matrix=1.00D-06.
 Requested convergence on             energy=1.00D-06.
 No special actions if energy rises.

 Cycle   1  Pass 1  IDiag  1:
 E= -193.154661878196    
 DIIS: error= 4.43D-09 at cycle   1 NSaved=   1.
 NSaved= 1 IEnMin= 1 EnMin= -193.154661878196     IErMin= 1 ErrMin= 4.43D-09
 ErrMax= 4.43D-09  0.00D+00 EMaxC= 1.00D-01 BMatC= 1.85D-15 BMatP= 1.85D-15
 IDIUse=1 WtCom= 1.00D+00 WtEn= 0.00D+00
 Coeff-Com:  0.100D+01
 Coeff:      0.100D+01
 Gap=     0.232 Goal=   None    Shift=    0.000
 RMSDP=1.28D-09 MaxDP=1.41D-08              OVMax= 2.08D-08

 SCF Done:  E(RB3LYP) =  -193.154661878     A.U. after    1 cycles
            NFock=  1  Conv=0.13D-08     -V/T= 2.0095
 KE= 1.913462759107D+02 PE=-6.878324366017D+02 EE= 1.844129462740D+02
 Leave Link  502 at Wed May 27 10:20:27 2020, MaxMem=   402653184 cpu:               5.0 elap:               1.3
 (Enter /n/sw/g16_nehalem/g16/l801.exe)
 DoSCS=F DFT=T ScalE2(SS,OS)=  1.000000  1.000000
 Range of M.O.s used for correlation:     1    72
 NBasis=    72 NAE=    16 NBE=    16 NFC=     0 NFV=     0
 NROrb=     72 NOA=    16 NOB=    16 NVA=    56 NVB=    56
 Leave Link  801 at Wed May 27 10:20:27 2020, MaxMem=   402653184 cpu:               0.1 elap:               0.0
 (Enter /n/sw/g16_nehalem/g16/l1002.exe)
 Minotr:  Closed shell wavefunction.
          Direct CPHF calculation.
          Differentiating once with respect to magnetic field using GIAOs.
          Electric field/nuclear overlap derivatives assumed to be zero.
          Requested convergence is 1.0D-08 RMS, and 1.0D-07 maximum.
          Secondary convergence is 1.0D-12 RMS, and 1.0D-12 maximum.
          NewPWx=T KeepS1=F KeepF1=F KeepIn=T MapXYZ=F SortEE=F KeepMc=T.
         2953 words used for storage of precomputed grid.
 Keep R3 ints in memory in canonical form, NReq=9070632.
 FoFCou: FMM=F IPFlag=           0 FMFlag=           0 FMFlg1=           0
         NFxFlg=           0 DoJE=F BraDBF=F KetDBF=F FulRan=T
         wScrn=  0.000000 ICntrl=       600 IOpCl=  0 I1Cent=           0 NGrid=           0
         NMat0=    1 NMatS0=   2628 NMatT0=    0 NMatD0=    1 NMtDS0=    0 NMtDT0=    0
 Symmetry not used in FoFCou.
 Two-electron integral symmetry not used.
          MDV=     402653184 using IRadAn=       1.
          Solving linear equations simultaneously, MaxMat=       0.
 FoFJK:  IHMeth= 1 ICntrl=    6127 DoSepK=F KAlg= 0 I1Cent=           0 FoldK=F
 IRaf=         1 NMat=       1 IRICut=       1 DoRegI=T DoRafI=F ISym2E= 0 IDoP0=0 IntGTp=1.
          There are     3 degrees of freedom in the 1st order CPHF.  IDoFFX=0 NUNeed=     3.
      3 vectors produced by pass  0 Test12= 2.99D-14 3.33D-08 XBig12= 3.93D+00 1.60D+00.
 AX will form     3 AO Fock derivatives at one time.
      3 vectors produced by pass  1 Test12= 2.99D-14 3.33D-08 XBig12= 4.29D-02 1.16D-01.
      3 vectors produced by pass  2 Test12= 2.99D-14 3.33D-08 XBig12= 1.43D-04 5.83D-03.
      3 vectors produced by pass  3 Test12= 2.99D-14 3.33D-08 XBig12= 3.59D-07 2.77D-04.
      3 vectors produced by pass  4 Test12= 2.99D-14 3.33D-08 XBig12= 4.54D-10 5.84D-06.
      2 vectors produced by pass  5 Test12= 2.99D-14 3.33D-08 XBig12= 2.81D-13 1.67D-07.
 InvSVY:  IOpt=1 It=  1 EMax= 4.44D-16
 Solved reduced A of dimension    17 with     3 vectors.
 Calculating GIAO nuclear magnetic shielding tensors.
 SCF GIAO Magnetic shielding tensor (ppm):
      1  C    Isotropic =   163.8233   Anisotropy =    40.2670
   XX=   181.4107   YX=    17.0062   ZX=    -0.0214
   XY=    16.7307   YY=   159.9309   ZY=    -0.0138
   XZ=    -0.0123   YZ=     0.0075   ZZ=   150.1285
   Eigenvalues:   150.1284   150.6736   190.6680
      2  H    Isotropic =    30.2998   Anisotropy =     3.2180
   XX=    31.2565   YX=     1.6567   ZX=    -0.0016
   XY=    -2.1666   YY=    32.3905   ZY=    -0.0048
   XZ=    -0.0002   YZ=    -0.0048   ZZ=    27.2525
   Eigenvalues:    27.2525    31.2019    32.4452
      3  H    Isotropic =    30.3550   Anisotropy =     5.9028
   XX=    31.1075   YX=    -1.1990   ZX=     3.4445
   XY=     0.2820   YY=    29.0234   ZY=    -0.1455
   XZ=     2.9577   YZ=    -0.6184   ZZ=    30.9339
   Eigenvalues:    27.8166    28.9581    34.2902
      4  H    Isotropic =    30.3553   Anisotropy =     5.9052
   XX=    31.1137   YX=    -1.2083   ZX=    -3.4457
   XY=     0.2819   YY=    29.0265   ZY=     0.1477
   XZ=    -2.9591   YZ=     0.6236   ZZ=    30.9257
   Eigenvalues:    27.8141    28.9598    34.2921
      5  C    Isotropic =    -4.4319   Anisotropy =   169.1447
   XX=   -79.5435   YX=    -5.9122   ZX=     0.0083
   XY=    -2.9785   YY=   -42.0834   ZY=     0.0011
   XZ=     0.0111   YZ=    -0.0026   ZZ=   108.3312
   Eigenvalues:   -80.0638   -41.5631   108.3312
      6  O    Isotropic =  -298.9113   Anisotropy =   970.2389
   XX=  -385.6959   YX=   -40.8495   ZX=     0.0225
   XY=    11.0881   YY=  -858.9526   ZY=     0.0077
   XZ=     0.0186   YZ=    -0.0836   ZZ=   347.9147
   Eigenvalues:  -859.4200  -385.2284   347.9147
      7  C    Isotropic =   158.2356   Anisotropy =    51.0212
   XX=   189.6974   YX=    -4.4882   ZX=    -0.0033
   XY=   -17.5805   YY=   144.5469   ZY=    -0.0014
   XZ=    -0.0063   YZ=    -0.0075   ZZ=   140.4626
   Eigenvalues:   140.4626   141.9945   192.2498
      8  H    Isotropic =    30.0067   Anisotropy =     3.6041
   XX=    30.3334   YX=    -1.0559   ZX=     1.2615
   XY=     0.8351   YY=    29.3747   ZY=    -1.6960
   XZ=     0.7381   YZ=    -2.6224   ZZ=    30.3120
   Eigenvalues:    27.5232    30.0874    32.4094
      9  H    Isotropic =    30.0064   Anisotropy =     3.6033
   XX=    30.3337   YX=    -1.0563   ZX=    -1.2612
   XY=     0.8352   YY=    29.3754   ZY=     1.6963
   XZ=    -0.7378   YZ=     2.6221   ZZ=    30.3102
   Eigenvalues:    27.5230    30.0876    32.4086
     10  H    Isotropic =    30.5319   Anisotropy =     6.2417
   XX=    33.6731   YX=     4.5035   ZX=    -0.0010
   XY=    -0.1390   YY=    30.0240   ZY=     0.0000
   XZ=    -0.0010   YZ=    -0.0008   ZZ=    27.8987
   Eigenvalues:    27.8987    29.0041    34.6931
 End of Minotr F.D. properties file   721 does not exist.
 End of Minotr F.D. properties file   722 does not exist.
 End of Minotr F.D. properties file   788 does not exist.
 Leave Link 1002 at Wed May 27 10:20:28 2020, MaxMem=   402653184 cpu:               4.3 elap:               1.4
 (Enter /n/sw/g16_nehalem/g16/l601.exe)
 Copying SCF densities to generalized density rwf, IOpCl= 0 IROHF=0.

 **********************************************************************

            Population analysis using the SCF density.

 **********************************************************************

 Orbital symmetries:
       Occupied  (A) (A) (A) (A) (A) (A) (A) (A) (A) (A) (A) (A)
                 (A) (A) (A) (A)
       Virtual   (A) (A) (A) (A) (A) (A) (A) (A) (A) (A) (A) (A)
                 (A) (A) (A) (A) (A) (A) (A) (A) (A) (A) (A) (A)
                 (A) (A) (A) (A) (A) (A) (A) (A) (A) (A) (A) (A)
                 (A) (A) (A) (A) (A) (A) (A) (A) (A) (A) (A) (A)
                 (A) (A) (A) (A) (A) (A) (A) (A)
 The electronic state is 1-A.
 Alpha  occ. eigenvalues --  -19.13378 -10.27764 -10.19086 -10.19047  -1.03471
 Alpha  occ. eigenvalues --   -0.76525  -0.71019  -0.53050  -0.45584  -0.45557
 Alpha  occ. eigenvalues --   -0.44897  -0.40655  -0.39362  -0.37807  -0.34239
 Alpha  occ. eigenvalues --   -0.24352
 Alpha virt. eigenvalues --   -0.01195   0.09284   0.13870   0.14652   0.15365
 Alpha virt. eigenvalues --    0.15970   0.19185   0.20509   0.29031   0.31865
 Alpha virt. eigenvalues --    0.50495   0.52806   0.56898   0.59016   0.62263
 Alpha virt. eigenvalues --    0.66494   0.67876   0.69550   0.73239   0.81815
 Alpha virt. eigenvalues --    0.84445   0.86870   0.87704   0.91322   0.92613
 Alpha virt. eigenvalues --    0.93658   0.96047   1.02336   1.10280   1.17944
 Alpha virt. eigenvalues --    1.37535   1.37938   1.45350   1.55199   1.76290
 Alpha virt. eigenvalues --    1.78621   1.79321   1.80200   1.91322   1.91578
 Alpha virt. eigenvalues --    2.00322   2.11383   2.15351   2.22247   2.22478
 Alpha virt. eigenvalues --    2.35756   2.36317   2.47144   2.61401   2.68380
 Alpha virt. eigenvalues --    2.95882   2.97583   3.93818   4.07890   4.25764
 Alpha virt. eigenvalues --    4.47646
          Condensed to atoms (all electrons):
               1          2          3          4          5          6
     1  C    5.367797   0.339201   0.358824   0.358822   0.308693  -0.085578
     2  H    0.339201   0.573353  -0.026401  -0.026398  -0.019443   0.003644
     3  H    0.358824  -0.026401   0.516156  -0.018669  -0.017638  -0.000351
     4  H    0.358822  -0.026398  -0.018669   0.516138  -0.017640  -0.000342
     5  C    0.308693  -0.019443  -0.017638  -0.017640   4.433810   0.593528
     6  O   -0.085578   0.003644  -0.000351  -0.000342   0.593528   7.989298
     7  C   -0.136211   0.005462   0.004127   0.004134   0.331255  -0.078602
     8  H    0.004280  -0.000385   0.000055  -0.000286  -0.020651   0.001414
     9  H    0.004288  -0.000391  -0.000286   0.000055  -0.020665   0.001414
    10  H    0.006544  -0.000063  -0.000179  -0.000179  -0.021565   0.005268
               7          8          9         10
     1  C   -0.136211   0.004280   0.004288   0.006544
     2  H    0.005462  -0.000385  -0.000391  -0.000063
     3  H    0.004127   0.000055  -0.000286  -0.000179
     4  H    0.004134  -0.000286   0.000055  -0.000179
     5  C    0.331255  -0.020651  -0.020665  -0.021565
     6  O   -0.078602   0.001414   0.001414   0.005268
     7  C    5.349965   0.349523   0.349534   0.351169
     8  H    0.349523   0.546780  -0.027238  -0.022012
     9  H    0.349534  -0.027238   0.546784  -0.022013
    10  H    0.351169  -0.022012  -0.022013   0.523822
 Mulliken charges:
               1
     1  C   -0.526660
     2  H    0.151421
     3  H    0.184362
     4  H    0.184366
     5  C    0.450315
     6  O   -0.429694
     7  C   -0.530357
     8  H    0.168522
     9  H    0.168518
    10  H    0.179207
 Sum of Mulliken charges =   0.00000
 Mulliken charges with hydrogens summed into heavy atoms:
               1
     1  C   -0.006511
     5  C    0.450315
     6  O   -0.429694
     7  C   -0.014110
 Electronic spatial extent (au):  <R**2>=            293.9709
 Charge=              0.0000 electrons
 Dipole moment (field-independent basis, Debye):
    X=             -0.0438    Y=             -2.7378    Z=             -0.0002  Tot=              2.7382
 Quadrupole moment (field-independent basis, Debye-Ang):
   XX=            -23.2027   YY=            -28.4193   ZZ=            -23.7923
   XY=             -0.0608   XZ=              0.0004   YZ=              0.0002
 Traceless Quadrupole moment (field-independent basis, Debye-Ang):
   XX=              1.9354   YY=             -3.2812   ZZ=              1.3458
   XY=             -0.0608   XZ=              0.0004   YZ=              0.0002
 Octapole moment (field-independent basis, Debye-Ang**2):
  XXX=             -0.5310  YYY=             -1.9498  ZZZ=             -0.0019  XYY=              0.6873
  XXY=              2.1062  XXZ=              0.0001  XZZ=             -0.8275  YZZ=              1.3433
  YYZ=              0.0008  XYZ=             -0.0012
 Hexadecapole moment (field-independent basis, Debye-Ang**3):
 XXXX=           -197.2965 YYYY=           -144.9562 ZZZZ=            -34.8720 XXXY=              1.2766
 XXXZ=             -0.0026 YYYX=             -0.3612 YYYZ=             -0.0023 ZZZX=              0.0046
 ZZZY=              0.0015 XXYY=            -58.2953 XXZZ=            -37.0988 YYZZ=            -28.1394
 XXYZ=              0.0026 YYXZ=             -0.0008 ZZXY=             -1.2831
 N-N= 1.189185525389D+02 E-N=-6.878324374488D+02  KE= 1.913462759107D+02
 Calculating spin-rotation constants.
 Leave Link  601 at Wed May 27 10:20:30 2020, MaxMem=   402653184 cpu:               1.8 elap:               1.3
 (Enter /n/sw/g16_nehalem/g16/l9999.exe)
 1\1\GINC-ENJ03\SP\RB3LYP\6-31G(d)\C3H6O1\EKWAN\27-May-2020\0\\#p b3lyp
  6-31g* NMR geom=allcheck guess=read\\Title Card Required\\0,1\C,0,-4.
 312883454,0.078538997,0.0375559515\H,0,-3.9668042567,-0.9585293495,0.0
 06401157\H,0,-3.9689497618,0.5986995796,-0.8632866238\H,0,-5.408220359
 6,0.0920311694,0.0173140732\C,0,-3.8272506351,0.8381946304,1.268295008
 8\O,0,-4.1319661585,2.0020021102,1.4420569363\C,0,-2.956325232,0.07837
 64713,2.2516096614\H,0,-3.4913464104,-0.8019961933,2.631097647\H,0,-2.
 0536047217,-0.2943007748,1.7501021756\H,0,-2.6750064428,0.7262421888,3
 .0840958246\\Version=ES64L-G16RevA.03\State=1-A\HF=-193.1546619\RMSD=1
 .278e-09\Dipole=0.2489173,-1.0310535,-0.1884578\Quadrupole=0.9355487,-
 2.151755,1.2162063,0.7628627,0.3339954,-0.5724355\PG=C01 [X(C3H6O1)]\\
 @


 WHERE THERE IS MUCH DESIRE TO LEARN, THERE OF NECESSITY WILL BE
 MUCH ARGUING, MUCH WRITING, MANY OPINIONS; FOR OPINION IN GOOD MEN
 IS BUT KNOWLEDGE IN THE MAKING. -- JOHN MILTON.
 Job cpu time:       0 days  0 hours  0 minutes 13.4 seconds.
 Elapsed time:       0 days  0 hours  0 minutes  4.7 seconds.
 File lengths (MBytes):  RWF=      6 Int=      0 D2E=      0 Chk=      2 Scr=      1
 Normal termination of Gaussian 16 at Wed May 27 10:20:30 2020.
