 Entering Gaussian System, Link 0=g16
 Input=acetaldehyde.gjf
 Output=acetaldehyde.out
 Initial command:
 /home/cwagen/sw/g16/g16/l1.exe "/scratch/users/cwagen/cwagen_acetaldehyde/Gau-2217.inp" -scrdir="/scratch/users/cwagen/cwagen_acetaldehyde/"
 Entering Link 1 = /home/cwagen/sw/g16/g16/l1.exe PID=      2218.
  
 Copyright (c) 1988,1990,1992,1993,1995,1998,2003,2009,2016,
            Gaussian, Inc.  All Rights Reserved.
  
 This is part of the Gaussian(R) 16 program.  It is based on
 the Gaussian(R) 09 system (copyright 2009, Gaussian, Inc.),
 the Gaussian(R) 03 system (copyright 2003, Gaussian, Inc.),
 the Gaussian(R) 98 system (copyright 1998, Gaussian, Inc.),
 the Gaussian(R) 94 system (copyright 1995, Gaussian, Inc.),
 the Gaussian 92(TM) system (copyright 1992, Gaussian, Inc.),
 the Gaussian 90(TM) system (copyright 1990, Gaussian, Inc.),
 the Gaussian 88(TM) system (copyright 1988, Gaussian, Inc.),
 the Gaussian 86(TM) system (copyright 1986, Carnegie Mellon
 University), and the Gaussian 82(TM) system (copyright 1983,
 Carnegie Mellon University). Gaussian is a federally registered
 trademark of Gaussian, Inc.
  
 This software contains proprietary and confidential information,
 including trade secrets, belonging to Gaussian, Inc.
  
 This software is provided under written license and may be
 used, copied, transmitted, or stored only in accord with that
 written license.
  
 The following legend is applicable only to US Government
 contracts under FAR:
  
                    RESTRICTED RIGHTS LEGEND
  
 Use, reproduction and disclosure by the US Government is
 subject to restrictions as set forth in subparagraphs (a)
 and (c) of the Commercial Computer Software - Restricted
 Rights clause in FAR 52.227-19.
  
 Gaussian, Inc.
 340 Quinnipiac St., Bldg. 40, Wallingford CT 06492
  
  
 ---------------------------------------------------------------
 Warning -- This program may not be used in any manner that
 competes with the business of Gaussian, Inc. or will provide
 assistance to any competitor of Gaussian, Inc.  The licensee
 of this program is prohibited from giving any competitor of
 Gaussian, Inc. access to this program.  By using this program,
 the user acknowledges that Gaussian, Inc. is engaged in the
 business of creating and licensing software in the field of
 computational chemistry and represents and warrants to the
 licensee that it is not a competitor of Gaussian, Inc. and that
 it will not use this program in any manner prohibited above.
 ---------------------------------------------------------------
  

 Cite this work as:
 Gaussian 16, Revision A.03,
 M. J. Frisch, G. W. Trucks, H. B. Schlegel, G. E. Scuseria, 
 M. A. Robb, J. R. Cheeseman, G. Scalmani, V. Barone, 
 G. A. Petersson, H. Nakatsuji, X. Li, M. Caricato, A. V. Marenich, 
 J. Bloino, B. G. Janesko, R. Gomperts, B. Mennucci, H. P. Hratchian, 
 J. V. Ortiz, A. F. Izmaylov, J. L. Sonnenberg, D. Williams-Young, 
 F. Ding, F. Lipparini, F. Egidi, J. Goings, B. Peng, A. Petrone, 
 T. Henderson, D. Ranasinghe, V. G. Zakrzewski, J. Gao, N. Rega, 
 G. Zheng, W. Liang, M. Hada, M. Ehara, K. Toyota, R. Fukuda, 
 J. Hasegawa, M. Ishida, T. Nakajima, Y. Honda, O. Kitao, H. Nakai, 
 T. Vreven, K. Throssell, J. A. Montgomery, Jr., J. E. Peralta, 
 F. Ogliaro, M. J. Bearpark, J. J. Heyd, E. N. Brothers, K. N. Kudin, 
 V. N. Staroverov, T. A. Keith, R. Kobayashi, J. Normand, 
 K. Raghavachari, A. P. Rendell, J. C. Burant, S. S. Iyengar, 
 J. Tomasi, M. Cossi, J. M. Millam, M. Klene, C. Adamo, R. Cammi, 
 J. W. Ochterski, R. L. Martin, K. Morokuma, O. Farkas, 
 J. B. Foresman, and D. J. Fox, Gaussian, Inc., Wallingford CT, 2016.
 
 ******************************************
 Gaussian 16:  AS64L-G16RevA.03 25-Dec-2016
                 4-Aug-2019 
 ******************************************
 %nprocshared=16
 Will use up to   16 processors via shared memory.
 %mem=32GB
 ----------------------------------------------------------
 #p opt freq=noraman b3lyp/genecp empiricaldispersion=gd3bj
 ----------------------------------------------------------
 1/18=20,19=15,26=3,38=1/1,3;
 2/9=110,12=2,17=6,18=5,40=1/2;
 3/5=7,11=2,16=1,17=8,25=1,30=1,71=1,74=-5,124=41/1,2,3;
 4//1;
 5/5=2,38=5/2;
 6/7=2,8=2,9=2,10=2,28=1/1;
 7//1,2,3,16;
 1/18=20,19=15,26=3/3(2);
 2/9=110/2;
 99//99;
 2/9=110/2;
 3/5=7,6=1,11=2,16=1,17=8,25=1,30=1,71=1,74=-5,82=7,124=41/1,2,3;
 4/5=5,16=3,69=1/1;
 5/5=2,38=5/2;
 7//1,2,3,16;
 1/18=20,19=15,26=3/3(-5);
 2/9=110/2;
 6/7=2,8=2,9=2,10=2,19=2,28=1/1;
 99/9=1/99;
 Leave Link    1 at Sun Aug  4 14:31:44 2019, MaxMem=  4294967296 cpu:               2.1 elap:               0.2
 (Enter /home/cwagen/sw/g16/g16/l101.exe)
 -------------------
 Title Card Required
 -------------------
 Symbolic Z-matrix:
 Charge =  0 Multiplicity = 1
 C                    -4.05759   0.84642   0. 
 C                    -3.49784  -0.55291  -0.00007 
 H                    -3.68352   1.39914  -0.90237 
 H                    -2.38157  -0.52631  -0.00013 
 H                    -3.83752  -1.11265   0.90481 
 H                    -3.8376   -1.11259  -0.90496 
 O                    -5.48759   0.84642   0. 
 
 ITRead=  0  0  0  0  0  0  0
 MicOpt= -1 -1 -1 -1 -1 -1 -1
 NAtoms=      7 NQM=        7 NQMF=       0 NMMI=      0 NMMIF=      0
                NMic=       0 NMicF=      0.
                    Isotopes and Nuclear Properties:
 (Nuclear quadrupole moments (NQMom) in fm**2, nuclear magnetic moments (NMagM)
  in nuclear magnetons)

  Atom         1           2           3           4           5           6           7
 IAtWgt=          12          12           1           1           1           1          16
 AtmWgt=  12.0000000  12.0000000   1.0078250   1.0078250   1.0078250   1.0078250  15.9949146
 NucSpn=           0           0           1           1           1           1           0
 AtZEff=   0.0000000   0.0000000   0.0000000   0.0000000   0.0000000   0.0000000   0.0000000
 NQMom=    0.0000000   0.0000000   0.0000000   0.0000000   0.0000000   0.0000000   0.0000000
 NMagM=    0.0000000   0.0000000   2.7928460   2.7928460   2.7928460   2.7928460   0.0000000
 AtZNuc=   6.0000000   6.0000000   1.0000000   1.0000000   1.0000000   1.0000000   8.0000000
 Leave Link  101 at Sun Aug  4 14:31:45 2019, MaxMem=  4294967296 cpu:               7.7 elap:               0.6
 (Enter /home/cwagen/sw/g16/g16/l103.exe)

 GradGradGradGradGradGradGradGradGradGradGradGradGradGradGradGradGradGrad
 Berny optimization.
 Initialization pass.
                           ----------------------------
                           !    Initial Parameters    !
                           ! (Angstroms and Degrees)  !
 --------------------------                            --------------------------
 ! Name  Definition              Value          Derivative Info.                !
 --------------------------------------------------------------------------------
 ! R1    R(1,2)                  1.5071         estimate D2E/DX2                !
 ! R2    R(1,3)                  1.1224         estimate D2E/DX2                !
 ! R3    R(1,7)                  1.43           estimate D2E/DX2                !
 ! R4    R(2,4)                  1.1166         estimate D2E/DX2                !
 ! R5    R(2,5)                  1.1169         estimate D2E/DX2                !
 ! R6    R(2,6)                  1.1169         estimate D2E/DX2                !
 ! A1    A(2,1,3)              109.4761         estimate D2E/DX2                !
 ! A2    A(2,1,7)              111.802          estimate D2E/DX2                !
 ! A3    A(3,1,7)              109.4684         estimate D2E/DX2                !
 ! A4    A(1,2,4)              110.4371         estimate D2E/DX2                !
 ! A5    A(1,2,5)              110.6289         estimate D2E/DX2                !
 ! A6    A(1,2,6)              110.629          estimate D2E/DX2                !
 ! A7    A(4,2,5)              108.422          estimate D2E/DX2                !
 ! A8    A(4,2,6)              108.421          estimate D2E/DX2                !
 ! A9    A(5,2,6)              108.224          estimate D2E/DX2                !
 ! D1    D(3,1,2,4)             58.516          estimate D2E/DX2                !
 ! D2    D(3,1,2,5)            178.5573         estimate D2E/DX2                !
 ! D3    D(3,1,2,6)            -61.5241         estimate D2E/DX2                !
 ! D4    D(7,1,2,4)            179.9967         estimate D2E/DX2                !
 ! D5    D(7,1,2,5)            -59.9619         estimate D2E/DX2                !
 ! D6    D(7,1,2,6)             59.9566         estimate D2E/DX2                !
 --------------------------------------------------------------------------------
 Trust Radius=3.00D-01 FncErr=1.00D-07 GrdErr=1.00D-06 EigMax=2.50D+02 EigMin=1.00D-04
 Number of steps in this run=     31 maximum allowed number of steps=    100.
 GradGradGradGradGradGradGradGradGradGradGradGradGradGradGradGradGradGrad

 Leave Link  103 at Sun Aug  4 14:31:45 2019, MaxMem=  4294967296 cpu:               1.0 elap:               0.1
 (Enter /home/cwagen/sw/g16/g16/l202.exe)
                          Input orientation:                          
 ---------------------------------------------------------------------
 Center     Atomic      Atomic             Coordinates (Angstroms)
 Number     Number       Type             X           Y           Z
 ---------------------------------------------------------------------
      1          6           0       -4.057592    0.846422    0.000000
      2          6           0       -3.497845   -0.552906   -0.000072
      3          1           0       -3.683525    1.399137   -0.902368
      4          1           0       -2.381573   -0.526310   -0.000130
      5          1           0       -3.837523   -1.112647    0.904809
      6          1           0       -3.837600   -1.112587   -0.904963
      7          8           0       -5.487592    0.846422    0.000000
 ---------------------------------------------------------------------
                    Distance matrix (angstroms):
                    1          2          3          4          5
     1  C    0.000000
     2  C    1.507128   0.000000
     3  H    1.122358   2.158492   0.000000
     4  H    2.166433   1.116589   2.493283   0.000000
     5  H    2.169115   1.116916   3.098171   1.811766   0.000000
     6  H    2.169118   1.116917   2.516447   1.811756   1.809772
     7  O    1.430000   2.432532   2.091511   3.395843   2.716497
                    6          7
     6  H    0.000000
     7  O    2.716459   0.000000
 Stoichiometry    C2H4O
 Framework group  C1[X(C2H4O)]
 Deg. of freedom    15
 Full point group                 C1      NOp   1
 Largest Abelian subgroup         C1      NOp   1
 Largest concise Abelian subgroup C1      NOp   1
                         Standard orientation:                         
 ---------------------------------------------------------------------
 Center     Atomic      Atomic             Coordinates (Angstroms)
 Number     Number       Type             X           Y           Z
 ---------------------------------------------------------------------
      1          6           0        0.150601    0.543963   -0.191317
      2          6           0       -1.148688   -0.189460    0.021696
      3          1           0        0.199309    1.427259    0.499410
      4          1           0       -2.014973    0.490854   -0.161315
      5          1           0       -1.228904   -1.058439   -0.675399
      6          1           0       -1.216645   -0.573750    1.068218
      7          8           0        1.281216   -0.301617    0.035851
 ---------------------------------------------------------------------
 Rotational constants (GHZ):          43.9749545           9.8311962           8.6578794
 Leave Link  202 at Sun Aug  4 14:31:45 2019, MaxMem=  4294967296 cpu:               1.9 elap:               0.2
 (Enter /home/cwagen/sw/g16/g16/l301.exe)
 General basis read from cards:  (5D, 7F)
 Centers:       1      2      3      4      5      6      7
 6-31G(d)
 ****
 ======================================================================================================
                                       Pseudopotential Parameters
 ======================================================================================================
  Center     Atomic      Valence      Angular      Power
  Number     Number     Electrons     Momentum     of R      Exponent        Coefficient   SO-Coeffient
 ======================================================================================================
    1          6
                                   No pseudopotential on this center.
    2          6
                                   No pseudopotential on this center.
    3          1
                                   No pseudopotential on this center.
    4          1
                                   No pseudopotential on this center.
    5          1
                                   No pseudopotential on this center.
    6          1
                                   No pseudopotential on this center.
    7          8
                                   No pseudopotential on this center.
 ======================================================================================================
 Ernie: Thresh=  0.10000D-02 Tol=  0.10000D-05 Strict=F.
 There are    53 symmetry adapted cartesian basis functions of A   symmetry.
 There are    50 symmetry adapted basis functions of A   symmetry.
    50 basis functions,   100 primitive gaussians,    53 cartesian basis functions
    12 alpha electrons       12 beta electrons
       nuclear repulsion energy        65.9241758567 Hartrees.
 IExCor=  402 DFT=T Ex+Corr=B3LYP ExCW=0 ScaHFX=  0.200000
 ScaDFX=  0.800000  0.720000  1.000000  0.810000 ScalE2=  1.000000  1.000000
 IRadAn=      5 IRanWt=     -1 IRanGd=            0 ICorTp=0 IEmpDi=141
 NAtoms=    7 NActive=    7 NUniq=    7 SFac= 1.00D+00 NAtFMM=   60 NAOKFM=F Big=F
 Integral buffers will be    131072 words long.
 Raffenetti 2 integral format.
 Two-electron integral symmetry is turned on.
 R6Disp:  Grimme-D3(BJ) Dispersion energy=       -0.0053794972 Hartrees.
 Nuclear repulsion after empirical dispersion term =       65.9187963595 Hartrees.
 Leave Link  301 at Sun Aug  4 14:31:45 2019, MaxMem=  4294967296 cpu:               2.2 elap:               0.2
 (Enter /home/cwagen/sw/g16/g16/l302.exe)
 NPDir=0 NMtPBC=     1 NCelOv=     1 NCel=       1 NClECP=     1 NCelD=      1
         NCelK=      1 NCelE2=     1 NClLst=     1 CellRange=     0.0.
 One-electron integrals computed using PRISM.
 One-electron integral symmetry used in STVInt
   1 Symmetry operations used in ECPInt.
 ECPInt:  NShTT=     210 NPrTT=    1291 LenC2=     211 LenP2D=    1079.
 LDataN:  DoStor=T MaxTD1= 4 Len=   56
 NBasis=    50 RedAO= T EigKep=  8.16D-03  NBF=    50
 NBsUse=    50 1.00D-06 EigRej= -1.00D+00 NBFU=    50
 Precomputing XC quadrature grid using
 IXCGrd= 4 IRadAn=           5 IRanWt=          -1 IRanGd=           0 AccXCQ= 0.00D+00.
 Generated NRdTot=       0 NPtTot=           0 NUsed=           0 NTot=          32
 NSgBfM=    53    53    53    53    53 MxSgAt=     7 MxSgA2=     7.
 Leave Link  302 at Sun Aug  4 14:31:47 2019, MaxMem=  4294967296 cpu:              17.7 elap:               1.4
 (Enter /home/cwagen/sw/g16/g16/l303.exe)
 DipDrv:  MaxL=1.
 Leave Link  303 at Sun Aug  4 14:31:47 2019, MaxMem=  4294967296 cpu:               6.9 elap:               0.6
 (Enter /home/cwagen/sw/g16/g16/l401.exe)
 ExpMin= 1.61D-01 ExpMax= 5.48D+03 ExpMxC= 8.25D+02 IAcc=3 IRadAn=         5 AccDes= 0.00D+00
 Harris functional with IExCor=  402 and IRadAn=       5 diagonalized for initial guess.
 HarFok:  IExCor=  402 AccDes= 0.00D+00 IRadAn=         5 IDoV= 1 UseB2=F ITyADJ=14
 ICtDFT=  3500011 ScaDFX=  1.000000  1.000000  1.000000  1.000000
 FoFCou: FMM=F IPFlag=           0 FMFlag=      100000 FMFlg1=           0
         NFxFlg=           0 DoJE=T BraDBF=F KetDBF=T FulRan=T
         wScrn=  0.000000 ICntrl=       500 IOpCl=  0 I1Cent=   200000004 NGrid=           0
         NMat0=    1 NMatS0=      1 NMatT0=    0 NMatD0=    1 NMtDS0=    0 NMtDT0=    0
 Petite list used in FoFCou.
 Harris En= -153.772883913114    
 JPrj=0 DoOrth=F DoCkMO=F.
 Leave Link  401 at Sun Aug  4 14:31:49 2019, MaxMem=  4294967296 cpu:              24.9 elap:               2.0
 (Enter /home/cwagen/sw/g16/g16/l502.exe)
 Keep R1 ints in memory in canonical form, NReq=14821905.
 FoFCou: FMM=F IPFlag=           0 FMFlag=           0 FMFlg1=           0
         NFxFlg=           0 DoJE=F BraDBF=F KetDBF=F FulRan=T
         wScrn=  0.000000 ICntrl=       600 IOpCl=  0 I1Cent=           0 NGrid=           0
         NMat0=    1 NMatS0=   1275 NMatT0=    0 NMatD0=    1 NMtDS0=    0 NMtDT0=    0
 Symmetry not used in FoFCou.
 Two-electron integral symmetry not used.
 Closed shell SCF:
 Using DIIS extrapolation, IDIIS=  1040.
 NGot=  4294967296 LenX=  4294146603 LenY=  4294143353
 Requested convergence on RMS density matrix=1.00D-08 within 128 cycles.
 Requested convergence on MAX density matrix=1.00D-06.
 Requested convergence on             energy=1.00D-06.
 No special actions if energy rises.
 Integral accuracy reduced to 1.0D-05 until final iterations.

 Cycle   1  Pass 0  IDiag  1:
 E= -153.619280403939    
 DIIS: error= 4.08D-02 at cycle   1 NSaved=   1.
 NSaved= 1 IEnMin= 1 EnMin= -153.619280403939     IErMin= 1 ErrMin= 4.08D-02
 ErrMax= 4.08D-02  0.00D+00 EMaxC= 1.00D-01 BMatC= 1.29D-01 BMatP= 1.29D-01
 IDIUse=3 WtCom= 5.92D-01 WtEn= 4.08D-01
 Coeff-Com:  0.100D+01
 Coeff-En:   0.100D+01
 Coeff:      0.100D+01
 Gap=    -0.018 Goal=   None    Shift=    0.000
 GapD=   -0.018 DampG=0.250 DampE=0.500 DampFc=0.2500 IDamp=-1.
 Damping current iteration by 2.50D-01
 RMSDP=2.06D-02 MaxDP=2.60D-01              OVMax= 4.24D-01

 Cycle   2  Pass 0  IDiag  1:
 E= -153.655877941961     Delta-E=       -0.036597538022 Rises=F Damp=T
 DIIS: error= 2.14D-02 at cycle   2 NSaved=   2.
 NSaved= 2 IEnMin= 2 EnMin= -153.655877941961     IErMin= 2 ErrMin= 2.14D-02
 ErrMax= 2.14D-02  0.00D+00 EMaxC= 1.00D-01 BMatC= 1.64D-02 BMatP= 1.29D-01
 IDIUse=3 WtCom= 7.86D-01 WtEn= 2.14D-01
 Coeff-Com: -0.927D-01 0.109D+01
 Coeff-En:   0.215D+00 0.785D+00
 Coeff:     -0.269D-01 0.103D+01
 Gap=     0.104 Goal=   None    Shift=    0.000
 RMSDP=5.15D-03 MaxDP=6.70D-02 DE=-3.66D-02 OVMax= 4.59D-01

 Cycle   3  Pass 0  IDiag  1:
 E= -153.716657466682     Delta-E=       -0.060779524721 Rises=F Damp=F
 DIIS: error= 2.35D-02 at cycle   3 NSaved=   3.
 NSaved= 3 IEnMin= 3 EnMin= -153.716657466682     IErMin= 2 ErrMin= 2.14D-02
 ErrMax= 2.35D-02  0.00D+00 EMaxC= 1.00D-01 BMatC= 2.85D-02 BMatP= 1.64D-02
 IDIUse=2 WtCom= 0.00D+00 WtEn= 1.00D+00
 Coeff-En:   0.000D+00 0.000D+00 0.100D+01
 Coeff:      0.000D+00 0.000D+00 0.100D+01
 Gap=     0.100 Goal=   None    Shift=    0.000
 RMSDP=8.73D-03 MaxDP=1.28D-01 DE=-6.08D-02 OVMax= 2.74D-01

 Cycle   4  Pass 0  IDiag  1:
 E= -153.552519772537     Delta-E=        0.164137694145 Rises=F Damp=F
 DIIS: error= 6.17D-02 at cycle   4 NSaved=   4.
 NSaved= 4 IEnMin= 3 EnMin= -153.716657466682     IErMin= 2 ErrMin= 2.14D-02
 ErrMax= 6.17D-02  0.00D+00 EMaxC= 1.00D-01 BMatC= 2.12D-01 BMatP= 1.64D-02
 IDIUse=2 WtCom= 0.00D+00 WtEn= 1.00D+00
 Coeff-En:   0.000D+00 0.000D+00 0.817D+00 0.183D+00
 Coeff:      0.000D+00 0.000D+00 0.817D+00 0.183D+00
 Gap=     0.131 Goal=   None    Shift=    0.000
 RMSDP=5.31D-03 MaxDP=8.76D-02 DE= 1.64D-01 OVMax= 1.91D-01

 Cycle   5  Pass 0  IDiag  1:
 E= -153.735001317932     Delta-E=       -0.182481545394 Rises=F Damp=F
 DIIS: error= 1.59D-02 at cycle   5 NSaved=   5.
 NSaved= 5 IEnMin= 5 EnMin= -153.735001317932     IErMin= 5 ErrMin= 1.59D-02
 ErrMax= 1.59D-02  0.00D+00 EMaxC= 1.00D-01 BMatC= 1.13D-02 BMatP= 1.64D-02
 IDIUse=3 WtCom= 8.41D-01 WtEn= 1.59D-01
 Coeff-Com: -0.960D-01 0.176D+00 0.347D+00-0.585D-01 0.632D+00
 Coeff-En:   0.000D+00 0.000D+00 0.308D+00 0.000D+00 0.692D+00
 Coeff:     -0.808D-01 0.148D+00 0.341D+00-0.493D-01 0.641D+00
 Gap=     0.142 Goal=   None    Shift=    0.000
 RMSDP=1.71D-03 MaxDP=2.52D-02 DE=-1.82D-01 OVMax= 2.96D-02

 Cycle   6  Pass 0  IDiag  1:
 E= -153.746225311261     Delta-E=       -0.011223993330 Rises=F Damp=F
 DIIS: error= 7.87D-04 at cycle   6 NSaved=   6.
 NSaved= 6 IEnMin= 6 EnMin= -153.746225311261     IErMin= 6 ErrMin= 7.87D-04
 ErrMax= 7.87D-04  0.00D+00 EMaxC= 1.00D-01 BMatC= 3.75D-05 BMatP= 1.13D-02
 IDIUse=3 WtCom= 9.92D-01 WtEn= 7.87D-03
 Coeff-Com: -0.225D-01 0.310D-01 0.880D-01-0.226D-01 0.223D+00 0.703D+00
 Coeff-En:   0.000D+00 0.000D+00 0.000D+00 0.000D+00 0.000D+00 0.100D+01
 Coeff:     -0.223D-01 0.307D-01 0.873D-01-0.224D-01 0.221D+00 0.705D+00
 Gap=     0.143 Goal=   None    Shift=    0.000
 RMSDP=1.14D-04 MaxDP=1.51D-03 DE=-1.12D-02 OVMax= 1.76D-03

 Cycle   7  Pass 0  IDiag  1:
 E= -153.746260815813     Delta-E=       -0.000035504552 Rises=F Damp=F
 DIIS: error= 2.08D-04 at cycle   7 NSaved=   7.
 NSaved= 7 IEnMin= 7 EnMin= -153.746260815813     IErMin= 7 ErrMin= 2.08D-04
 ErrMax= 2.08D-04  0.00D+00 EMaxC= 1.00D-01 BMatC= 3.28D-06 BMatP= 3.75D-05
 IDIUse=3 WtCom= 9.98D-01 WtEn= 2.08D-03
 Coeff-Com:  0.169D-02-0.503D-02 0.488D-02-0.394D-02 0.310D-01 0.305D+00
 Coeff-Com:  0.666D+00
 Coeff-En:   0.000D+00 0.000D+00 0.000D+00 0.000D+00 0.000D+00 0.000D+00
 Coeff-En:   0.100D+01
 Coeff:      0.168D-02-0.502D-02 0.487D-02-0.394D-02 0.309D-01 0.305D+00
 Coeff:      0.667D+00
 Gap=     0.143 Goal=   None    Shift=    0.000
 RMSDP=3.62D-05 MaxDP=3.09D-04 DE=-3.55D-05 OVMax= 5.38D-04

 Cycle   8  Pass 0  IDiag  1:
 E= -153.746263670571     Delta-E=       -0.000002854758 Rises=F Damp=F
 DIIS: error= 6.72D-05 at cycle   8 NSaved=   8.
 NSaved= 8 IEnMin= 8 EnMin= -153.746263670571     IErMin= 8 ErrMin= 6.72D-05
 ErrMax= 6.72D-05  0.00D+00 EMaxC= 1.00D-01 BMatC= 2.37D-07 BMatP= 3.28D-06
 IDIUse=1 WtCom= 1.00D+00 WtEn= 0.00D+00
 Coeff-Com:  0.114D-02-0.149D-02-0.416D-03-0.369D-03-0.117D-02 0.380D-02
 Coeff-Com:  0.300D-01 0.969D+00
 Coeff:      0.114D-02-0.149D-02-0.416D-03-0.369D-03-0.117D-02 0.380D-02
 Coeff:      0.300D-01 0.969D+00
 Gap=     0.144 Goal=   None    Shift=    0.000
 RMSDP=7.34D-06 MaxDP=7.75D-05 DE=-2.85D-06 OVMax= 1.43D-04

 Initial convergence to 1.0D-05 achieved.  Increase integral accuracy.
 Cycle   9  Pass 1  IDiag  1:
 E= -153.746258280301     Delta-E=        0.000005390270 Rises=F Damp=F
 DIIS: error= 1.23D-05 at cycle   1 NSaved=   1.
 NSaved= 1 IEnMin= 1 EnMin= -153.746258280301     IErMin= 1 ErrMin= 1.23D-05
 ErrMax= 1.23D-05  0.00D+00 EMaxC= 1.00D-01 BMatC= 7.83D-09 BMatP= 7.83D-09
 IDIUse=1 WtCom= 1.00D+00 WtEn= 0.00D+00
 Coeff-Com:  0.100D+01
 Coeff:      0.100D+01
 Gap=     0.144 Goal=   None    Shift=    0.000
 RMSDP=7.34D-06 MaxDP=7.75D-05 DE= 5.39D-06 OVMax= 1.87D-04

 Cycle  10  Pass 1  IDiag  1:
 E= -153.746258210732     Delta-E=        0.000000069569 Rises=F Damp=F
 DIIS: error= 4.34D-05 at cycle   2 NSaved=   2.
 NSaved= 2 IEnMin= 1 EnMin= -153.746258280301     IErMin= 1 ErrMin= 1.23D-05
 ErrMax= 4.34D-05  0.00D+00 EMaxC= 1.00D-01 BMatC= 8.87D-08 BMatP= 7.83D-09
 IDIUse=1 WtCom= 1.00D+00 WtEn= 0.00D+00
 Coeff-Com:  0.775D+00 0.225D+00
 Coeff:      0.775D+00 0.225D+00
 Gap=     0.144 Goal=   None    Shift=    0.000
 RMSDP=4.00D-06 MaxDP=7.65D-05 DE= 6.96D-08 OVMax= 1.50D-04

 Cycle  11  Pass 1  IDiag  1:
 E= -153.746258288455     Delta-E=       -0.000000077723 Rises=F Damp=F
 DIIS: error= 9.81D-07 at cycle   3 NSaved=   3.
 NSaved= 3 IEnMin= 3 EnMin= -153.746258288455     IErMin= 3 ErrMin= 9.81D-07
 ErrMax= 9.81D-07  0.00D+00 EMaxC= 1.00D-01 BMatC= 8.14D-11 BMatP= 7.83D-09
 IDIUse=1 WtCom= 1.00D+00 WtEn= 0.00D+00
 Coeff-Com:  0.169D+00 0.609D-01 0.770D+00
 Coeff:      0.169D+00 0.609D-01 0.770D+00
 Gap=     0.144 Goal=   None    Shift=    0.000
 RMSDP=3.81D-07 MaxDP=2.87D-06 DE=-7.77D-08 OVMax= 1.41D-05

 Cycle  12  Pass 1  IDiag  1:
 E= -153.746258288622     Delta-E=       -0.000000000167 Rises=F Damp=F
 DIIS: error= 5.31D-07 at cycle   4 NSaved=   4.
 NSaved= 4 IEnMin= 4 EnMin= -153.746258288622     IErMin= 4 ErrMin= 5.31D-07
 ErrMax= 5.31D-07  0.00D+00 EMaxC= 1.00D-01 BMatC= 1.85D-11 BMatP= 8.14D-11
 IDIUse=1 WtCom= 1.00D+00 WtEn= 0.00D+00
 Coeff-Com: -0.734D-01-0.861D-02 0.162D-01 0.107D+01
 Coeff:     -0.734D-01-0.861D-02 0.162D-01 0.107D+01
 Gap=     0.144 Goal=   None    Shift=    0.000
 RMSDP=2.83D-07 MaxDP=2.57D-06 DE=-1.67D-10 OVMax= 1.16D-05

 Cycle  13  Pass 1  IDiag  1:
 E= -153.746258288682     Delta-E=       -0.000000000060 Rises=F Damp=F
 DIIS: error= 1.81D-07 at cycle   5 NSaved=   5.
 NSaved= 5 IEnMin= 5 EnMin= -153.746258288682     IErMin= 5 ErrMin= 1.81D-07
 ErrMax= 1.81D-07  0.00D+00 EMaxC= 1.00D-01 BMatC= 1.86D-12 BMatP= 1.85D-11
 IDIUse=1 WtCom= 1.00D+00 WtEn= 0.00D+00
 Coeff-Com: -0.457D-01-0.900D-02-0.675D-01 0.415D+00 0.707D+00
 Coeff:     -0.457D-01-0.900D-02-0.675D-01 0.415D+00 0.707D+00
 Gap=     0.144 Goal=   None    Shift=    0.000
 RMSDP=8.58D-08 MaxDP=7.48D-07 DE=-5.95D-11 OVMax= 3.44D-06

 Cycle  14  Pass 1  IDiag  1:
 E= -153.746258288687     Delta-E=       -0.000000000005 Rises=F Damp=F
 DIIS: error= 6.66D-08 at cycle   6 NSaved=   6.
 NSaved= 6 IEnMin= 6 EnMin= -153.746258288687     IErMin= 6 ErrMin= 6.66D-08
 ErrMax= 6.66D-08  0.00D+00 EMaxC= 1.00D-01 BMatC= 3.70D-13 BMatP= 1.86D-12
 IDIUse=1 WtCom= 1.00D+00 WtEn= 0.00D+00
 Coeff-Com:  0.157D-02-0.171D-02-0.235D-01-0.108D+00 0.250D+00 0.881D+00
 Coeff:      0.157D-02-0.171D-02-0.235D-01-0.108D+00 0.250D+00 0.881D+00
 Gap=     0.144 Goal=   None    Shift=    0.000
 RMSDP=4.13D-08 MaxDP=3.81D-07 DE=-5.40D-12 OVMax= 1.70D-06

 Cycle  15  Pass 1  IDiag  1:
 E= -153.746258288688     Delta-E=       -0.000000000001 Rises=F Damp=F
 DIIS: error= 2.10D-08 at cycle   7 NSaved=   7.
 NSaved= 7 IEnMin= 7 EnMin= -153.746258288688     IErMin= 7 ErrMin= 2.10D-08
 ErrMax= 2.10D-08  0.00D+00 EMaxC= 1.00D-01 BMatC= 3.30D-14 BMatP= 3.70D-13
 IDIUse=1 WtCom= 1.00D+00 WtEn= 0.00D+00
 Coeff-Com:  0.422D-02-0.924D-04-0.554D-03-0.627D-01 0.206D-01 0.249D+00
 Coeff-Com:  0.790D+00
 Coeff:      0.422D-02-0.924D-04-0.554D-03-0.627D-01 0.206D-01 0.249D+00
 Coeff:      0.790D+00
 Gap=     0.144 Goal=   None    Shift=    0.000
 RMSDP=6.42D-09 MaxDP=5.80D-08 DE=-1.02D-12 OVMax= 2.38D-07

 SCF Done:  E(RB3LYP) =  -153.746258289     A.U. after   15 cycles
            NFock= 15  Conv=0.64D-08     -V/T= 2.0096
 KE= 1.522852827066D+02 PE=-4.911141607226D+02 EE= 1.191638233678D+02
 Leave Link  502 at Sun Aug  4 14:31:58 2019, MaxMem=  4294967296 cpu:             108.1 elap:               8.4
 (Enter /home/cwagen/sw/g16/g16/l601.exe)
 Copying SCF densities to generalized density rwf, IOpCl= 0 IROHF=0.

 **********************************************************************

            Population analysis using the SCF density.

 **********************************************************************

 Orbital symmetries:
       Occupied  (A) (A) (A) (A) (A) (A) (A) (A) (A) (A) (A) (A)
       Virtual   (A) (A) (A) (A) (A) (A) (A) (A) (A) (A) (A) (A)
                 (A) (A) (A) (A) (A) (A) (A) (A) (A) (A) (A) (A)
                 (A) (A) (A) (A) (A) (A) (A) (A) (A) (A) (A) (A)
                 (A) (A)
 The electronic state is 1-A.
 Alpha  occ. eigenvalues --  -19.15954 -10.29235 -10.20476  -0.95487  -0.75394
 Alpha  occ. eigenvalues --   -0.59005  -0.46147  -0.43904  -0.41046  -0.37650
 Alpha  occ. eigenvalues --   -0.31777  -0.25525
 Alpha virt. eigenvalues --   -0.11170   0.09667   0.12613   0.14135   0.16187
 Alpha virt. eigenvalues --    0.19361   0.22818   0.51239   0.53035   0.54778
 Alpha virt. eigenvalues --    0.57378   0.58706   0.66093   0.77482   0.83792
 Alpha virt. eigenvalues --    0.86172   0.86946   0.92342   0.96238   1.02464
 Alpha virt. eigenvalues --    1.03974   1.25336   1.42319   1.42530   1.51465
 Alpha virt. eigenvalues --    1.75286   1.76766   1.83635   1.86336   1.95262
 Alpha virt. eigenvalues --    2.02695   2.11120   2.16161   2.24359   2.37393
 Alpha virt. eigenvalues --    2.42516   2.61773   2.80090
          Condensed to atoms (all electrons):
               1          2          3          4          5          6
     1  C    4.817842   0.334378   0.351391  -0.023297  -0.024272  -0.023495
     2  C    0.334378   5.215606  -0.086018   0.330078   0.356909   0.378596
     3  H    0.351391  -0.086018   0.602604   0.003480   0.004747   0.000895
     4  H   -0.023297   0.330078   0.003480   0.591497  -0.022219  -0.032299
     5  H   -0.024272   0.356909   0.004747  -0.022219   0.517816  -0.019922
     6  H   -0.023495   0.378596   0.000895  -0.032299  -0.019922   0.501566
     7  O    0.396696  -0.057235  -0.039722   0.003665   0.002771  -0.007668
               7
     1  C    0.396696
     2  C   -0.057235
     3  H   -0.039722
     4  H    0.003665
     5  H    0.002771
     6  H   -0.007668
     7  O    8.098151
 Mulliken charges:
               1
     1  C    0.170758
     2  C   -0.472313
     3  H    0.162623
     4  H    0.149094
     5  H    0.184170
     6  H    0.202326
     7  O   -0.396658
 Sum of Mulliken charges =   0.00000
 Mulliken charges with hydrogens summed into heavy atoms:
               1
     1  C    0.333381
     2  C    0.063277
     7  O   -0.396658
 Electronic spatial extent (au):  <R**2>=            173.3258
 Charge=              0.0000 electrons
 Dipole moment (field-independent basis, Debye):
    X=             -2.6613    Y=              1.0805    Z=              0.2519  Tot=              2.8833
 Quadrupole moment (field-independent basis, Debye-Ang):
   XX=            -21.0800   YY=            -17.6426   ZZ=            -17.5199
   XY=              0.9812   XZ=             -0.2213   YZ=              0.1118
 Traceless Quadrupole moment (field-independent basis, Debye-Ang):
   XX=             -2.3325   YY=              1.1049   ZZ=              1.2276
   XY=              0.9812   XZ=             -0.2213   YZ=              0.1118
 Octapole moment (field-independent basis, Debye-Ang**2):
  XXX=             -0.7735  YYY=             -0.3638  ZZZ=              1.4196  XYY=              0.6409
  XXY=              0.0716  XXZ=              0.2227  XZZ=              1.0004  YZZ=             -0.9010
  YYZ=              0.6545  XYZ=              0.0531
 Hexadecapole moment (field-independent basis, Debye-Ang**3):
 XXXX=           -149.7168 YYYY=            -45.4064 ZZZZ=            -24.5136 XXXY=             -2.5405
 XXXZ=             -0.1343 YYYX=             -0.4046 YYYZ=              1.6543 ZZZX=             -0.6761
 ZZZY=             -0.2576 XXYY=            -31.2833 XXZZ=            -27.5856 YYZZ=            -10.8169
 XXYZ=             -0.5319 YYXZ=              0.7845 ZZXY=              0.4502
 N-N= 6.591879635953D+01 E-N=-4.911141601459D+02  KE= 1.522852827066D+02
 No NMR shielding tensors so no spin-rotation constants.
 Leave Link  601 at Sun Aug  4 14:31:59 2019, MaxMem=  4294967296 cpu:              11.6 elap:               1.0
 (Enter /home/cwagen/sw/g16/g16/l701.exe)
 ... and contract with generalized density number  0.
 Compute integral first derivatives.
 R6Disp: Adding Grimme-D3(BJ) dispersion energy 1st derivatives to the gradient.
   1 Symmetry operations used in ECPInt.
 ECPInt:  NShTT=     210 NPrTT=    1291 LenC2=     211 LenP2D=    1079.
 LDataN:  DoStor=T MaxTD1= 5 Len=  102
 Leave Link  701 at Sun Aug  4 14:32:00 2019, MaxMem=  4294967296 cpu:              12.6 elap:               1.0
 (Enter /home/cwagen/sw/g16/g16/l702.exe)
 L702 exits ... SP integral derivatives will be done elsewhere.
 Leave Link  702 at Sun Aug  4 14:32:00 2019, MaxMem=  4294967296 cpu:               1.2 elap:               0.1
 (Enter /home/cwagen/sw/g16/g16/l703.exe)
 Integral derivatives from FoFJK, PRISM(SPDF).
 Compute integral first derivatives, UseDBF=F ICtDFT=           0.
 Calling FoFJK, ICntrl=      2127 FMM=F ISym2X=0 I1Cent= 0 IOpClX= 0 NMat=1 NMatS=1 NMatT=0.
 FoFJK:  IHMeth= 1 ICntrl=    2127 DoSepK=F KAlg= 0 I1Cent=           0 FoldK=F
 IRaf=         0 NMat=       1 IRICut=       1 DoRegI=T DoRafI=F ISym2E= 0 IDoP0=0 IntGTp=1.
 FoFCou: FMM=F IPFlag=           0 FMFlag=      100000 FMFlg1=         800
         NFxFlg=           0 DoJE=F BraDBF=F KetDBF=F FulRan=T
         wScrn=  0.000000 ICntrl=      2127 IOpCl=  0 I1Cent=           0 NGrid=           0
         NMat0=    1 NMatS0=      1 NMatT0=    0 NMatD0=    1 NMtDS0=    0 NMtDT0=    0
 Symmetry not used in FoFCou.
 Leave Link  703 at Sun Aug  4 14:32:02 2019, MaxMem=  4294967296 cpu:              19.5 elap:               1.6
 (Enter /home/cwagen/sw/g16/g16/l716.exe)
 Dipole        =-1.04702861D+00 4.25098264D-01 9.90870858D-02
 ***** Axes restored to original set *****
 -------------------------------------------------------------------
 Center     Atomic                   Forces (Hartrees/Bohr)
 Number     Number              X              Y              Z
 -------------------------------------------------------------------
      1        6          -0.178533075   -0.044153944   -0.086073106
      2        6           0.023110734   -0.007883761    0.036064912
      3        1           0.006062425    0.021315721    0.030238706
      4        1          -0.011579184   -0.003461661   -0.000454242
      5        1           0.003785364    0.004135395   -0.012463519
      6        1           0.001649622    0.012459798    0.009217027
      7        8           0.155504113    0.017588452    0.023470221
 -------------------------------------------------------------------
 Cartesian Forces:  Max     0.178533075 RMS     0.057797813
 Leave Link  716 at Sun Aug  4 14:32:02 2019, MaxMem=  4294967296 cpu:               1.3 elap:               0.1
 (Enter /home/cwagen/sw/g16/g16/l103.exe)

 GradGradGradGradGradGradGradGradGradGradGradGradGradGradGradGradGradGrad
 Berny optimization.
 FormGI is forming the generalized inverse of G from B-inverse, IUseBI=4.
 Internal  Forces:  Max     0.155503993 RMS     0.038790894
 Search for a local minimum.
 Step number   1 out of a maximum of   31
 All quantities printed in internal units (Hartrees-Bohrs-Radians)
 RMS Force = .38791D-01 SwitMx=.10000D-02 MixMth= 1
 Mixed Optimization -- RFO/linear search
 Second derivative matrix not updated -- first step.
 ITU=  0
     Eigenvalues ---    0.00672   0.04101   0.07262   0.07275   0.16000
     Eigenvalues ---    0.16000   0.16000   0.16000   0.23561   0.31326
     Eigenvalues ---    0.31641   0.31878   0.31879   0.31912   0.40989
 RFO step:  Lambda=-8.81929231D-02 EMin= 6.71654449D-03
 Linear search not attempted -- first point.
 Maximum step size (   0.300) exceeded in Quadratic search.
    -- Step size scaled by   0.697
 Iteration  1 RMS(Cart)=  0.07408382 RMS(Int)=  0.01370053
 Iteration  2 RMS(Cart)=  0.01246372 RMS(Int)=  0.00749254
 Iteration  3 RMS(Cart)=  0.00011150 RMS(Int)=  0.00749178
 Iteration  4 RMS(Cart)=  0.00000235 RMS(Int)=  0.00749178
 Iteration  5 RMS(Cart)=  0.00000005 RMS(Int)=  0.00749178
 ITry= 1 IFail=0 DXMaxC= 1.51D-01 DCOld= 1.00D+10 DXMaxT= 3.00D-01 DXLimC= 3.00D+00 Rises=F
 Variable       Old X    -DE/DX   Delta X   Delta X   Delta X     New X
                                 (Linear)    (Quad)   (Total)
    R1        2.84806   0.00143   0.00000   0.00245   0.00245   2.85051
    R2        2.12095  -0.01179   0.00000  -0.02046  -0.02046   2.10049
    R3        2.70231  -0.15550   0.00000  -0.21747  -0.21747   2.48484
    R4        2.11005  -0.01166   0.00000  -0.01994  -0.01994   2.09011
    R5        2.11066  -0.01332   0.00000  -0.02280  -0.02280   2.08787
    R6        2.11067  -0.01421   0.00000  -0.02433  -0.02433   2.08634
    A1        1.91072   0.04255   0.00000   0.15556   0.13890   2.04961
    A2        1.95131   0.04199   0.00000   0.11201   0.09532   2.04664
    A3        1.91058  -0.01062   0.00000   0.03680   0.01436   1.92494
    A4        1.92749   0.00633   0.00000   0.01909   0.01898   1.94647
    A5        1.93084   0.00491   0.00000   0.01489   0.01475   1.94559
    A6        1.93084  -0.01201   0.00000  -0.03615  -0.03607   1.89477
    A7        1.89232  -0.00191   0.00000  -0.00066  -0.00096   1.89136
    A8        1.89230   0.00115   0.00000   0.00110   0.00121   1.89352
    A9        1.88887   0.00155   0.00000   0.00179   0.00183   1.89070
    D1        1.02130  -0.02341   0.00000  -0.11865  -0.12326   0.89804
    D2        3.11641  -0.01850   0.00000  -0.09741  -0.10172   3.01469
    D3       -1.07380  -0.02118   0.00000  -0.10901  -0.11344  -1.18724
    D4        3.14154   0.02005   0.00000   0.10836   0.11265  -3.02900
    D5       -1.04653   0.02496   0.00000   0.12960   0.13419  -0.91235
    D6        1.04644   0.02228   0.00000   0.11800   0.12247   1.16891
         Item               Value     Threshold  Converged?
 Maximum Force            0.155504     0.000450     NO 
 RMS     Force            0.038791     0.000300     NO 
 Maximum Displacement     0.150600     0.001800     NO 
 RMS     Displacement     0.073424     0.001200     NO 
 Predicted change in Energy=-4.771217D-02
 Lowest energy point so far.  Saving SCF results.
 GradGradGradGradGradGradGradGradGradGradGradGradGradGradGradGradGradGrad

 Leave Link  103 at Sun Aug  4 14:32:06 2019, MaxMem=  4294967296 cpu:              49.9 elap:               3.8
 (Enter /home/cwagen/sw/g16/g16/l202.exe)
                          Input orientation:                          
 ---------------------------------------------------------------------
 Center     Atomic      Atomic             Coordinates (Angstroms)
 Number     Number       Type             X           Y           Z
 ---------------------------------------------------------------------
      1          6           0       -4.103771    0.800887   -0.079694
      2          6           0       -3.496440   -0.577509    0.001087
      3          1           0       -3.732126    1.478229   -0.878809
      4          1           0       -2.391449   -0.533580    0.020760
      5          1           0       -3.839432   -1.118499    0.901299
      6          1           0       -3.808248   -1.151663   -0.888878
      7          8           0       -5.411782    0.889668    0.021511
 ---------------------------------------------------------------------
                    Distance matrix (angstroms):
                    1          2          3          4          5
     1  C    0.000000
     2  C    1.508427   0.000000
     3  H    1.111529   2.248516   0.000000
     4  H    2.173232   1.106039   2.579537   0.000000
     5  H    2.171696   1.104851   3.150126   1.792801   0.000000
     6  H    2.134142   1.104045   2.631013   1.793540   1.790756
     7  O    1.314921   2.412792   1.994548   3.338869   2.697971
                    6          7
     6  H    0.000000
     7  O    2.750848   0.000000
 Stoichiometry    C2H4O
 Framework group  C1[X(C2H4O)]
 Deg. of freedom    15
 Full point group                 C1      NOp   1
 RotChk:  IX=0 Diff= 1.52D-01
 Largest Abelian subgroup         C1      NOp   1
 Largest concise Abelian subgroup C1      NOp   1
                         Standard orientation:                         
 ---------------------------------------------------------------------
 Center     Atomic      Atomic             Coordinates (Angstroms)
 Number     Number       Type             X           Y           Z
 ---------------------------------------------------------------------
      1          6           0        0.198029    0.473284   -0.147713
      2          6           0       -1.163489   -0.154715    0.017325
      3          1           0        0.366661    1.463077    0.329121
      4          1           0       -1.970861    0.547172   -0.263436
      5          1           0       -1.265496   -1.066749   -0.597886
      6          1           0       -1.295437   -0.434298    1.077201
      7          8           0        1.244736   -0.302577    0.029666
 ---------------------------------------------------------------------
 Rotational constants (GHZ):          49.6990364          10.0176374           8.9073896
 Leave Link  202 at Sun Aug  4 14:32:06 2019, MaxMem=  4294967296 cpu:               3.4 elap:               0.3
 (Enter /home/cwagen/sw/g16/g16/l301.exe)
 Basis read from rwf:  (5D, 7F)
 Pseudo-potential data read from rwf file.
 There are    53 symmetry adapted cartesian basis functions of A   symmetry.
 There are    50 symmetry adapted basis functions of A   symmetry.
    50 basis functions,   100 primitive gaussians,    53 cartesian basis functions
    12 alpha electrons       12 beta electrons
       nuclear repulsion energy        67.7318868717 Hartrees.
 IExCor=  402 DFT=T Ex+Corr=B3LYP ExCW=0 ScaHFX=  0.200000
 ScaDFX=  0.800000  0.720000  1.000000  0.810000 ScalE2=  1.000000  1.000000
 IRadAn=      5 IRanWt=     -1 IRanGd=            0 ICorTp=0 IEmpDi=141
 NAtoms=    7 NActive=    7 NUniq=    7 SFac= 1.00D+00 NAtFMM=   60 NAOKFM=F Big=F
 Integral buffers will be    131072 words long.
 Raffenetti 2 integral format.
 Two-electron integral symmetry is turned on.
 R6Disp:  Grimme-D3(BJ) Dispersion energy=       -0.0053692134 Hartrees.
 Nuclear repulsion after empirical dispersion term =       67.7265176583 Hartrees.
 No density basis found on file   724.
 Leave Link  301 at Sun Aug  4 14:32:06 2019, MaxMem=  4294967296 cpu:               1.9 elap:               0.2
 (Enter /home/cwagen/sw/g16/g16/l302.exe)
 NPDir=0 NMtPBC=     1 NCelOv=     1 NCel=       1 NClECP=     1 NCelD=      1
         NCelK=      1 NCelE2=     1 NClLst=     1 CellRange=     0.0.
 One-electron integrals computed using PRISM.
 One-electron integral symmetry used in STVInt
   1 Symmetry operations used in ECPInt.
 ECPInt:  NShTT=     210 NPrTT=    1291 LenC2=     211 LenP2D=    1082.
 LDataN:  DoStor=T MaxTD1= 4 Len=   56
 NBasis=    50 RedAO= T EigKep=  8.46D-03  NBF=    50
 NBsUse=    50 1.00D-06 EigRej= -1.00D+00 NBFU=    50
 Precomputing XC quadrature grid using
 IXCGrd= 4 IRadAn=           5 IRanWt=          -1 IRanGd=           0 AccXCQ= 0.00D+00.
 Generated NRdTot=       0 NPtTot=           0 NUsed=           0 NTot=          32
 NSgBfM=    53    53    53    53    53 MxSgAt=     7 MxSgA2=     7.
 Leave Link  302 at Sun Aug  4 14:32:07 2019, MaxMem=  4294967296 cpu:              16.5 elap:               1.3
 (Enter /home/cwagen/sw/g16/g16/l303.exe)
 DipDrv:  MaxL=1.
 Leave Link  303 at Sun Aug  4 14:32:08 2019, MaxMem=  4294967296 cpu:               5.5 elap:               0.5
 (Enter /home/cwagen/sw/g16/g16/l401.exe)
 Initial guess from the checkpoint file:  "/scratch/users/cwagen/cwagen_acetaldehyde/Gau-2218.chk"
 B after Tr=     0.000000    0.000000    0.000000
         Rot=    0.999438    0.028675    0.002040    0.017229 Ang=   3.84 deg.
 Guess basis will be translated and rotated to current coordinates.
 JPrj=2 DoOrth=T DoCkMO=T.
 Generating alternative initial guess.
 ExpMin= 1.61D-01 ExpMax= 5.48D+03 ExpMxC= 8.25D+02 IAcc=2 IRadAn=         4 AccDes= 0.00D+00
 Harris functional with IExCor=  402 and IRadAn=       4 diagonalized for initial guess.
 HarFok:  IExCor=  402 AccDes= 0.00D+00 IRadAn=         4 IDoV= 1 UseB2=F ITyADJ=14
 ICtDFT=  3500011 ScaDFX=  1.000000  1.000000  1.000000  1.000000
 FoFCou: FMM=F IPFlag=           0 FMFlag=      100000 FMFlg1=           0
         NFxFlg=           0 DoJE=T BraDBF=F KetDBF=T FulRan=T
         wScrn=  0.000000 ICntrl=       500 IOpCl=  0 I1Cent=   200000004 NGrid=           0
         NMat0=    1 NMatS0=      1 NMatT0=    0 NMatD0=    1 NMtDS0=    0 NMtDT0=    0
 Petite list used in FoFCou.
 Harris En= -153.822048653666    
 Leave Link  401 at Sun Aug  4 14:32:11 2019, MaxMem=  4294967296 cpu:              37.9 elap:               3.0
 (Enter /home/cwagen/sw/g16/g16/l502.exe)
 Keep R1 ints in memory in canonical form, NReq=14821905.
 FoFCou: FMM=F IPFlag=           0 FMFlag=           0 FMFlg1=           0
         NFxFlg=           0 DoJE=F BraDBF=F KetDBF=F FulRan=T
         wScrn=  0.000000 ICntrl=       600 IOpCl=  0 I1Cent=           0 NGrid=           0
         NMat0=    1 NMatS0=   1275 NMatT0=    0 NMatD0=    1 NMtDS0=    0 NMtDT0=    0
 Symmetry not used in FoFCou.
 Two-electron integral symmetry not used.
 Closed shell SCF:
 Using DIIS extrapolation, IDIIS=  1040.
 NGot=  4294967296 LenX=  4294146603 LenY=  4294143353
 Requested convergence on RMS density matrix=1.00D-08 within 128 cycles.
 Requested convergence on MAX density matrix=1.00D-06.
 Requested convergence on             energy=1.00D-06.
 No special actions if energy rises.
 Integral accuracy reduced to 1.0D-05 until final iterations.

 Cycle   1  Pass 0  IDiag  1:
 E= -153.785368674278    
 DIIS: error= 6.90D-03 at cycle   1 NSaved=   1.
 NSaved= 1 IEnMin= 1 EnMin= -153.785368674278     IErMin= 1 ErrMin= 6.90D-03
 ErrMax= 6.90D-03  0.00D+00 EMaxC= 1.00D-01 BMatC= 7.21D-03 BMatP= 7.21D-03
 IDIUse=3 WtCom= 9.31D-01 WtEn= 6.90D-02
 Coeff-Com:  0.100D+01
 Coeff-En:   0.100D+01
 Coeff:      0.100D+01
 Gap=     0.633 Goal=   None    Shift=    0.000
 GapD=    0.633 DampG=2.000 DampE=1.000 DampFc=2.0000 IDamp=-1.
 RMSDP=2.86D-03 MaxDP=2.19D-02              OVMax= 4.77D-02

 Cycle   2  Pass 0  IDiag  1:
 E= -153.796014020165     Delta-E=       -0.010645345887 Rises=F Damp=F
 DIIS: error= 3.62D-03 at cycle   2 NSaved=   2.
 NSaved= 2 IEnMin= 2 EnMin= -153.796014020165     IErMin= 2 ErrMin= 3.62D-03
 ErrMax= 3.62D-03  0.00D+00 EMaxC= 1.00D-01 BMatC= 1.45D-03 BMatP= 7.21D-03
 IDIUse=3 WtCom= 9.64D-01 WtEn= 3.62D-02
 Coeff-Com:  0.193D+00 0.807D+00
 Coeff-En:   0.000D+00 0.100D+01
 Coeff:      0.186D+00 0.814D+00
 Gap=     0.172 Goal=   None    Shift=    0.000
 RMSDP=1.54D-03 MaxDP=2.40D-02 DE=-1.06D-02 OVMax= 3.90D-02

 Cycle   3  Pass 0  IDiag  1:
 E= -153.794073776141     Delta-E=        0.001940244025 Rises=F Damp=F
 DIIS: error= 7.44D-03 at cycle   3 NSaved=   3.
 NSaved= 3 IEnMin= 2 EnMin= -153.796014020165     IErMin= 2 ErrMin= 3.62D-03
 ErrMax= 7.44D-03  0.00D+00 EMaxC= 1.00D-01 BMatC= 3.84D-03 BMatP= 1.45D-03
 IDIUse=3 WtCom= 1.04D-01 WtEn= 8.96D-01
 Coeff-Com:  0.969D-02 0.620D+00 0.370D+00
 Coeff-En:   0.000D+00 0.684D+00 0.316D+00
 Coeff:      0.101D-02 0.678D+00 0.321D+00
 Gap=     0.180 Goal=   None    Shift=    0.000
 RMSDP=8.27D-04 MaxDP=1.49D-02 DE= 1.94D-03 OVMax= 2.73D-02

 Cycle   4  Pass 0  IDiag  1:
 E= -153.797132387636     Delta-E=       -0.003058611495 Rises=F Damp=F
 DIIS: error= 9.31D-04 at cycle   4 NSaved=   4.
 NSaved= 4 IEnMin= 4 EnMin= -153.797132387636     IErMin= 4 ErrMin= 9.31D-04
 ErrMax= 9.31D-04  0.00D+00 EMaxC= 1.00D-01 BMatC= 7.52D-05 BMatP= 1.45D-03
 IDIUse=3 WtCom= 9.91D-01 WtEn= 9.31D-03
 Coeff-Com: -0.210D-01 0.280D+00 0.131D+00 0.610D+00
 Coeff-En:   0.000D+00 0.000D+00 0.000D+00 0.100D+01
 Coeff:     -0.209D-01 0.277D+00 0.130D+00 0.614D+00
 Gap=     0.180 Goal=   None    Shift=    0.000
 RMSDP=1.96D-04 MaxDP=1.97D-03 DE=-3.06D-03 OVMax= 2.74D-03

 Cycle   5  Pass 0  IDiag  1:
 E= -153.797206250442     Delta-E=       -0.000073862806 Rises=F Damp=F
 DIIS: error= 1.24D-04 at cycle   5 NSaved=   5.
 NSaved= 5 IEnMin= 5 EnMin= -153.797206250442     IErMin= 5 ErrMin= 1.24D-04
 ErrMax= 1.24D-04  0.00D+00 EMaxC= 1.00D-01 BMatC= 1.77D-06 BMatP= 7.52D-05
 IDIUse=3 WtCom= 9.99D-01 WtEn= 1.24D-03
 Coeff-Com: -0.602D-02 0.542D-01 0.280D-01 0.191D+00 0.733D+00
 Coeff-En:   0.000D+00 0.000D+00 0.000D+00 0.000D+00 0.100D+01
 Coeff:     -0.601D-02 0.541D-01 0.279D-01 0.191D+00 0.733D+00
 Gap=     0.180 Goal=   None    Shift=    0.000
 RMSDP=3.91D-05 MaxDP=3.02D-04 DE=-7.39D-05 OVMax= 8.83D-04

 Cycle   6  Pass 0  IDiag  1:
 E= -153.797208526280     Delta-E=       -0.000002275838 Rises=F Damp=F
 DIIS: error= 3.05D-05 at cycle   6 NSaved=   6.
 NSaved= 6 IEnMin= 6 EnMin= -153.797208526280     IErMin= 6 ErrMin= 3.05D-05
 ErrMax= 3.05D-05  0.00D+00 EMaxC= 1.00D-01 BMatC= 4.64D-08 BMatP= 1.77D-06
 IDIUse=1 WtCom= 1.00D+00 WtEn= 0.00D+00
 Coeff-Com:  0.673D-03-0.130D-01-0.502D-02-0.190D-01 0.683D-01 0.968D+00
 Coeff:      0.673D-03-0.130D-01-0.502D-02-0.190D-01 0.683D-01 0.968D+00
 Gap=     0.180 Goal=   None    Shift=    0.000
 RMSDP=1.55D-05 MaxDP=1.48D-04 DE=-2.28D-06 OVMax= 5.89D-04

 Cycle   7  Pass 0  IDiag  1:
 E= -153.797208708491     Delta-E=       -0.000000182211 Rises=F Damp=F
 DIIS: error= 1.10D-05 at cycle   7 NSaved=   7.
 NSaved= 7 IEnMin= 7 EnMin= -153.797208708491     IErMin= 7 ErrMin= 1.10D-05
 ErrMax= 1.10D-05  0.00D+00 EMaxC= 1.00D-01 BMatC= 9.13D-09 BMatP= 4.64D-08
 IDIUse=1 WtCom= 1.00D+00 WtEn= 0.00D+00
 Coeff-Com:  0.541D-03-0.712D-02-0.326D-02-0.170D-01-0.258D-01 0.310D+00
 Coeff-Com:  0.743D+00
 Coeff:      0.541D-03-0.712D-02-0.326D-02-0.170D-01-0.258D-01 0.310D+00
 Coeff:      0.743D+00
 Gap=     0.180 Goal=   None    Shift=    0.000
 RMSDP=4.27D-06 MaxDP=3.64D-05 DE=-1.82D-07 OVMax= 1.51D-04

 Initial convergence to 1.0D-05 achieved.  Increase integral accuracy.
 Cycle   8  Pass 1  IDiag  1:
 E= -153.797207398779     Delta-E=        0.000001309712 Rises=F Damp=F
 DIIS: error= 5.63D-06 at cycle   1 NSaved=   1.
 NSaved= 1 IEnMin= 1 EnMin= -153.797207398779     IErMin= 1 ErrMin= 5.63D-06
 ErrMax= 5.63D-06  0.00D+00 EMaxC= 1.00D-01 BMatC= 1.83D-09 BMatP= 1.83D-09
 IDIUse=1 WtCom= 1.00D+00 WtEn= 0.00D+00
 Coeff-Com:  0.100D+01
 Coeff:      0.100D+01
 Gap=     0.180 Goal=   None    Shift=    0.000
 RMSDP=4.27D-06 MaxDP=3.64D-05 DE= 1.31D-06 OVMax= 7.41D-05

 Cycle   9  Pass 1  IDiag  1:
 E= -153.797207400661     Delta-E=       -0.000000001882 Rises=F Damp=F
 DIIS: error= 6.59D-06 at cycle   2 NSaved=   2.
 NSaved= 2 IEnMin= 2 EnMin= -153.797207400661     IErMin= 1 ErrMin= 5.63D-06
 ErrMax= 6.59D-06  0.00D+00 EMaxC= 1.00D-01 BMatC= 2.31D-09 BMatP= 1.83D-09
 IDIUse=1 WtCom= 1.00D+00 WtEn= 0.00D+00
 Coeff-Com:  0.532D+00 0.468D+00
 Coeff:      0.532D+00 0.468D+00
 Gap=     0.180 Goal=   None    Shift=    0.000
 RMSDP=8.04D-07 MaxDP=1.16D-05 DE=-1.88D-09 OVMax= 1.28D-05

 Cycle  10  Pass 1  IDiag  1:
 E= -153.797207403092     Delta-E=       -0.000000002431 Rises=F Damp=F
 DIIS: error= 6.50D-07 at cycle   3 NSaved=   3.
 NSaved= 3 IEnMin= 3 EnMin= -153.797207403092     IErMin= 3 ErrMin= 6.50D-07
 ErrMax= 6.50D-07  0.00D+00 EMaxC= 1.00D-01 BMatC= 3.35D-11 BMatP= 1.83D-09
 IDIUse=1 WtCom= 1.00D+00 WtEn= 0.00D+00
 Coeff-Com: -0.389D-01-0.557D-03 0.104D+01
 Coeff:     -0.389D-01-0.557D-03 0.104D+01
 Gap=     0.180 Goal=   None    Shift=    0.000
 RMSDP=4.93D-07 MaxDP=4.56D-06 DE=-2.43D-09 OVMax= 1.79D-05

 Cycle  11  Pass 1  IDiag  1:
 E= -153.797207403174     Delta-E=       -0.000000000081 Rises=F Damp=F
 DIIS: error= 1.41D-06 at cycle   4 NSaved=   4.
 NSaved= 4 IEnMin= 4 EnMin= -153.797207403174     IErMin= 3 ErrMin= 6.50D-07
 ErrMax= 1.41D-06  0.00D+00 EMaxC= 1.00D-01 BMatC= 1.10D-10 BMatP= 3.35D-11
 IDIUse=1 WtCom= 1.00D+00 WtEn= 0.00D+00
 Coeff-Com: -0.139D+00-0.974D-01 0.856D+00 0.380D+00
 Coeff:     -0.139D+00-0.974D-01 0.856D+00 0.380D+00
 Gap=     0.180 Goal=   None    Shift=    0.000
 RMSDP=2.16D-07 MaxDP=3.61D-06 DE=-8.15D-11 OVMax= 5.94D-06

 Cycle  12  Pass 1  IDiag  1:
 E= -153.797207403275     Delta-E=       -0.000000000101 Rises=F Damp=F
 DIIS: error= 1.94D-07 at cycle   5 NSaved=   5.
 NSaved= 5 IEnMin= 5 EnMin= -153.797207403275     IErMin= 5 ErrMin= 1.94D-07
 ErrMax= 1.94D-07  0.00D+00 EMaxC= 1.00D-01 BMatC= 3.14D-12 BMatP= 3.35D-11
 IDIUse=1 WtCom= 1.00D+00 WtEn= 0.00D+00
 Coeff-Com: -0.605D-01-0.487D-01 0.206D+00 0.185D+00 0.719D+00
 Coeff:     -0.605D-01-0.487D-01 0.206D+00 0.185D+00 0.719D+00
 Gap=     0.180 Goal=   None    Shift=    0.000
 RMSDP=6.43D-08 MaxDP=5.93D-07 DE=-1.01D-10 OVMax= 2.33D-06

 Cycle  13  Pass 1  IDiag  1:
 E= -153.797207403280     Delta-E=       -0.000000000005 Rises=F Damp=F
 DIIS: error= 3.99D-08 at cycle   6 NSaved=   6.
 NSaved= 6 IEnMin= 6 EnMin= -153.797207403280     IErMin= 6 ErrMin= 3.99D-08
 ErrMax= 3.99D-08  0.00D+00 EMaxC= 1.00D-01 BMatC= 1.00D-13 BMatP= 3.14D-12
 IDIUse=1 WtCom= 1.00D+00 WtEn= 0.00D+00
 Coeff-Com: -0.130D-01-0.111D-01 0.296D-01 0.417D-01 0.252D+00 0.701D+00
 Coeff:     -0.130D-01-0.111D-01 0.296D-01 0.417D-01 0.252D+00 0.701D+00
 Gap=     0.180 Goal=   None    Shift=    0.000
 RMSDP=8.87D-09 MaxDP=8.71D-08 DE=-4.60D-12 OVMax= 2.00D-07

 SCF Done:  E(RB3LYP) =  -153.797207403     A.U. after   13 cycles
            NFock= 13  Conv=0.89D-08     -V/T= 2.0083
 KE= 1.525259163234D+02 PE=-4.949155193876D+02 EE= 1.208658780026D+02
 Leave Link  502 at Sun Aug  4 14:32:19 2019, MaxMem=  4294967296 cpu:             113.0 elap:               8.0
 (Enter /home/cwagen/sw/g16/g16/l701.exe)
 ... and contract with generalized density number  0.
 Compute integral first derivatives.
 R6Disp: Adding Grimme-D3(BJ) dispersion energy 1st derivatives to the gradient.
   1 Symmetry operations used in ECPInt.
 ECPInt:  NShTT=     210 NPrTT=    1291 LenC2=     211 LenP2D=    1082.
 LDataN:  DoStor=T MaxTD1= 5 Len=  102
 Leave Link  701 at Sun Aug  4 14:32:20 2019, MaxMem=  4294967296 cpu:              15.4 elap:               1.2
 (Enter /home/cwagen/sw/g16/g16/l702.exe)
 L702 exits ... SP integral derivatives will be done elsewhere.
 Leave Link  702 at Sun Aug  4 14:32:20 2019, MaxMem=  4294967296 cpu:               1.2 elap:               0.1
 (Enter /home/cwagen/sw/g16/g16/l703.exe)
 Integral derivatives from FoFJK, PRISM(SPDF).
 Compute integral first derivatives, UseDBF=F ICtDFT=           0.
 Calling FoFJK, ICntrl=      2127 FMM=F ISym2X=0 I1Cent= 0 IOpClX= 0 NMat=1 NMatS=1 NMatT=0.
 FoFJK:  IHMeth= 1 ICntrl=    2127 DoSepK=F KAlg= 0 I1Cent=           0 FoldK=F
 IRaf=         0 NMat=       1 IRICut=       1 DoRegI=T DoRafI=F ISym2E= 0 IDoP0=0 IntGTp=1.
 FoFCou: FMM=F IPFlag=           0 FMFlag=      100000 FMFlg1=         800
         NFxFlg=           0 DoJE=F BraDBF=F KetDBF=F FulRan=T
         wScrn=  0.000000 ICntrl=      2127 IOpCl=  0 I1Cent=           0 NGrid=           0
         NMat0=    1 NMatS0=      1 NMatT0=    0 NMatD0=    1 NMtDS0=    0 NMtDT0=    0
 Symmetry not used in FoFCou.
 Leave Link  703 at Sun Aug  4 14:32:22 2019, MaxMem=  4294967296 cpu:              20.7 elap:               1.6
 (Enter /home/cwagen/sw/g16/g16/l716.exe)
 Dipole        =-9.97425705D-01 4.35359944D-01 4.82287068D-02
 ***** Axes restored to original set *****
 -------------------------------------------------------------------
 Center     Atomic                   Forces (Hartrees/Bohr)
 Number     Number              X              Y              Z
 -------------------------------------------------------------------
      1        6          -0.137000998   -0.020242988   -0.056800682
      2        6           0.020145787    0.001987235    0.023827420
      3        1           0.017303051    0.008869862    0.021223867
      4        1          -0.005884652   -0.002195698   -0.001225507
      5        1           0.000028740    0.003385829   -0.006505057
      6        1           0.000186798    0.006115578    0.002914205
      7        8           0.105221274    0.002080182    0.016565754
 -------------------------------------------------------------------
 Cartesian Forces:  Max     0.137000998 RMS     0.041232424
 Leave Link  716 at Sun Aug  4 14:32:22 2019, MaxMem=  4294967296 cpu:               1.2 elap:               0.1
 (Enter /home/cwagen/sw/g16/g16/l103.exe)

 GradGradGradGradGradGradGradGradGradGradGradGradGradGradGradGradGradGrad
 Berny optimization.
 Using GEDIIS/GDIIS optimizer.
 FormGI is forming the generalized inverse of G from B-inverse, IUseBI=4.
 Internal  Forces:  Max     0.103252748 RMS     0.025017883
 Search for a local minimum.
 Step number   2 out of a maximum of   31
 All quantities printed in internal units (Hartrees-Bohrs-Radians)
 RMS Force = .25018D-01 SwitMx=.10000D-02 MixMth= 1
 Mixed Optimization -- RFO/linear search
 Update second derivatives using D2CorX and points    1    2
 DE= -5.09D-02 DEPred=-4.77D-02 R= 1.07D+00
 TightC=F SS=  1.41D+00  RLast= 4.05D-01 DXNew= 5.0454D-01 1.2142D+00
 Trust test= 1.07D+00 RLast= 4.05D-01 DXMaxT set to 5.05D-01
 ITU=  1  0
 Use linear search instead of GDIIS.
     Eigenvalues ---    0.00672   0.02884   0.07087   0.07449   0.15694
     Eigenvalues ---    0.16000   0.16000   0.18205   0.23713   0.25460
     Eigenvalues ---    0.31425   0.31726   0.31893   0.31927   0.32394
 RFO step:  Lambda=-1.41241146D-02 EMin= 6.71873547D-03
 Quartic linear search produced a step of  0.97287.
 Iteration  1 RMS(Cart)=  0.05496589 RMS(Int)=  0.03999266
 Iteration  2 RMS(Cart)=  0.03585541 RMS(Int)=  0.00953121
 Iteration  3 RMS(Cart)=  0.00039158 RMS(Int)=  0.00952200
 Iteration  4 RMS(Cart)=  0.00000601 RMS(Int)=  0.00952199
 Iteration  5 RMS(Cart)=  0.00000013 RMS(Int)=  0.00952199
 ITry= 1 IFail=0 DXMaxC= 2.24D-01 DCOld= 1.00D+10 DXMaxT= 5.05D-01 DXLimC= 3.00D+00 Rises=F
 Variable       Old X    -DE/DX   Delta X   Delta X   Delta X     New X
                                 (Linear)    (Quad)   (Total)
    R1        2.85051  -0.00165   0.00239  -0.01393  -0.01154   2.83897
    R2        2.10049  -0.00407  -0.01991   0.00956  -0.01034   2.09014
    R3        2.48484  -0.10325  -0.21157  -0.15104  -0.36260   2.12224
    R4        2.09011  -0.00599  -0.01940  -0.00251  -0.02190   2.06821
    R5        2.08787  -0.00697  -0.02218  -0.00360  -0.02578   2.06208
    R6        2.08634  -0.00558  -0.02367   0.00716  -0.01651   2.06983
    A1        2.04961   0.00633   0.13513  -0.16503  -0.05347   1.99615
    A2        2.04664   0.01852   0.09274   0.00391   0.07359   2.12023
    A3        1.92494   0.00255   0.01397   0.13249   0.11957   2.04451
    A4        1.94647   0.00452   0.01847   0.01311   0.03163   1.97811
    A5        1.94559  -0.00069   0.01435  -0.04042  -0.02651   1.91908
    A6        1.89477  -0.00673  -0.03509  -0.00027  -0.03552   1.85925
    A7        1.89136   0.00069  -0.00093   0.01889   0.01776   1.90912
    A8        1.89352   0.00035   0.00118   0.00073   0.00227   1.89578
    A9        1.89070   0.00186   0.00179   0.00878   0.00983   1.90053
    D1        0.89804  -0.01872  -0.11992  -0.01847  -0.14254   0.75550
    D2        3.01469  -0.01516  -0.09896  -0.01338  -0.11651   2.89818
    D3       -1.18724  -0.01758  -0.11036  -0.02718  -0.14102  -1.32825
    D4       -3.02900   0.01661   0.10959   0.00323   0.11653  -2.91247
    D5       -0.91235   0.02018   0.13055   0.00832   0.14257  -0.76978
    D6        1.16891   0.01776   0.11915  -0.00548   0.11806   1.28697
         Item               Value     Threshold  Converged?
 Maximum Force            0.103253     0.000450     NO 
 RMS     Force            0.025018     0.000300     NO 
 Maximum Displacement     0.224317     0.001800     NO 
 RMS     Displacement     0.072713     0.001200     NO 
 Predicted change in Energy=-3.655758D-02
 Lowest energy point so far.  Saving SCF results.
 GradGradGradGradGradGradGradGradGradGradGradGradGradGradGradGradGradGrad

 Leave Link  103 at Sun Aug  4 14:32:26 2019, MaxMem=  4294967296 cpu:              60.1 elap:               4.4
 (Enter /home/cwagen/sw/g16/g16/l202.exe)
                          Input orientation:                          
 ---------------------------------------------------------------------
 Center     Atomic      Atomic             Coordinates (Angstroms)
 Number     Number       Type             X           Y           Z
 ---------------------------------------------------------------------
      1          6           0       -4.189333    0.763726   -0.123273
      2          6           0       -3.507551   -0.569658   -0.003996
      3          1           0       -3.721128    1.452225   -0.851360
      4          1           0       -2.415910   -0.497290    0.025977
      5          1           0       -3.860653   -1.090027    0.887781
      6          1           0       -3.795594   -1.147164   -0.888992
      7          8           0       -5.293079    0.875722    0.051138
 ---------------------------------------------------------------------
                    Distance matrix (angstroms):
                    1          2          3          4          5
     1  C    0.000000
     2  C    1.502321   0.000000
     3  H    1.106055   2.202647   0.000000
     4  H    2.181161   1.094447   2.504780   0.000000
     5  H    2.136975   1.091206   3.083363   1.783627   0.000000
     6  H    2.095914   1.095308   2.600728   1.778491   1.778881
     7  O    1.123040   2.297884   1.902075   3.188086   2.572155
                    6          7
     6  H    0.000000
     7  O    2.686702   0.000000
 Stoichiometry    C2H4O
 Framework group  C1[X(C2H4O)]
 Deg. of freedom    15
 Full point group                 C1      NOp   1
 RotChk:  IX=0 Diff= 1.29D-01
 Largest Abelian subgroup         C1      NOp   1
 Largest concise Abelian subgroup C1      NOp   1
                         Standard orientation:                         
 ---------------------------------------------------------------------
 Center     Atomic      Atomic             Coordinates (Angstroms)
 Number     Number       Type             X           Y           Z
 ---------------------------------------------------------------------
      1          6           0        0.270237    0.392391   -0.105964
      2          6           0       -1.136742   -0.121675    0.008555
      3          1           0        0.395913    1.449270    0.194986
      4          1           0       -1.887405    0.583243   -0.362135
      5          1           0       -1.232399   -1.067538   -0.527096
      6          1           0       -1.318389   -0.297679    1.074259
      7          8           0        1.155164   -0.286449    0.025555
 ---------------------------------------------------------------------
 Rotational constants (GHZ):          57.7660186          10.9477524           9.8252216
 Leave Link  202 at Sun Aug  4 14:32:27 2019, MaxMem=  4294967296 cpu:               2.1 elap:               0.2
 (Enter /home/cwagen/sw/g16/g16/l301.exe)
 Basis read from rwf:  (5D, 7F)
 Pseudo-potential data read from rwf file.
 There are    53 symmetry adapted cartesian basis functions of A   symmetry.
 There are    50 symmetry adapted basis functions of A   symmetry.
    50 basis functions,   100 primitive gaussians,    53 cartesian basis functions
    12 alpha electrons       12 beta electrons
       nuclear repulsion energy        72.0833050557 Hartrees.
 IExCor=  402 DFT=T Ex+Corr=B3LYP ExCW=0 ScaHFX=  0.200000
 ScaDFX=  0.800000  0.720000  1.000000  0.810000 ScalE2=  1.000000  1.000000
 IRadAn=      5 IRanWt=     -1 IRanGd=            0 ICorTp=0 IEmpDi=141
 NAtoms=    7 NActive=    7 NUniq=    7 SFac= 1.00D+00 NAtFMM=   60 NAOKFM=F Big=F
 Integral buffers will be    131072 words long.
 Raffenetti 2 integral format.
 Two-electron integral symmetry is turned on.
 R6Disp:  Grimme-D3(BJ) Dispersion energy=       -0.0054386113 Hartrees.
 Nuclear repulsion after empirical dispersion term =       72.0778664444 Hartrees.
 No density basis found on file   724.
 Leave Link  301 at Sun Aug  4 14:32:27 2019, MaxMem=  4294967296 cpu:               1.9 elap:               0.2
 (Enter /home/cwagen/sw/g16/g16/l302.exe)
 NPDir=0 NMtPBC=     1 NCelOv=     1 NCel=       1 NClECP=     1 NCelD=      1
         NCelK=      1 NCelE2=     1 NClLst=     1 CellRange=     0.0.
 One-electron integrals computed using PRISM.
 One-electron integral symmetry used in STVInt
   1 Symmetry operations used in ECPInt.
 ECPInt:  NShTT=     210 NPrTT=    1291 LenC2=     211 LenP2D=    1088.
 LDataN:  DoStor=T MaxTD1= 4 Len=   56
 NBasis=    50 RedAO= T EigKep=  7.49D-03  NBF=    50
 NBsUse=    50 1.00D-06 EigRej= -1.00D+00 NBFU=    50
 Precomputing XC quadrature grid using
 IXCGrd= 4 IRadAn=           5 IRanWt=          -1 IRanGd=           0 AccXCQ= 0.00D+00.
 Generated NRdTot=       0 NPtTot=           0 NUsed=           0 NTot=          32
 NSgBfM=    53    53    53    53    53 MxSgAt=     7 MxSgA2=     7.
 Leave Link  302 at Sun Aug  4 14:32:28 2019, MaxMem=  4294967296 cpu:              15.9 elap:               1.3
 (Enter /home/cwagen/sw/g16/g16/l303.exe)
 DipDrv:  MaxL=1.
 Leave Link  303 at Sun Aug  4 14:32:28 2019, MaxMem=  4294967296 cpu:               5.4 elap:               0.4
 (Enter /home/cwagen/sw/g16/g16/l401.exe)
 Initial guess from the checkpoint file:  "/scratch/users/cwagen/cwagen_acetaldehyde/Gau-2218.chk"
 B after Tr=     0.000000    0.000000    0.000000
         Rot=    0.999529    0.027144    0.004717    0.013493 Ang=   3.52 deg.
 Guess basis will be translated and rotated to current coordinates.
 JPrj=2 DoOrth=T DoCkMO=T.
 Generating alternative initial guess.
 ExpMin= 1.61D-01 ExpMax= 5.48D+03 ExpMxC= 8.25D+02 IAcc=2 IRadAn=         4 AccDes= 0.00D+00
 Harris functional with IExCor=  402 and IRadAn=       4 diagonalized for initial guess.
 HarFok:  IExCor=  402 AccDes= 0.00D+00 IRadAn=         4 IDoV= 1 UseB2=F ITyADJ=14
 ICtDFT=  3500011 ScaDFX=  1.000000  1.000000  1.000000  1.000000
 FoFCou: FMM=F IPFlag=           0 FMFlag=      100000 FMFlg1=           0
         NFxFlg=           0 DoJE=T BraDBF=F KetDBF=T FulRan=T
         wScrn=  0.000000 ICntrl=       500 IOpCl=  0 I1Cent=   200000004 NGrid=           0
         NMat0=    1 NMatS0=      1 NMatT0=    0 NMatD0=    1 NMtDS0=    0 NMtDT0=    0
 Petite list used in FoFCou.
 Harris En= -153.837481695374    
 Leave Link  401 at Sun Aug  4 14:32:31 2019, MaxMem=  4294967296 cpu:              33.4 elap:               2.6
 (Enter /home/cwagen/sw/g16/g16/l502.exe)
 Keep R1 ints in memory in canonical form, NReq=14821905.
 FoFCou: FMM=F IPFlag=           0 FMFlag=           0 FMFlg1=           0
         NFxFlg=           0 DoJE=F BraDBF=F KetDBF=F FulRan=T
         wScrn=  0.000000 ICntrl=       600 IOpCl=  0 I1Cent=           0 NGrid=           0
         NMat0=    1 NMatS0=   1275 NMatT0=    0 NMatD0=    1 NMtDS0=    0 NMtDT0=    0
 Symmetry not used in FoFCou.
 Two-electron integral symmetry not used.
 Closed shell SCF:
 Using DIIS extrapolation, IDIIS=  1040.
 NGot=  4294967296 LenX=  4294146603 LenY=  4294143353
 Requested convergence on RMS density matrix=1.00D-08 within 128 cycles.
 Requested convergence on MAX density matrix=1.00D-06.
 Requested convergence on             energy=1.00D-06.
 No special actions if energy rises.
 Integral accuracy reduced to 1.0D-05 until final iterations.

 Cycle   1  Pass 0  IDiag  1:
 E= -153.777052794523    
 DIIS: error= 1.25D-02 at cycle   1 NSaved=   1.
 NSaved= 1 IEnMin= 1 EnMin= -153.777052794523     IErMin= 1 ErrMin= 1.25D-02
 ErrMax= 1.25D-02  0.00D+00 EMaxC= 1.00D-01 BMatC= 2.12D-02 BMatP= 2.12D-02
 IDIUse=3 WtCom= 8.75D-01 WtEn= 1.25D-01
 Coeff-Com:  0.100D+01
 Coeff-En:   0.100D+01
 Coeff:      0.100D+01
 Recover alternate guess density for next cycle.
 RMSDP=7.84D-03 MaxDP=9.93D-02              OVMax= 0.00D+00

 Cycle   2  Pass 0  IDiag  1:
 E= -153.690298578961     Delta-E=        0.086754215562 Rises=F Damp=F
 Switch densities from cycles 1 and 2 for lowest energy.
 DIIS: error= 5.32D-02 at cycle   2 NSaved=   2.
 NSaved= 2 IEnMin= 1 EnMin= -153.777052794523     IErMin= 1 ErrMin= 1.25D-02
 ErrMax= 5.32D-02  0.00D+00 EMaxC= 1.00D+00 BMatC= 1.22D-01 BMatP= 2.12D-02
 IDIUse=1 WtCom= 1.00D+00 WtEn= 0.00D+00
 Coeff-Com:  0.793D+00 0.207D+00
 Coeff:      0.793D+00 0.207D+00
 Gap=     0.226 Goal=   None    Shift=    0.000
 RMSDP=4.88D-03 MaxDP=5.19D-02 DE= 8.68D-02 OVMax= 1.10D-01

 Cycle   3  Pass 0  IDiag  1:
 E= -153.800487381958     Delta-E=       -0.110188802997 Rises=F Damp=F
 DIIS: error= 7.47D-03 at cycle   3 NSaved=   3.
 NSaved= 3 IEnMin= 3 EnMin= -153.800487381958     IErMin= 3 ErrMin= 7.47D-03
 ErrMax= 7.47D-03  0.00D+00 EMaxC= 1.00D+00 BMatC= 5.08D-03 BMatP= 2.12D-02
 IDIUse=1 WtCom= 1.00D+00 WtEn= 0.00D+00
 Coeff-Com:  0.119D+00 0.145D+00 0.736D+00
 Coeff:      0.119D+00 0.145D+00 0.736D+00
 Gap=     0.236 Goal=   None    Shift=    0.000
 RMSDP=1.33D-03 MaxDP=1.67D-02 DE=-1.10D-01 OVMax= 2.14D-02

 Cycle   4  Pass 0  IDiag  1:
 E= -153.804742236559     Delta-E=       -0.004254854601 Rises=F Damp=F
 DIIS: error= 2.17D-03 at cycle   4 NSaved=   4.
 NSaved= 4 IEnMin= 4 EnMin= -153.804742236559     IErMin= 4 ErrMin= 2.17D-03
 ErrMax= 2.17D-03  0.00D+00 EMaxC= 1.00D+00 BMatC= 4.46D-04 BMatP= 5.08D-03
 IDIUse=1 WtCom= 1.00D+00 WtEn= 0.00D+00
 Coeff-Com: -0.281D-02 0.478D-01 0.317D+00 0.638D+00
 Coeff:     -0.281D-02 0.478D-01 0.317D+00 0.638D+00
 Gap=     0.233 Goal=   None    Shift=    0.000
 RMSDP=4.14D-04 MaxDP=5.62D-03 DE=-4.25D-03 OVMax= 6.51D-03

 Cycle   5  Pass 0  IDiag  1:
 E= -153.805148426484     Delta-E=       -0.000406189925 Rises=F Damp=F
 DIIS: error= 5.05D-04 at cycle   5 NSaved=   5.
 NSaved= 5 IEnMin= 5 EnMin= -153.805148426484     IErMin= 5 ErrMin= 5.05D-04
 ErrMax= 5.05D-04  0.00D+00 EMaxC= 1.00D+00 BMatC= 2.56D-05 BMatP= 4.46D-04
 IDIUse=1 WtCom= 1.00D+00 WtEn= 0.00D+00
 Coeff-Com: -0.552D-02 0.131D-01 0.933D-01 0.265D+00 0.634D+00
 Coeff:     -0.552D-02 0.131D-01 0.933D-01 0.265D+00 0.634D+00
 Gap=     0.234 Goal=   None    Shift=    0.000
 RMSDP=1.06D-04 MaxDP=1.28D-03 DE=-4.06D-04 OVMax= 1.96D-03

 Cycle   6  Pass 0  IDiag  1:
 E= -153.805165744558     Delta-E=       -0.000017318073 Rises=F Damp=F
 DIIS: error= 3.21D-04 at cycle   6 NSaved=   6.
 NSaved= 6 IEnMin= 6 EnMin= -153.805165744558     IErMin= 6 ErrMin= 3.21D-04
 ErrMax= 3.21D-04  0.00D+00 EMaxC= 1.00D+00 BMatC= 7.88D-06 BMatP= 2.56D-05
 IDIUse=1 WtCom= 1.00D+00 WtEn= 0.00D+00
 Coeff-Com: -0.210D-02 0.147D-02 0.204D-01 0.908D-01 0.386D+00 0.503D+00
 Coeff:     -0.210D-02 0.147D-02 0.204D-01 0.908D-01 0.386D+00 0.503D+00
 Gap=     0.234 Goal=   None    Shift=    0.000
 RMSDP=5.29D-05 MaxDP=6.49D-04 DE=-1.73D-05 OVMax= 9.58D-04

 Cycle   7  Pass 0  IDiag  1:
 E= -153.805172139199     Delta-E=       -0.000006394641 Rises=F Damp=F
 DIIS: error= 3.33D-05 at cycle   7 NSaved=   7.
 NSaved= 7 IEnMin= 7 EnMin= -153.805172139199     IErMin= 7 ErrMin= 3.33D-05
 ErrMax= 3.33D-05  0.00D+00 EMaxC= 1.00D+00 BMatC= 9.12D-08 BMatP= 7.88D-06
 IDIUse=1 WtCom= 1.00D+00 WtEn= 0.00D+00
 Coeff-Com: -0.362D-03-0.188D-03 0.468D-03 0.966D-02 0.726D-01 0.159D+00
 Coeff-Com:  0.759D+00
 Coeff:     -0.362D-03-0.188D-03 0.468D-03 0.966D-02 0.726D-01 0.159D+00
 Coeff:      0.759D+00
 Gap=     0.234 Goal=   None    Shift=    0.000
 RMSDP=6.72D-06 MaxDP=5.42D-05 DE=-6.39D-06 OVMax= 1.13D-04

 Initial convergence to 1.0D-05 achieved.  Increase integral accuracy.
 Cycle   8  Pass 1  IDiag  1:
 E= -153.805173017165     Delta-E=       -0.000000877965 Rises=F Damp=F
 DIIS: error= 3.38D-06 at cycle   1 NSaved=   1.
 NSaved= 1 IEnMin= 1 EnMin= -153.805173017165     IErMin= 1 ErrMin= 3.38D-06
 ErrMax= 3.38D-06  0.00D+00 EMaxC= 1.00D+00 BMatC= 7.08D-10 BMatP= 7.08D-10
 IDIUse=1 WtCom= 1.00D+00 WtEn= 0.00D+00
 Coeff-Com:  0.100D+01
 Coeff:      0.100D+01
 Gap=     0.234 Goal=   None    Shift=    0.000
 RMSDP=6.72D-06 MaxDP=5.42D-05 DE=-8.78D-07 OVMax= 3.42D-05

 Cycle   9  Pass 1  IDiag  1:
 E= -153.805173018368     Delta-E=       -0.000000001204 Rises=F Damp=F
 DIIS: error= 1.64D-06 at cycle   2 NSaved=   2.
 NSaved= 2 IEnMin= 2 EnMin= -153.805173018368     IErMin= 2 ErrMin= 1.64D-06
 ErrMax= 1.64D-06  0.00D+00 EMaxC= 1.00D+00 BMatC= 1.46D-10 BMatP= 7.08D-10
 IDIUse=1 WtCom= 1.00D+00 WtEn= 0.00D+00
 Coeff-Com:  0.286D+00 0.714D+00
 Coeff:      0.286D+00 0.714D+00
 Gap=     0.234 Goal=   None    Shift=    0.000
 RMSDP=3.38D-07 MaxDP=2.06D-06 DE=-1.20D-09 OVMax= 7.26D-06

 Cycle  10  Pass 1  IDiag  1:
 E= -153.805173018515     Delta-E=       -0.000000000147 Rises=F Damp=F
 DIIS: error= 6.91D-07 at cycle   3 NSaved=   3.
 NSaved= 3 IEnMin= 3 EnMin= -153.805173018515     IErMin= 3 ErrMin= 6.91D-07
 ErrMax= 6.91D-07  0.00D+00 EMaxC= 1.00D+00 BMatC= 3.32D-11 BMatP= 1.46D-10
 IDIUse=1 WtCom= 1.00D+00 WtEn= 0.00D+00
 Coeff-Com:  0.889D-01 0.341D+00 0.570D+00
 Coeff:      0.889D-01 0.341D+00 0.570D+00
 Gap=     0.234 Goal=   None    Shift=    0.000
 RMSDP=1.60D-07 MaxDP=2.21D-06 DE=-1.47D-10 OVMax= 3.21D-06

 Cycle  11  Pass 1  IDiag  1:
 E= -153.805173018542     Delta-E=       -0.000000000027 Rises=F Damp=F
 DIIS: error= 4.50D-07 at cycle   4 NSaved=   4.
 NSaved= 4 IEnMin= 4 EnMin= -153.805173018542     IErMin= 4 ErrMin= 4.50D-07
 ErrMax= 4.50D-07  0.00D+00 EMaxC= 1.00D+00 BMatC= 1.20D-11 BMatP= 3.32D-11
 IDIUse=1 WtCom= 1.00D+00 WtEn= 0.00D+00
 Coeff-Com: -0.547D-01-0.533D-01 0.403D+00 0.705D+00
 Coeff:     -0.547D-01-0.533D-01 0.403D+00 0.705D+00
 Gap=     0.234 Goal=   None    Shift=    0.000
 RMSDP=9.27D-08 MaxDP=6.90D-07 DE=-2.67D-11 OVMax= 2.88D-06

 Cycle  12  Pass 1  IDiag  1:
 E= -153.805173018554     Delta-E=       -0.000000000012 Rises=F Damp=F
 DIIS: error= 7.67D-08 at cycle   5 NSaved=   5.
 NSaved= 5 IEnMin= 5 EnMin= -153.805173018554     IErMin= 5 ErrMin= 7.67D-08
 ErrMax= 7.67D-08  0.00D+00 EMaxC= 1.00D+00 BMatC= 3.29D-13 BMatP= 1.20D-11
 IDIUse=1 WtCom= 1.00D+00 WtEn= 0.00D+00
 Coeff-Com: -0.250D-01-0.369D-01 0.144D+00 0.268D+00 0.650D+00
 Coeff:     -0.250D-01-0.369D-01 0.144D+00 0.268D+00 0.650D+00
 Gap=     0.234 Goal=   None    Shift=    0.000
 RMSDP=1.81D-08 MaxDP=1.98D-07 DE=-1.23D-11 OVMax= 4.49D-07

 Cycle  13  Pass 1  IDiag  1:
 E= -153.805173018555     Delta-E=        0.000000000000 Rises=F Damp=F
 DIIS: error= 3.10D-08 at cycle   6 NSaved=   6.
 NSaved= 6 IEnMin= 6 EnMin= -153.805173018555     IErMin= 6 ErrMin= 3.10D-08
 ErrMax= 3.10D-08  0.00D+00 EMaxC= 1.00D+00 BMatC= 4.78D-14 BMatP= 3.29D-13
 IDIUse=1 WtCom= 1.00D+00 WtEn= 0.00D+00
 Coeff-Com: -0.337D-02-0.873D-02 0.103D-01 0.103D-01 0.275D+00 0.716D+00
 Coeff:     -0.337D-02-0.873D-02 0.103D-01 0.103D-01 0.275D+00 0.716D+00
 Gap=     0.234 Goal=   None    Shift=    0.000
 RMSDP=5.78D-09 MaxDP=5.64D-08 DE=-3.69D-13 OVMax= 1.30D-07

 SCF Done:  E(RB3LYP) =  -153.805173019     A.U. after   13 cycles
            NFock= 13  Conv=0.58D-08     -V/T= 2.0033
 KE= 1.532948386872D+02 PE=-5.040029802070D+02 EE= 1.248251020569D+02
 Leave Link  502 at Sun Aug  4 14:32:43 2019, MaxMem=  4294967296 cpu:             148.7 elap:              11.5
 (Enter /home/cwagen/sw/g16/g16/l701.exe)
 ... and contract with generalized density number  0.
 Compute integral first derivatives.
 R6Disp: Adding Grimme-D3(BJ) dispersion energy 1st derivatives to the gradient.
   1 Symmetry operations used in ECPInt.
 ECPInt:  NShTT=     210 NPrTT=    1291 LenC2=     211 LenP2D=    1088.
 LDataN:  DoStor=T MaxTD1= 5 Len=  102
 Leave Link  701 at Sun Aug  4 14:32:44 2019, MaxMem=  4294967296 cpu:              14.7 elap:               1.2
 (Enter /home/cwagen/sw/g16/g16/l702.exe)
 L702 exits ... SP integral derivatives will be done elsewhere.
 Leave Link  702 at Sun Aug  4 14:32:44 2019, MaxMem=  4294967296 cpu:               1.1 elap:               0.1
 (Enter /home/cwagen/sw/g16/g16/l703.exe)
 Integral derivatives from FoFJK, PRISM(SPDF).
 Compute integral first derivatives, UseDBF=F ICtDFT=           0.
 Calling FoFJK, ICntrl=      2127 FMM=F ISym2X=0 I1Cent= 0 IOpClX= 0 NMat=1 NMatS=1 NMatT=0.
 FoFJK:  IHMeth= 1 ICntrl=    2127 DoSepK=F KAlg= 0 I1Cent=           0 FoldK=F
 IRaf=         0 NMat=       1 IRICut=       1 DoRegI=T DoRafI=F ISym2E= 0 IDoP0=0 IntGTp=1.
 FoFCou: FMM=F IPFlag=           0 FMFlag=      100000 FMFlg1=         800
         NFxFlg=           0 DoJE=F BraDBF=F KetDBF=F FulRan=T
         wScrn=  0.000000 ICntrl=      2127 IOpCl=  0 I1Cent=           0 NGrid=           0
         NMat0=    1 NMatS0=      1 NMatT0=    0 NMatD0=    1 NMtDS0=    0 NMtDT0=    0
 Symmetry not used in FoFCou.
 Leave Link  703 at Sun Aug  4 14:32:45 2019, MaxMem=  4294967296 cpu:              18.8 elap:               1.5
 (Enter /home/cwagen/sw/g16/g16/l716.exe)
 Dipole        =-7.42912180D-01 3.19585331D-01-2.66748803D-03
 ***** Axes restored to original set *****
 -------------------------------------------------------------------
 Center     Atomic                   Forces (Hartrees/Bohr)
 Number     Number              X              Y              Z
 -------------------------------------------------------------------
      1        6           0.158134094   -0.037392707   -0.079600297
      2        6           0.019099659   -0.004696666    0.017767317
      3        1           0.020995742    0.015555049    0.007027912
      4        1           0.000685552   -0.000648125   -0.000953732
      5        1          -0.001237117   -0.003463363    0.000515555
      6        1           0.000004487    0.000202009   -0.001032339
      7        8          -0.197682417    0.030443802    0.056275584
 -------------------------------------------------------------------
 Cartesian Forces:  Max     0.197682417 RMS     0.060696089
 Leave Link  716 at Sun Aug  4 14:32:46 2019, MaxMem=  4294967296 cpu:               1.2 elap:               0.1
 (Enter /home/cwagen/sw/g16/g16/l103.exe)

 GradGradGradGradGradGradGradGradGradGradGradGradGradGradGradGradGradGrad
 Berny optimization.
 Using GEDIIS/GDIIS optimizer.
 FormGI is forming the generalized inverse of G from B-inverse, IUseBI=4.
 Internal  Forces:  Max     0.206061997 RMS     0.046037167
 Search for a local minimum.
 Step number   3 out of a maximum of   31
 All quantities printed in internal units (Hartrees-Bohrs-Radians)
 RMS Force = .46037D-01 SwitMx=.10000D-02 MixMth= 1
 Mixed Optimization -- RFO/linear search
 Update second derivatives using D2CorX and points    2    3
 DE= -7.97D-03 DEPred=-3.66D-02 R= 2.18D-01
 Trust test= 2.18D-01 RLast= 5.11D-01 DXMaxT set to 5.05D-01
 ITU=  0  1  0
 Use linear search instead of GDIIS.
     Eigenvalues ---    0.00672   0.01804   0.06995   0.07731   0.15886
     Eigenvalues ---    0.16000   0.16007   0.19436   0.23391   0.31311
     Eigenvalues ---    0.31708   0.31871   0.31902   0.32333   0.87979
 RFO step:  Lambda=-5.78806986D-02 EMin= 6.71968533D-03
 Quartic linear search produced a step of -0.38283.
 Iteration  1 RMS(Cart)=  0.08551634 RMS(Int)=  0.04726814
 Iteration  2 RMS(Cart)=  0.02660681 RMS(Int)=  0.01674100
 Iteration  3 RMS(Cart)=  0.00158214 RMS(Int)=  0.01664662
 Iteration  4 RMS(Cart)=  0.00001979 RMS(Int)=  0.01664659
 Iteration  5 RMS(Cart)=  0.00000052 RMS(Int)=  0.01664659
 ITry= 1 IFail=0 DXMaxC= 2.48D-01 DCOld= 1.00D+10 DXMaxT= 5.05D-01 DXLimC= 3.00D+00 Rises=F
 Variable       Old X    -DE/DX   Delta X   Delta X   Delta X     New X
                                 (Linear)    (Quad)   (Total)
    R1        2.83897   0.01735   0.00442   0.01561   0.02003   2.85900
    R2        2.09014   0.01394   0.00396   0.01645   0.02041   2.11055
    R3        2.12224   0.20606   0.13881   0.06753   0.20634   2.32858
    R4        2.06821   0.00061   0.00839  -0.00787   0.00052   2.06872
    R5        2.06208   0.00247   0.00987  -0.00712   0.00275   2.06483
    R6        2.06983   0.00073   0.00632  -0.00375   0.00257   2.07240
    A1        1.99615  -0.00218   0.02047   0.03027   0.00671   2.00286
    A2        2.12023   0.01403  -0.02817   0.10999   0.03779   2.15802
    A3        2.04451   0.00284  -0.04577   0.16722   0.07739   2.12190
    A4        1.97811   0.00080  -0.01211   0.02432   0.01210   1.99021
    A5        1.91908   0.00306   0.01015  -0.00953   0.00063   1.91971
    A6        1.85925  -0.00192   0.01360  -0.03045  -0.01677   1.84248
    A7        1.90912  -0.00030  -0.00680   0.01867   0.01172   1.92084
    A8        1.89578  -0.00066  -0.00087  -0.00361  -0.00453   1.89125
    A9        1.90053  -0.00116  -0.00376  -0.00141  -0.00494   1.89559
    D1        0.75550  -0.01559   0.05457  -0.33986  -0.28493   0.47057
    D2        2.89818  -0.01313   0.04460  -0.30546  -0.26030   2.63789
    D3       -1.32825  -0.01398   0.05398  -0.32943  -0.27517  -1.60343
    D4       -2.91247   0.01396  -0.04461   0.31700   0.27196  -2.64051
    D5       -0.76978   0.01643  -0.05458   0.35141   0.29659  -0.47319
    D6        1.28697   0.01558  -0.04520   0.32743   0.28171   1.56869
         Item               Value     Threshold  Converged?
 Maximum Force            0.206062     0.000450     NO 
 RMS     Force            0.046037     0.000300     NO 
 Maximum Displacement     0.248256     0.001800     NO 
 RMS     Displacement     0.101619     0.001200     NO 
 Predicted change in Energy=-4.819387D-02
[...]
     21  0.306788D+00 -0.945121D-01 -0.279466D+00  0.129655D-01 -0.779567D-02
                6             7             8             9            10 
      6  0.571035D+00
      7 -0.467524D-02  0.839431D-01
      8  0.245821D-01  0.372501D-01  0.140120D+00
      9  0.547122D-02 -0.801612D-01 -0.110573D+00  0.166759D+00
     10 -0.584785D-01  0.136321D-02  0.136402D-02  0.375889D-03  0.313760D+00
     11 -0.305419D-02 -0.337125D-02 -0.691879D-03 -0.132616D-02  0.466015D-01
     12 -0.586207D-01  0.770722D-03  0.424176D-03  0.312763D-04  0.632633D-01
     13  0.902252D-01 -0.588351D-03  0.364440D-02  0.380849D-03 -0.105938D-01
     14  0.102644D+00  0.392654D-02 -0.436667D-02  0.894622D-03 -0.122061D-02
     15 -0.199481D+00  0.196573D-03  0.114951D-02  0.152959D-02 -0.370358D-02
     16  0.314394D-03 -0.418722D-03 -0.100551D-02 -0.136820D-02  0.240021D-03
     17 -0.118471D+00  0.691490D-03  0.145140D-02  0.332648D-02 -0.454358D-03
     18 -0.236820D+00  0.217692D-03 -0.117470D-02 -0.331713D-03  0.101830D-03
     19  0.221537D-01 -0.197051D-01  0.265414D-02  0.345192D-01  0.609568D-03
     20 -0.205515D-01 -0.902865D-02  0.244606D-01  0.549760D-02  0.382577D-02
     21  0.190862D-01  0.421335D-01 -0.507197D-02 -0.144499D-01 -0.122416D-02
               11            12            13            14            15 
     11  0.553958D-01
     12  0.103211D-01  0.595303D-01
     13 -0.152050D-01  0.236341D-01  0.106360D+00
     14 -0.293361D-02  0.232600D-02  0.679087D-01  0.130494D+00
     15 -0.601765D-02  0.775668D-02 -0.974595D-01 -0.115509D+00  0.211116D+00
     16 -0.186618D-01 -0.280070D-01 -0.110514D-03  0.928907D-02  0.111733D-01
     17 -0.269693D-02 -0.403884D-02  0.165769D-02  0.113442D-01  0.149864D-01
     18 -0.390777D-02 -0.684155D-02 -0.207184D-02 -0.129216D-01 -0.170045D-01
     19 -0.303570D-03 -0.800700D-04  0.595642D-03 -0.549359D-03 -0.155735D-02
     20 -0.641231D-02 -0.515686D-03 -0.278886D-02  0.513854D-02 -0.181663D-02
     21 -0.185758D-02  0.285485D-03 -0.961987D-04 -0.384466D-02  0.107310D-02
               16            17            18            19            20 
     16  0.448871D-01
     17  0.854983D-03  0.128996D+00
     18  0.310012D-02  0.130421D+00  0.254792D+00
     19 -0.276552D-02  0.341340D-02 -0.208606D-02  0.568692D+00
     20  0.254671D-02 -0.289977D-02 -0.685385D-03 -0.211403D+00  0.146724D+00
     21 -0.307013D-02  0.360893D-02  0.150143D-03 -0.357497D+00  0.109473D+00
               21 
     21  0.273321D+00
 FormGI is forming the generalized inverse of G from B-inverse, IUseBI=4.
 Force constants in internal coordinates: 
                1             2             3             4             5 
      1  0.278495D+00
      2  0.874166D-02  0.298516D+00
      3  0.457602D-01  0.391069D-01  0.883826D+00
      4  0.535270D-02  0.987149D-03 -0.396077D-03  0.336728D+00
      5  0.343944D-02 -0.111473D-03  0.151396D-02  0.176278D-02  0.350851D+00
      6  0.535362D-02  0.986905D-03 -0.396965D-03  0.280764D-02  0.176278D-02
      7  0.575822D-02  0.115316D-01 -0.401143D-01 -0.177551D-02  0.615212D-02
      8  0.150437D-01 -0.130058D-01  0.203267D-01  0.414250D-02 -0.747284D-02
      9 -0.208019D-01  0.147417D-02  0.197876D-01 -0.236699D-02  0.132072D-02
     10  0.114058D-01  0.607006D-03  0.379995D-02  0.519487D-02 -0.580463D-02
     11  0.137059D-01  0.295125D-02 -0.315256D-02 -0.618686D-02  0.367001D-02
     12  0.114020D-01  0.607828D-03  0.379807D-02 -0.689019D-02 -0.580475D-02
     13 -0.110912D-01 -0.174936D-02 -0.893125D-03  0.413781D-02  0.428669D-02
     14 -0.152416D-01 -0.806106D-03 -0.257715D-02  0.521322D-02 -0.851083D-03
     15 -0.110920D-01 -0.174964D-02 -0.892143D-03 -0.107346D-02  0.428674D-02
     16 -0.255522D-02 -0.132654D-03  0.666503D-03 -0.515729D-03 -0.392597D-02
     17  0.216526D-05  0.000000D+00  0.000000D+00  0.405037D-02  0.000000D+00
     18  0.255630D-02  0.132657D-03 -0.666660D-03 -0.585012D-02  0.392580D-02
     19 -0.255601D-02 -0.132588D-03  0.666541D-03  0.532713D-03 -0.392561D-02
     20  0.137258D-05  0.000000D+00  0.000000D+00  0.509881D-02  0.000000D+00
     21  0.255551D-02  0.132723D-03 -0.666622D-03 -0.480168D-02  0.392616D-02
                6             7             8             9            10 
      6  0.336720D+00
      7 -0.177355D-02  0.103554D+00
      8  0.413968D-02 -0.622854D-01  0.145838D+00
      9 -0.236613D-02 -0.412685D-01 -0.835529D-01  0.124821D+00
     10 -0.689014D-02 -0.114571D-01  0.147884D-01 -0.333129D-02  0.970847D-01
     11 -0.618715D-02  0.231192D-01 -0.246768D-01  0.155757D-02 -0.198060D-01
     12  0.519547D-02 -0.114521D-01  0.147805D-01 -0.332836D-02 -0.103334D-01
     13 -0.107366D-02 -0.358264D-02  0.279165D-02  0.790988D-03 -0.373287D-01
     14  0.521323D-02  0.610360D-02 -0.963710D-02  0.353350D-02 -0.375442D-01
     15  0.413756D-02 -0.358460D-02  0.279414D-02  0.790463D-03  0.798285D-02
     16  0.585022D-02 -0.302099D-02  0.283147D-02  0.189531D-03 -0.339056D-02
     17 -0.405054D-02  0.000000D+00  0.000000D+00  0.000000D+00  0.951723D-03
     18  0.515467D-03  0.302276D-02 -0.283309D-02 -0.189658D-03 -0.875365D-02
     19  0.480138D-02 -0.302151D-02  0.283148D-02  0.190019D-03  0.551212D-02
     20 -0.509938D-02  0.000000D+00  0.000000D+00  0.000000D+00  0.985440D-02
     21 -0.533375D-03  0.302223D-02 -0.283307D-02 -0.189169D-03  0.149027D-03
               11            12            13            14            15 
     11  0.100395D+00
     12 -0.198040D-01  0.970773D-01
     13 -0.370797D-01  0.798277D-02  0.549990D-01
     14  0.940116D-02 -0.375418D-01  0.634533D-02  0.538744D-01
     15 -0.370812D-01 -0.373260D-01  0.666775D-02  0.634479D-02  0.549983D-01
     16 -0.592488D-02  0.875396D-02 -0.820212D-02  0.106583D-01 -0.132830D-02
     17  0.000000D+00 -0.949918D-03  0.118614D-01  0.000000D+00 -0.118618D-01
     18  0.592344D-02  0.339265D-02  0.132852D-02 -0.106586D-01  0.820122D-02
     19 -0.592302D-02 -0.150993D-03 -0.107557D-01  0.106591D-01  0.122480D-02
     20  0.103726D-05 -0.985487D-02  0.930783D-02  0.000000D+00 -0.930867D-02
     21  0.592530D-02 -0.551230D-02 -0.122502D-02 -0.106578D-01  0.107543D-01
               16            17            18            19            20 
     16  0.199410D-01
     17  0.360326D-02  0.190554D-01
     18  0.384931D-02  0.360280D-02  0.199400D-01
     19  0.191127D-02 -0.117587D-01 -0.141801D-01  0.175065D-01
     20 -0.144264D-01  0.369344D-02 -0.144266D-01  0.383649D-02  0.219564D-01
     21 -0.141804D-01 -0.117592D-01  0.191058D-02  0.141516D-02  0.383634D-02
               21 
     21  0.175061D-01
 Leave Link  716 at Sun Aug  4 14:36:23 2019, MaxMem=  4294967296 cpu:               5.7 elap:               0.4
 (Enter /home/cwagen/sw/g16/g16/l103.exe)

 GradGradGradGradGradGradGradGradGradGradGradGradGradGradGradGradGradGrad
 Berny optimization.
 Red2BG is reusing G-inverse.
 Internal  Forces:  Max     0.000017232 RMS     0.000004700
 Search for a local minimum.
 Step number   1 out of a maximum of    2
 All quantities printed in internal units (Hartrees-Bohrs-Radians)
 Second derivative matrix not updated -- analytic derivatives used.
 ITU=  0
     Eigenvalues ---    0.00131   0.04490   0.05601   0.05748   0.11227
     Eigenvalues ---    0.12560   0.13456   0.16164   0.22620   0.28948
     Eigenvalues ---    0.30147   0.33514   0.34162   0.35287   0.89312
 Angle between quadratic step and forces=  77.90 degrees.
 Linear search not attempted -- first point.
 Iteration  1 RMS(Cart)=  0.00010569 RMS(Int)=  0.00000001
 Iteration  2 RMS(Cart)=  0.00000001 RMS(Int)=  0.00000000
 ITry= 1 IFail=0 DXMaxC= 2.15D-04 DCOld= 1.00D+10 DXMaxT= 3.00D-01 DXLimC= 3.00D+00 Rises=F
 Variable       Old X    -DE/DX   Delta X   Delta X   Delta X     New X
                                 (Linear)    (Quad)   (Total)
    R1        2.84986   0.00000   0.00000   0.00000   0.00000   2.84985
    R2        2.10551   0.00000   0.00000  -0.00001  -0.00001   2.10550
    R3        2.28732   0.00002   0.00000   0.00002   0.00002   2.28734
    R4        2.07491   0.00000   0.00000  -0.00001  -0.00001   2.07490
    R5        2.06411   0.00000   0.00000   0.00000   0.00000   2.06412
    R6        2.07492   0.00000   0.00000  -0.00001  -0.00001   2.07490
    A1        2.00288   0.00001   0.00000   0.00006   0.00006   2.00295
    A2        2.17645   0.00000   0.00000  -0.00004  -0.00004   2.17641
    A3        2.10385   0.00000   0.00000  -0.00003  -0.00003   2.10383
    A4        1.91613   0.00000   0.00000   0.00003   0.00003   1.91617
    A5        1.92801  -0.00001   0.00000  -0.00008  -0.00008   1.92794
    A6        1.91614   0.00000   0.00000   0.00003   0.00003   1.91617
    A7        1.91995   0.00000   0.00000   0.00001   0.00001   1.91996
    A8        1.86259   0.00000   0.00000   0.00000   0.00000   1.86260
    A9        1.91995   0.00000   0.00000   0.00000   0.00000   1.91996
    D1        1.02100   0.00000   0.00000   0.00022   0.00022   1.02123
    D2        3.14138   0.00000   0.00000   0.00021   0.00021   3.14159
    D3       -1.02141   0.00000   0.00000   0.00019   0.00019  -1.02123
    D4       -2.12059   0.00000   0.00000   0.00022   0.00022  -2.12037
    D5       -0.00021   0.00000   0.00000   0.00021   0.00021   0.00000
    D6        2.12018   0.00000   0.00000   0.00018   0.00018   2.12037
         Item               Value     Threshold  Converged?
 Maximum Force            0.000017     0.000450     YES
 RMS     Force            0.000005     0.000300     YES
 Maximum Displacement     0.000215     0.001800     YES
 RMS     Displacement     0.000106     0.001200     YES
 Predicted change in Energy=-1.173889D-09
 Optimization completed.
    -- Stationary point found.
                           ----------------------------
                           !   Optimized Parameters   !
                           ! (Angstroms and Degrees)  !
 --------------------------                            --------------------------
 ! Name  Definition              Value          Derivative Info.                !
 --------------------------------------------------------------------------------
 ! R1    R(1,2)                  1.5081         -DE/DX =    0.0                 !
 ! R2    R(1,3)                  1.1142         -DE/DX =    0.0                 !
 ! R3    R(1,7)                  1.2104         -DE/DX =    0.0                 !
 ! R4    R(2,4)                  1.098          -DE/DX =    0.0                 !
 ! R5    R(2,5)                  1.0923         -DE/DX =    0.0                 !
 ! R6    R(2,6)                  1.098          -DE/DX =    0.0                 !
 ! A1    A(2,1,3)              114.7568         -DE/DX =    0.0                 !
 ! A2    A(2,1,7)              124.7013         -DE/DX =    0.0                 !
 ! A3    A(3,1,7)              120.5419         -DE/DX =    0.0                 !
 ! A4    A(1,2,4)              109.7863         -DE/DX =    0.0                 !
 ! A5    A(1,2,5)              110.4671         -DE/DX =    0.0                 !
 ! A6    A(1,2,6)              109.7865         -DE/DX =    0.0                 !
 ! A7    A(4,2,5)              110.005          -DE/DX =    0.0                 !
 ! A8    A(4,2,6)              106.7187         -DE/DX =    0.0                 !
 ! A9    A(5,2,6)              110.0052         -DE/DX =    0.0                 !
 ! D1    D(3,1,2,4)             58.4991         -DE/DX =    0.0                 !
 ! D2    D(3,1,2,5)            179.988          -DE/DX =    0.0                 !
 ! D3    D(3,1,2,6)            -58.5226         -DE/DX =    0.0                 !
 ! D4    D(7,1,2,4)           -121.5009         -DE/DX =    0.0                 !
 ! D5    D(7,1,2,5)             -0.0119         -DE/DX =    0.0                 !
 ! D6    D(7,1,2,6)            121.4774         -DE/DX =    0.0                 !
 --------------------------------------------------------------------------------
 GradGradGradGradGradGradGradGradGradGradGradGradGradGradGradGradGradGrad

 Leave Link  103 at Sun Aug  4 14:36:25 2019, MaxMem=  4294967296 cpu:              24.8 elap:               1.9
 (Enter /home/cwagen/sw/g16/g16/l9999.exe)

 ----------------------------------------------------------------------

 Electric dipole moment (input orientation):
 (Debye = 10**-18 statcoulomb cm , SI units = C m)
                  (au)            (Debye)         (10**-30 SI)
   Tot        0.103599D+01      0.263323D+01      0.878352D+01
   x          0.816044D+00      0.207418D+01      0.691871D+01
   y         -0.469596D+00     -0.119359D+01     -0.398140D+01
   z         -0.432245D+00     -0.109866D+01     -0.366472D+01

 Dipole polarizability, Alpha (input orientation).
 (esu units = cm**3 , SI units = C**2 m**2 J**-1)
 Alpha(0;0):
               (au)            (10**-24 esu)      (10**-40 SI)
   iso        0.237153D+02      0.351425D+01      0.391013D+01
   aniso      0.106396D+02      0.157662D+01      0.175423D+01
   xx         0.249556D+02      0.369805D+01      0.411463D+01
   yx        -0.377516D+01     -0.559421D+00     -0.622439D+00
   yy         0.241590D+02      0.358000D+01      0.398329D+01
   zx        -0.447918D+01     -0.663746D+00     -0.738517D+00
   zy        -0.106442D+01     -0.157731D+00     -0.175499D+00
   zz         0.220313D+02      0.326470D+01      0.363247D+01

 ----------------------------------------------------------------------

 Dipole orientation:
     6         -4.52183341          0.65810022         -6.72891729
     6         -4.07589586          2.62028089         -4.71083158
     1         -4.95981365         -1.26928331         -6.00327322
     1         -2.50276127          2.03054106         -3.49316999
     1         -3.65912998          4.45249761         -5.56514873
     1         -5.74966412          2.76889423         -3.49358418
     8         -4.43052751          1.06006338         -8.97878915

 Electric dipole moment (dipole orientation):
 (Debye = 10**-18 statcoulomb cm , SI units = C m)
                  (au)            (Debye)         (10**-30 SI)
   Tot        0.103599D+01      0.263323D+01      0.878352D+01
   x          0.000000D+00      0.000000D+00      0.000000D+00
   y          0.000000D+00      0.000000D+00      0.000000D+00
   z          0.103599D+01      0.263323D+01      0.878352D+01

 Dipole polarizability, Alpha (dipole orientation).
 (esu units = cm**3 , SI units = C**2 m**2 J**-1)
 Alpha(0;0):
               (au)            (10**-24 esu)      (10**-40 SI)
   iso        0.237153D+02      0.351425D+01      0.391013D+01
   aniso      0.106396D+02      0.157662D+01      0.175423D+01
   xx         0.176316D+02      0.261274D+01      0.290706D+01
   yx         0.152453D+01      0.225912D+00      0.251361D+00
   yy         0.239941D+02      0.355556D+01      0.395609D+01
   zx         0.283796D-01      0.420543D-02      0.467917D-02
   zy         0.124650D+00      0.184712D-01      0.205520D-01
   zz         0.295202D+02      0.437445D+01      0.486723D+01

 ----------------------------------------------------------------------
 1\1\GINC-NODE060\Freq\RB3LYP\GenECP\C2H4O1\CWAGEN\04-Aug-2019\0\\#P Ge
 om=AllCheck Guess=TCheck SCRF=Check GenChk RB3LYP/GenECP Freq\\Title C
 ard Required\\0,1\C,-4.2378078343,0.7134355516,-0.2413165472\C,-3.5255
 35112,-0.5989901786,-0.0303444751\H,-3.8086871176,1.3530514404,-1.0464
 050334\H,-2.4713417549,-0.4145065745,0.2150809208\H,-4.0019144886,-1.1
 675109254,0.7714833617\H,-3.5359180747,-1.1813489506,-0.961124204\O,-5
 .2020433779,1.0834029472,0.3899019773\\Version=AS64L-G16RevA.03\State=
 1-A\HF=-153.832571\RMSD=1.587e-09\RMSF=6.365e-06\ZeroPoint=0.0558543\T
 hermal=0.0597432\Dipole=0.8160442,-0.4695957,-0.4322447\DipoleDeriv=0.
 7809419,-0.296609,-0.3776635,-0.37546,0.8961425,-0.1467043,-0.3262881,
 -0.2180575,0.5871354,-0.0796677,0.1895473,0.0176146,0.2188723,-0.28023
 31,0.0343471,-0.0014537,0.0608433,0.0379943,-0.0317058,-0.0472967,0.09
 68674,-0.0273783,-0.1401705,0.143045,0.083887,0.1610559,-0.1395597,-0.
 0666484,-0.0283445,-0.0360421,-0.043676,0.0388675,-0.0091926,-0.040885
 7,0.0278312,0.0867526,0.0357561,-0.0361913,0.0602874,-0.0061529,0.0121
 347,0.047398,0.040692,0.0745943,-0.0091654,0.0972127,-0.0078411,-0.009
 3963,0.0264924,0.0191668,-0.0428855,-0.0169595,-0.0626844,-0.0573696,-
 0.7358888,0.2267353,0.2483326,0.2073024,-0.5459079,-0.0260076,0.261008
 ,-0.0435828,-0.5057876\Polar=24.9556456,-3.775157,24.1590293,-4.479180
 4,-1.0644201,22.031287\Quadrupole=-0.5820104,0.0503616,0.5316488,0.995
 2998,0.5738968,-0.4317309\PG=C01 [X(C2H4O1)]\NImag=0\\0.71409990,-0.17
 922245,0.51400171,-0.33866686,-0.03556850,0.54022084,-0.09892030,0.031
 09784,-0.01030894,0.53863645,0.03049986,-0.18223971,0.03388563,0.03926
 157,0.49699437,-0.00992109,0.03335252,-0.10067091,-0.03961838,-0.01850
 110,0.57103532,-0.07831945,-0.04154730,0.04151792,0.01372529,0.0120791
 0,-0.00467524,0.08394311,-0.03643409,-0.15089415,0.09066354,-0.0074730
 3,-0.01007945,0.02458205,0.03725007,0.14012017,0.03818549,0.09528793,-
 0.15900909,0.00806799,0.00689214,0.00547122,-0.08016118,-0.11057261,0.
 16675858,-0.01651280,-0.00403329,-0.00033472,-0.28886654,-0.04608307,-
 0.05847853,0.00136321,0.00136402,0.00037589,0.31376029,0.03222783,0.01
 046990,0.00584230,-0.04128774,-0.05313093,-0.00305419,-0.00337125,-0.0
 0069188,-0.00132616,0.04660152,0.05539575,-0.00208562,-0.00368314,-0.0
 0214150,-0.05749539,-0.00483357,-0.05862067,0.00077072,0.00042418,0.00
 003128,0.06326328,0.01032106,0.05953028,0.00856342,0.00914097,-0.01461
 255,-0.10422675,-0.06435784,0.09022517,-0.00058835,0.00364440,0.000380
 85,-0.01059376,-0.01520503,0.02363408,0.10636031,-0.01758551,-0.017095
 74,0.02641063,-0.06176880,-0.12258098,0.10264364,0.00392654,-0.0043666
 7,0.00089462,-0.00122061,-0.00293361,0.00232600,0.06790866,0.13049428,
 0.00281295,0.00221948,-0.00498896,0.08853758,0.10498749,-0.19948143,0.
 00019657,0.00114951,0.00152959,-0.00370358,-0.00601765,0.00775668,-0.0
 9745951,-0.11550862,0.21111555,-0.00226122,0.00895449,0.01785749,-0.03
 957116,-0.00197797,0.00031439,-0.00041872,-0.00100551,-0.00136820,0.00
 024002,-0.01866176,-0.02800701,-0.00011051,0.00928907,0.01117334,0.044
 88711,-0.00165644,-0.01197864,-0.02983218,-0.00450677,-0.12421584,-0.1
 1847142,0.00069149,0.00145140,0.00332648,-0.00045436,-0.00269693,-0.00
 403884,0.00165769,0.01134420,0.01498642,0.00085498,0.12899557,0.002886
 67,0.00290377,0.00605542,-0.00214840,-0.11463491,-0.23681971,0.0002176
 9,-0.00117470,-0.00033171,0.00010183,-0.00390777,-0.00684155,-0.002071
 84,-0.01292161,-0.01700453,0.00310012,0.13042061,0.25479194,-0.5266495
 6,0.17560975,0.30454766,-0.02077698,0.03057834,0.02215368,-0.01970509,
 0.00265414,0.03451916,0.00060957,-0.00030357,-0.00008007,0.00059564,-0
 .00054936,-0.00155735,-0.00276552,0.00341340,-0.00208606,0.56869193,0.
 17217079,-0.16226338,-0.09140141,0.04467694,-0.00474746,-0.02055149,-0
 .00902865,0.02446058,0.00549760,0.00382577,-0.00641231,-0.00051569,-0.
 00278886,0.00513854,-0.00181663,0.00254671,-0.00289977,-0.00068539,-0.
 21140271,0.14672381,0.30678846,-0.09451205,-0.27946581,0.01296553,-0.0
 0779567,0.01908618,0.04213352,-0.00507197,-0.01444987,-0.00122416,-0.0
 0185758,0.00028548,-0.00009620,-0.00384466,0.00107310,-0.00307013,0.00
 360893,0.00015014,-0.35749702,0.10947301,0.27332077\\-0.00001667,0.000
 00672,0.00001109,-0.00000572,0.00000085,0.00000218,0.00000438,-0.00000
 136,-0.00000181,0.00000097,0.00000190,0.00000111,0.00000398,-0.0000021
 1,0.00000052,-0.00000061,-0.00000133,-0.00000342,0.00001367,-0.0000046
 8,-0.00000966\\\@



 WE LOSE BECAUSE WE WIN

 GAMBLERS,

 RECOLLECTING WHICH,

 TOSS THEIR DICE AGAIN....


                          EMILY DICKINSON  BOLTS OF MELODY NO. 533
 Job cpu time:       0 days  0 hours  6 minutes 53.1 seconds.
 Elapsed time:       0 days  0 hours  0 minutes 31.8 seconds.
 File lengths (MBytes):  RWF=      6 Int=      0 D2E=      0 Chk=      1 Scr=      1
 Normal termination of Gaussian 16 at Sun Aug  4 14:36:25 2019.
