
                                 *****************
                                 * O   R   C   A *
                                 *****************

           --- An Ab Initio, DFT and Semiempirical electronic structure package ---

                  #######################################################
                  #                        -***-                        #
                  #          Department of theory and spectroscopy      #
                  #               Directorship: Frank Neese             #
                  #        Max Planck Institute fuer Kohlenforschung    #
                  #                Kaiser Wilhelm Platz 1               #
                  #                 D-45470 Muelheim/Ruhr               #
                  #                      Germany                        #
                  #                                                     #
                  #                  All rights reserved                #
                  #                        -***-                        #
                  #######################################################


                         Program Version 4.1.2  - RELEASE  -


 With contributions from (in alphabetic order):
   Daniel Aravena         : Magnetic Properties
   Michael Atanasov       : Ab Initio Ligand Field Theory
   Alexander A. Auer      : GIAO ZORA
   Ute Becker             : Parallelization
   Giovanni Bistoni       : ED, Open-shell LED
   Martin Brehm           : Molecular dynamics
   Dmytro Bykov           : SCF Hessian
   Vijay G. Chilkuri      : MRCI spin determinant printing
   Dipayan Datta          : RHF DLPNO-CCSD density
   Achintya Kumar Dutta   : EOM-CC, STEOM-CC
   Dmitry Ganyushin       : Spin-Orbit,Spin-Spin,Magnetic field MRCI
   Miquel Garcia          : C-PCM Hessian
   Yang Guo               : DLPNO-NEVPT2, CIM, IAO-localization
   Andreas Hansen         : Spin unrestricted coupled pair/coupled cluster methods
   Benjamin Helmich-Paris : CASSCF linear response (MC-RPA)
   Lee Huntington         : MR-EOM, pCC
   Robert Izsak           : Overlap fitted RIJCOSX, COSX-SCS-MP3, EOM
   Christian Kollmar      : KDIIS, OOCD, Brueckner-CCSD(T), CCSD density
   Simone Kossmann        : Meta GGA functionals, TD-DFT gradient, OOMP2, MP2 Hessian
   Martin Krupicka        : AUTO-CI
   Lucas Lang             : DCDCAS
   Dagmar Lenk            : GEPOL surface, SMD
   Dimitrios Liakos       : Extrapolation schemes; parallel MDCI
   Dimitrios Manganas     : ROCIS; embedding schemes
   Dimitrios Pantazis     : SARC Basis sets
   Taras Petrenko         : DFT Hessian,TD-DFT gradient, ASA, ECA, R-Raman, ABS, FL, XAS/XES, NRVS
   Peter Pinski           : DLPNO-MP2, DLPNO-MP2 Gradient
   Christoph Reimann      : Effective Core Potentials
   Marius Retegan         : Local ZFS, SOC
   Christoph Riplinger    : Optimizer, TS searches, QM/MM, DLPNO-CCSD(T), (RO)-DLPNO pert. Triples
   Tobias Risthaus        : Range-separated hybrids, TD-DFT gradient, RPA, STAB
   Michael Roemelt        : Restricted open shell CIS
   Masaaki Saitow         : Open-shell DLPNO
   Barbara Sandhoefer     : DKH picture change effects
   Avijit Sen             : IP-ROCIS
   Kantharuban Sivalingam : CASSCF convergence, NEVPT2, FIC-MRCI
   Bernardo de Souza      : ESD, SOC TD-DFT
   Georgi Stoychev        : AutoAux, RI-MP2 NMR
   Willem Van den Heuvel  : Paramagnetic NMR
   Boris Wezisla          : Elementary symmetry handling
   Frank Wennmohs         : Technical directorship


 We gratefully acknowledge several colleagues who have allowed us to
 interface, adapt or use parts of their codes:
   Stefan Grimme, W. Hujo, H. Kruse,             : VdW corrections, initial TS optimization,
                  C. Bannwarth                     DFT functionals, gCP, sTDA/sTD-DF
   Ed Valeev                                     : LibInt (2-el integral package), F12 methods
   Garnet Chan, S. Sharma, J. Yang, R. Olivares  : DMRG
   Ulf Ekstrom                                   : XCFun DFT Library
   Mihaly Kallay                                 : mrcc  (arbitrary order and MRCC methods)
   Andreas Klamt, Michael Diedenhofen            : otool_cosmo (COSMO solvation model)
   Jiri Pittner, Ondrej Demel                    : Mk-CCSD
   Frank Weinhold                                : gennbo (NPA and NBO analysis)
   Christopher J. Cramer and Donald G. Truhlar   : smd solvation model
   Lars Goerigk                                  : TD-DFT with DH, B97 family of functionals
   V. Asgeirsson, H. Jonsson                     : NEB implementation
   FAccTs GmbH                                   : IRC, NEB, NEB-TS, Multilevel


 Your calculation uses the libint2 library for the computation of 2-el integrals
 For citations please refer to: http://libint.valeyev.net

 This ORCA versions uses:
   CBLAS   interface :  Fast vector & matrix operations
   LAPACKE interface :  Fast linear algebra routines
   SCALAPACK package :  Parallel linear algebra routines


Your calculation utilizes the atom-pairwise dispersion correction
with the zero-damping scheme (D30)
Cite in your paper:
S.Grimme, J.Antony, S.Ehrlich and H.Krieg, J.Chem.Phys., 132, (2010), 154104 
   

XCFun DFT library Copyright 2009-2010 Ulf Ekstrom and contributors.
See http://admol.org/xcfun for more information. This is free soft-
ware; see the source code for copying conditions. There is ABSOLUTELY
NO WARRANTY; not even for MERCHANTABILITY or FITNESS FOR A PARTICULAR
PURPOSE. For details see the documentation. Scientific users of this 
library should cite U. Ekstrom, L. Visscher, R. Bast, A. J. Thorvald-
sen and K. Ruud; J.Chem.Theor.Comp. 2010, DOI: 10.1021/ct100117s
XCFun Version 0.99 
----- Orbital basis set information -----
Your calculation utilizes the basis: def2-TZVP
   F. Weigend and R. Ahlrichs, Phys. Chem. Chem. Phys. 7, 3297 (2005).

----- AuxJ basis set information -----
Your calculation utilizes the auxiliary basis: def2/J
   F. Weigend, Phys. Chem. Chem. Phys. 8, 1057 (2006).

================================================================================
                                        WARNINGS
                       Please study these warnings very carefully!
================================================================================


WARNING: Geometry Optimization
  ===> : Switching off AutoStart
         For restart on a previous wavefunction, please use MOREAD

INFO   : the flag for use of LIBINT has been found!

================================================================================
                                       INPUT FILE
================================================================================
NAME = AcOH.inp
|  1> ! wB97X-D3 def2-TZVP def2/J RIJCOSX xyzfile Opt Freq
|  2> %base "optimization"
|  3> %pal nproc 16 end
|  4> %maxcore 4000
|  5> 
|  6> * xyz 0 1
|  7>  6          0.09239300    0.12569400    0.00000600
|  8>  8          0.64612800    1.20164500   -0.00000900
|  9>  6         -1.39691800   -0.10917100   -0.00001000
| 10>  1         -1.68362200   -0.69139400   -0.88181500
| 11>  1         -1.68372600   -0.69056100    0.88232600
| 12>  1         -1.91625600    0.84916300   -0.00040900
| 13>  8          0.77741300   -1.04700200   -0.00001800
| 14>  1          1.72241800   -0.80349100    0.00013500
| 15> *
| 16> 
| 17> 
| 18>                          ****END OF INPUT****
================================================================================

                       *****************************
                       * Geometry Optimization Run *
                       *****************************

Geometry optimization settings:
Update method            Update   .... BFGS
Choice of coordinates    CoordSys .... Z-matrix Internals
Initial Hessian          InHess   .... Almoef's Model

Convergence Tolerances:
Energy Change            TolE     ....  5.0000e-06 Eh
Max. Gradient            TolMAXG  ....  3.0000e-04 Eh/bohr
RMS Gradient             TolRMSG  ....  1.0000e-04 Eh/bohr
Max. Displacement        TolMAXD  ....  4.0000e-03 bohr
RMS Displacement         TolRMSD  ....  2.0000e-03 bohr

------------------------------------------------------------------------------
                        ORCA OPTIMIZATION COORDINATE SETUP
------------------------------------------------------------------------------

The optimization will be done in new redundant internal coordinates
Making redundant internal coordinates   ...  (new redundants) done
Evaluating the initial hessian          ...  (Almloef) done
Evaluating the coordinates              ...  done
Calculating the B-matrix                .... done
Calculating the G-matrix                .... done
Diagonalizing the G-matrix              .... done
The first mode is                       ....    7
The number of degrees of freedom        ....   18

    -----------------------------------------------------------------
                    Redundant Internal Coordinates


    -----------------------------------------------------------------
         Definition                    Initial Value    Approx d2E/dq
    -----------------------------------------------------------------
      1. B(O   1,C   0)                  1.2101         1.083744   
      2. B(C   2,C   0)                  1.5077         0.405443   
      3. B(H   3,C   2)                  1.0949         0.353702   
      4. B(H   4,C   2)                  1.0949         0.353685   
      5. B(H   5,C   2)                  1.0900         0.360090   
      6. B(O   6,C   0)                  1.3581         0.629145   
      7. B(H   7,O   6)                  0.9759         0.490500   
      8. A(O   1,C   0,O   6)          122.4766         0.475420   
      9. A(C   2,C   0,O   6)          111.3292         0.400891   
     10. A(O   1,C   0,C   2)          126.1942         0.441743   
     11. A(C   0,C   2,H   4)          109.9659         0.327746   
     12. A(H   3,C   2,H   5)          110.0276         0.290021   
     13. A(H   4,C   2,H   5)          110.0198         0.290019   
     14. A(C   0,C   2,H   3)          109.9687         0.327749   
     15. A(H   3,C   2,H   4)          107.3418         0.289206   
     16. A(C   0,C   2,H   5)          109.4923         0.328718   
     17. A(C   0,O   6,H   7)          105.8412         0.367351   
     18. D(H   3,C   2,C   0,O   1)    121.0280         0.012185   
     19. D(H   4,C   2,C   0,O   6)     59.0275         0.012185   
     20. D(H   3,C   2,C   0,O   6)    -58.9693         0.012185   
     21. D(H   5,C   2,C   0,O   1)      0.0207         0.012185   
     22. D(H   5,C   2,C   0,O   6)   -179.9766         0.012185   
     23. D(H   4,C   2,C   0,O   1)   -120.9752         0.012185   
     24. D(H   7,O   6,C   0,O   1)      0.0111         0.029103   
     25. D(H   7,O   6,C   0,C   2)   -179.9914         0.029103   
    -----------------------------------------------------------------

Number of atoms                         .... 8
Number of degrees of freedom            .... 25

         *************************************************************
         *                GEOMETRY OPTIMIZATION CYCLE   1            *
         *************************************************************
---------------------------------
CARTESIAN COORDINATES (ANGSTROEM)
---------------------------------
  C      0.092393    0.125694    0.000006
  O      0.646128    1.201645   -0.000009
  C     -1.396918   -0.109171   -0.000010
  H     -1.683622   -0.691394   -0.881815
  H     -1.683726   -0.690561    0.882326
  H     -1.916256    0.849163   -0.000409
  O      0.777413   -1.047002   -0.000018
  H      1.722418   -0.803491    0.000135

----------------------------
CARTESIAN COORDINATES (A.U.)
----------------------------
  NO LB      ZA    FRAG     MASS         X           Y           Z
   0 C     6.0000    0    12.011    0.174597    0.237527    0.000011
   1 O     8.0000    0    15.999    1.221005    2.270780   -0.000017
   2 C     6.0000    0    12.011   -2.639792   -0.206303   -0.000019
   3 H     1.0000    0     1.008   -3.181584   -1.306545   -1.666389
   4 H     1.0000    0     1.008   -3.181781   -1.304971    1.667355
   5 H     1.0000    0     1.008   -3.621199    1.604686   -0.000773
   6 O     8.0000    0    15.999    1.469098   -1.978547   -0.000034
   7 H     1.0000    0     1.008    3.254898   -1.518378    0.000255

--------------------------------
INTERNAL COORDINATES (ANGSTROEM)
--------------------------------
 C      0   0   0     0.000000000000     0.00000000     0.00000000
 O      1   0   0     1.210079751442     0.00000000     0.00000000
 C      1   2   0     1.507716426654   126.19424610     0.00000000
 H      3   1   2     1.094880296366   109.96872130   121.02800712
 H      3   1   2     1.094892678695   109.96593855   239.02483997
 H      3   1   2     1.090007418783   109.49227478     0.00000000
 O      1   2   3     1.358112038601   122.47655966   179.99707461
 H      7   1   2     0.975875033268   105.84120183     0.00000000

---------------------------
INTERNAL COORDINATES (A.U.)
---------------------------
 C      0   0   0     0.000000000000     0.00000000     0.00000000
 O      1   0   0     2.286719330430     0.00000000     0.00000000
 C      1   2   0     2.849171133990   126.19424610     0.00000000
 H      3   1   2     2.069023909558   109.96872130   121.02800712
 H      3   1   2     2.069047308769   109.96593855   239.02483997
 H      3   1   2     2.059815505441   109.49227478     0.00000000
 O      1   2   3     2.566459812137   122.47655966   179.99707461
 H      7   1   2     1.844136553807   105.84120183     0.00000000

---------------------
BASIS SET INFORMATION
---------------------
There are 3 groups of distinct atoms

 Group   1 Type C   : 11s6p2d1f contracted to 5s3p2d1f pattern {62111/411/11/1}
 Group   2 Type O   : 11s6p2d1f contracted to 5s3p2d1f pattern {62111/411/11/1}
 Group   3 Type H   : 5s1p contracted to 3s1p pattern {311/1}

Atom   0C    basis set group =>   1
Atom   1O    basis set group =>   2
Atom   2C    basis set group =>   1
Atom   3H    basis set group =>   3
Atom   4H    basis set group =>   3
Atom   5H    basis set group =>   3
Atom   6O    basis set group =>   2
Atom   7H    basis set group =>   3
-------------------------------
AUXILIARY BASIS SET INFORMATION
-------------------------------
There are 3 groups of distinct atoms

 Group   1 Type C   : 12s5p4d2f1g contracted to 6s4p3d1f1g pattern {711111/2111/211/2/1}
 Group   2 Type O   : 12s5p4d2f1g contracted to 6s4p3d1f1g pattern {711111/2111/211/2/1}
 Group   3 Type H   : 5s2p1d contracted to 3s1p1d pattern {311/2/1}

Atom   0C    basis set group =>   1
Atom   1O    basis set group =>   2
Atom   2C    basis set group =>   1
Atom   3H    basis set group =>   3
Atom   4H    basis set group =>   3
Atom   5H    basis set group =>   3
Atom   6O    basis set group =>   2
Atom   7H    basis set group =>   3


           ************************************************************
           *        Program running with 16 parallel MPI-processes    *
           *              working on a common directory               *
           ************************************************************
------------------------------------------------------------------------------
                           ORCA GTO INTEGRAL CALCULATION
                           -- RI-GTO INTEGRALS CHOSEN --
------------------------------------------------------------------------------

                         BASIS SET STATISTICS AND STARTUP INFO

Gaussian basis set:
 # of primitive gaussian shells          ...  104
 # of primitive gaussian functions       ...  216
 # of contracted shells                  ...   60
 # of contracted basis functions         ...  148
 Highest angular momentum                ...    3
 Maximum contraction depth               ...    6
Auxiliary gaussian basis set:
 # of primitive gaussian shells          ...  128
 # of primitive gaussian functions       ...  344
 # of contracted shells                  ...   80
 # of contracted aux-basis functions     ...  240
 Highest angular momentum                ...    4
 Maximum contraction depth               ...    7
Ratio of auxiliary to basis functions    ...  1.62
Integral package used                  ... LIBINT
 One Electron integrals                  ... done
 Ordering auxiliary basis shells         ... done
 Integral threshhold             Thresh  ...  2.500e-11
 Primitive cut-off               TCut    ...  2.500e-12
 Pre-screening matrix                    ... done
 Shell pair data                         ... 
 Ordering of the shell pairs             ... done (   0.000 sec) 1797 of 1830 pairs
 Determination of significant pairs      ... done (   0.000 sec)
 Creation of shell pair data             ... done (   0.000 sec)
 Storage of shell pair data              ... done (   0.027 sec)
 Shell pair data done in (   0.028 sec)
 Computing two index integrals           ... done
 Cholesky decomposition of the V-matrix  ... done


Timings:
 Total evaluation time                   ...   0.483 sec (  0.008 min)
 One electron matrix time                ...   0.075 sec (  0.001 min) = 15.6%
 Schwartz matrix evaluation time         ...   0.234 sec (  0.004 min) = 48.3%
 Two index repulsion integral time       ...   0.007 sec (  0.000 min) =  1.5%
 Cholesky decomposition of V             ...   0.099 sec (  0.002 min) = 20.4%
 Three index repulsion integral time     ...   0.000 sec (  0.000 min) =  0.0%



           ************************************************************
           *        Program running with 16 parallel MPI-processes    *
           *              working on a common directory               *
           ************************************************************
-------------------------------------------------------------------------------
                                 ORCA SCF
-------------------------------------------------------------------------------

------------
SCF SETTINGS
------------
Hamiltonian:
 Density Functional     Method          .... DFT(GTOs)
 Exchange Functional    Exchange        .... WB97X-D3
 Correlation Functional Correlation     .... WB97X-D3
 Gradients option       PostSCFGGA      .... off
 Hybrid DFT is turned on
   Fraction HF Exchange ScalHFX         ....  0.195728
   Scaling of DF-GGA-X  ScalDFX         ....  0.000000
   Scaling of DF-GGA-C  ScalDFC         ....  1.000000
   Scaling of DF-LDA-C  ScalLDAC        ....  1.000000
   Perturbative correction              ....  0.000000
   Density functional embedding theory  .... OFF
 Long-range corrected/Screened/Range-Separated Hybrid DFT is turned on
   Amount of maximum screened exact exchange              ....  0.804272
   Range separation parameter mu (erf(mu*r12)/r12)        ....  0.250000
 RI-approximation to the Coulomb term is turned on
   Number of auxiliary basis functions  .... 240
   RIJ-COSX (HFX calculated with COS-X)).... on


General Settings:
 Integral files         IntName         .... optimization
 Hartree-Fock type      HFTyp           .... RHF
 Total Charge           Charge          ....    0
 Multiplicity           Mult            ....    1
 Number of Electrons    NEL             ....   32
 Basis Dimension        Dim             ....  148
 Nuclear Repulsion      ENuc            ....    120.7615163448 Eh

Convergence Acceleration:
 DIIS                   CNVDIIS         .... on
   Start iteration      DIISMaxIt       ....    12
   Startup error        DIISStart       ....  0.200000
   # of expansion vecs  DIISMaxEq       ....     5
   Bias factor          DIISBfac        ....   1.050
   Max. coefficient     DIISMaxC        ....  10.000
 Newton-Raphson         CNVNR           .... off
 SOSCF                  CNVSOSCF        .... on
   Start iteration      SOSCFMaxIt      ....   150
   Startup grad/error   SOSCFStart      ....  0.003300
 Level Shifting         CNVShift        .... on
   Level shift para.    LevelShift      ....    0.2500
   Turn off err/grad.   ShiftErr        ....    0.0010
 Zerner damping         CNVZerner       .... off
 Static damping         CNVDamp         .... on
   Fraction old density DampFac         ....    0.7000
   Max. Damping (<1)    DampMax         ....    0.9800
   Min. Damping (>=0)   DampMin         ....    0.0000
   Turn off err/grad.   DampErr         ....    0.1000
 Fernandez-Rico         CNVRico         .... off

SCF Procedure:
 Maximum # iterations   MaxIter         ....   125
 SCF integral mode      SCFMode         .... Direct
   Integral package                     .... LIBINT
 Reset frequency        DirectResetFreq ....    20
 Integral Threshold     Thresh          ....  2.500e-11 Eh
 Primitive CutOff       TCut            ....  2.500e-12 Eh

Convergence Tolerance:
 Convergence Check Mode ConvCheckMode   .... Total+1el-Energy
 Convergence forced     ConvForced      .... 0
 Energy Change          TolE            ....  1.000e-08 Eh
 1-El. energy change                    ....  1.000e-05 Eh
 Orbital Gradient       TolG            ....  1.000e-05
 Orbital Rotation angle TolX            ....  1.000e-05
 DIIS Error             TolErr          ....  5.000e-07


Diagonalization of the overlap matrix:
Smallest eigenvalue                        ... 4.448e-04
Time for diagonalization                   ...    0.119 sec
Threshold for overlap eigenvalues          ... 1.000e-08
Number of eigenvalues below threshold      ... 0
Time for construction of square roots      ...    0.091 sec
Total time needed                          ...    0.210 sec

-------------------
DFT GRID GENERATION
-------------------

General Integration Accuracy     IntAcc      ...  4.340
Radial Grid Type                 RadialGrid  ... Gauss-Chebyshev
Angular Grid (max. acc.)         AngularGrid ... Lebedev-110
Angular grid pruning method      GridPruning ... 3 (G Style)
Weight generation scheme         WeightScheme... Becke
Basis function cutoff            BFCut       ...    1.0000e-11
Integration weight cutoff        WCut        ...    1.0000e-14
Grids for H and He will be reduced by one unit

# of grid points (after initial pruning)     ...   9920 (   0.0 sec)
# of grid points (after weights+screening)   ...   9557 (   0.0 sec)
nearest neighbour list constructed           ...    0.0 sec
Grid point re-assignment to atoms done       ...    0.0 sec
Grid point division into batches done        ...    0.0 sec
Reduced shell lists constructed in    0.0 sec

Total number of grid points                  ...     9557
Total number of batches                      ...      154
Average number of points per batch           ...       62
Average number of grid points per atom       ...     1195
Average number of shells per batch           ...    50.55 (84.24%)
Average number of basis functions per batch  ...   130.55 (88.21%)
Average number of large shells per batch     ...    47.36 (93.71%)
Average number of large basis fcns per batch ...   124.45 (95.33%)
Maximum spatial batch extension              ...   3.35,  2.85,  2.72 au
Average spatial batch extension              ...   0.13,  0.13,  0.13 au

Time for grid setup =    0.145 sec

------------------------------
INITIAL GUESS: MODEL POTENTIAL
------------------------------
Loading Hartree-Fock densities                     ... done
Calculating cut-offs                               ... done
Setting up the integral package                    ... done
Initializing the effective Hamiltonian             ... done
Starting the Coulomb interaction                   ... done (   0.0 sec)
Reading the grid                                   ... done
Mapping shells                                     ... done
Starting the XC term evaluation                    ... done (   0.0 sec)
  promolecular density results
     # of electrons  =     31.996793037
     EX              =    -27.695078747
     EC              =     -1.055134720
     EX+EC           =    -28.750213468
Transforming the Hamiltonian                       ... done (   0.0 sec)
Diagonalizing the Hamiltonian                      ... done (   0.0 sec)
Back transforming the eigenvectors                 ... done (   0.0 sec)
Now organizing SCF variables                       ... done
                      ------------------
                      INITIAL GUESS DONE (   0.4 sec)
                      ------------------
--------------------
COSX GRID GENERATION
--------------------

General Integration Accuracy     IntAcc      ...  3.340
Radial Grid Type                 RadialGrid  ... Gauss-Chebyshev
Angular Grid (max. acc.)         AngularGrid ... Lebedev-50
Angular grid pruning method      GridPruning ... 3 (G Style)
Weight generation scheme         WeightScheme... Becke
Basis function cutoff            BFCut       ...    1.0000e-11
Integration weight cutoff        WCut        ...    1.0000e-14
Grids for H and He will be reduced by one unit

# of grid points (after initial pruning)     ...   3600 (   0.0 sec)
# of grid points (after weights+screening)   ...   3485 (   0.0 sec)
nearest neighbour list constructed           ...    0.0 sec
Grid point re-assignment to atoms done       ...    0.0 sec
Grid point division into batches done        ...    0.0 sec
Reduced shell lists constructed in    0.0 sec

Total number of grid points                  ...     3485
Total number of batches                      ...       58
Average number of points per batch           ...       60
Average number of grid points per atom       ...      436
Average number of shells per batch           ...    45.40 (75.67%)
Average number of basis functions per batch  ...   115.80 (78.24%)
Average number of large shells per batch     ...    43.80 (96.48%)
Average number of large basis fcns per batch ...   114.20 (98.62%)
Maximum spatial batch extension              ...   3.21,  2.99,  3.46 au
Average spatial batch extension              ...   0.18,  0.17,  0.18 au

Overlap Fitting                  UseSFitting ... on
Constructing numerical overlap ... done (      0.0 sec)
Inverting numerical overlap    ... done (      0.0 sec)
Obtaining analytic overlap     ... done (      0.0 sec)
Final contraction and storage  ... done (      0.0 sec)


General Integration Accuracy     IntAcc      ...  3.670
Radial Grid Type                 RadialGrid  ... Gauss-Chebyshev
Angular Grid (max. acc.)         AngularGrid ... Lebedev-50
Angular grid pruning method      GridPruning ... 3 (G Style)
Weight generation scheme         WeightScheme... Becke
Basis function cutoff            BFCut       ...    1.0000e-11
Integration weight cutoff        WCut        ...    1.0000e-14
Grids for H and He will be reduced by one unit

# of grid points (after initial pruning)     ...   4616 (   0.0 sec)
# of grid points (after weights+screening)   ...   4463 (   0.2 sec)
nearest neighbour list constructed           ...    0.0 sec
Grid point re-assignment to atoms done       ...    0.0 sec
Grid point division into batches done        ...    0.0 sec
Reduced shell lists constructed in    0.0 sec

Total number of grid points                  ...     4463
Total number of batches                      ...       72
Average number of points per batch           ...       61
Average number of grid points per atom       ...      558
Average number of shells per batch           ...    47.50 (79.17%)
Average number of basis functions per batch  ...   120.83 (81.64%)
Average number of large shells per batch     ...    45.00 (94.74%)
Average number of large basis fcns per batch ...   118.33 (97.93%)
Maximum spatial batch extension              ...   3.31,  3.01,  3.69 au
Average spatial batch extension              ...   0.17,  0.16,  0.18 au

Overlap Fitting                  UseSFitting ... on
Constructing numerical overlap ... done (      0.0 sec)
Inverting numerical overlap    ... done (      0.0 sec)
Obtaining analytic overlap     ... done (      0.0 sec)
Final contraction and storage  ... done (      0.0 sec)


General Integration Accuracy     IntAcc      ...  4.010
Radial Grid Type                 RadialGrid  ... Gauss-Chebyshev
Angular Grid (max. acc.)         AngularGrid ... Lebedev-110
Angular grid pruning method      GridPruning ... 3 (G Style)
Weight generation scheme         WeightScheme... Becke
Basis function cutoff            BFCut       ...    1.0000e-11
Integration weight cutoff        WCut        ...    1.0000e-14
Grids for H and He will be reduced by one unit

# of grid points (after initial pruning)     ...   8452 (   0.0 sec)
# of grid points (after weights+screening)   ...   8141 (   0.0 sec)
nearest neighbour list constructed           ...    0.0 sec
Grid point re-assignment to atoms done       ...    0.0 sec
Grid point division into batches done        ...    0.0 sec
Reduced shell lists constructed in    0.0 sec

Total number of grid points                  ...     8141
Total number of batches                      ...      131
Average number of points per batch           ...       62
Average number of grid points per atom       ...     1018
Average number of shells per batch           ...    50.30 (83.83%)
Average number of basis functions per batch  ...   129.50 (87.50%)
Average number of large shells per batch     ...    47.30 (94.04%)
Average number of large basis fcns per batch ...   124.50 (96.14%)
Maximum spatial batch extension              ...   3.43,  2.82,  2.77 au
Average spatial batch extension              ...   0.15,  0.14,  0.14 au

Overlap Fitting                  UseSFitting ... on
Constructing numerical overlap ... done (      0.0 sec)
Inverting numerical overlap    ... done (      0.0 sec)
Obtaining analytic overlap     ... done (      0.0 sec)
Final contraction and storage  ... done (      0.0 sec)

Time for X-Grid setup             =    1.052 sec
--------------
SCF ITERATIONS
--------------
ITER       Energy         Delta-E        Max-DP      RMS-DP      [F,P]     Damp
               ***  Starting incremental Fock matrix formation  ***
  0   -228.9552799274   0.000000000000 0.04596494  0.00128998  0.2780491 0.7000
  1   -229.0275226232  -0.072242695774 0.02843033  0.00092884  0.1342534 0.7000
                               ***Turning on DIIS***
  2   -229.0591271859  -0.031604562711 0.05610281  0.00162792  0.0551187 0.0000
  3   -229.1103689511  -0.051241765202 0.01938974  0.00063194  0.0643833 0.0000
  4   -229.1190125311  -0.008643580062 0.00599659  0.00016377  0.0105456 0.0000
  5   -229.1192910286  -0.000278497418 0.00305304  0.00007190  0.0035899 0.0000
                      *** Initiating the SOSCF procedure ***
                           *** Shutting down DIIS ***
                      *** Re-Reading the Fockian *** 
                      *** Removing any level shift *** 
ITER      Energy       Delta-E        Grad      Rot      Max-DP    RMS-DP
  6   -229.11931489  -0.0000238600  0.000834  0.000834  0.001269  0.000030
               *** Restarting incremental Fock matrix formation ***
  7   -229.11932237  -0.0000074838  0.000247  0.000482  0.001104  0.000025
  8   -229.11932386  -0.0000014867  0.000381  0.000925  0.000659  0.000017
  9   -229.11932446  -0.0000006057  0.000116  0.000209  0.000209  0.000005
 10   -229.11932454  -0.0000000748  0.000032  0.000043  0.000069  0.000002
 11   -229.11932454  -0.0000000010  0.000015  0.000032  0.000040  0.000001
                  ***Gradient check signals convergence***
              ***Rediagonalizing the Fockian in SOSCF/NRSCF***

               *****************************************************
               *                     SUCCESS                       *
               *           SCF CONVERGED AFTER  12 CYCLES          *
               *****************************************************

Setting up the final grid:

General Integration Accuracy     IntAcc      ...  4.670
Radial Grid Type                 RadialGrid  ... Gauss-Chebyshev
Angular Grid (max. acc.)         AngularGrid ... Lebedev-302
Angular grid pruning method      GridPruning ... 3 (G Style)
Weight generation scheme         WeightScheme... Becke
Basis function cutoff            BFCut       ...    1.0000e-11
Integration weight cutoff        WCut        ...    1.0000e-14
Grids for H and He will be reduced by one unit

# of grid points (after initial pruning)     ...  38424 (   0.0 sec)
# of grid points (after weights+screening)   ...  36699 (   0.0 sec)
nearest neighbour list constructed           ...    0.0 sec
Grid point re-assignment to atoms done       ...    0.0 sec
Grid point division into batches done        ...    0.2 sec
Reduced shell lists constructed in    0.3 sec

Total number of grid points                  ...    36699
Total number of batches                      ...      577
Average number of points per batch           ...       63
Average number of grid points per atom       ...     4587
Average number of shells per batch           ...    53.08 (88.46%)
Average number of basis functions per batch  ...   137.71 (93.05%)
Average number of large shells per batch     ...    48.34 (91.08%)
Average number of large basis fcns per batch ...   127.71 (92.74%)
Maximum spatial batch extension              ...   2.91,  2.34,  3.77 au
Average spatial batch extension              ...   0.09,  0.09,  0.09 au

Final grid set up in    0.4 sec
Final integration                            ... done (   0.3 sec)
Change in XC energy                          ...    -0.000584065
Integrated number of electrons               ...    31.999976346
Previous integrated no of electrons          ...    32.000377848
Old exchange energy                            =     -8.978752771 Eh
New exchange energy                            =     -8.978539239 Eh
Exchange energy change after final integration =      0.000213532 Eh
Total energy after final integration           =   -229.119695079 Eh
Final COS-X integration done in                =     0.532 sec

----------------
TOTAL SCF ENERGY
----------------

Total Energy       :         -229.11969508 Eh           -6234.66387 eV

Components:
Nuclear Repulsion  :          120.76151634 Eh            3286.08792 eV
Electronic Energy  :         -349.88121142 Eh           -9520.75179 eV
One Electron Energy:         -551.43557177 Eh          -15005.32476 eV
Two Electron Energy:          201.55436035 Eh            5484.57298 eV

Virial components:
Potential Energy   :         -457.23776495 Eh          -12442.07213 eV
Kinetic Energy     :          228.11806988 Eh            6207.40826 eV
Virial Ratio       :            2.00439082


DFT components:
N(Alpha)           :       15.999988172921 electrons
N(Beta)            :       15.999988172921 electrons
N(Total)           :       31.999976345842 electrons
E(XC)              :      -20.494585237843 Eh       
DFET-embed. en.    :        0.000000000000 Eh       

---------------
SCF CONVERGENCE
---------------

  Last Energy change         ...   -5.3642e-09  Tolerance :   1.0000e-08
  Last MAX-Density change    ...    6.6613e-16  Tolerance :   1.0000e-07
  Last RMS-Density change    ...    1.9242e-17  Tolerance :   5.0000e-09
  Last Orbital Gradient      ...    1.5429e-06  Tolerance :   1.0000e-05
  Last Orbital Rotation      ...    2.0284e-06  Tolerance :   1.0000e-05

             **** THE GBW FILE WAS UPDATED (optimization.gbw) ****
             **** DENSITY FILE WAS UPDATED (optimization.scfp.tmp) ****
             **** ENERGY FILE WAS UPDATED (optimization.en.tmp) ****
----------------
ORBITAL ENERGIES
----------------

  NO   OCC          E(Eh)            E(eV) 
   0   2.0000     -19.285827      -524.7940 
   1   2.0000     -19.225622      -523.1558 
   2   2.0000     -10.418509      -283.5020 
   3   2.0000     -10.291181      -280.0373 
   4   2.0000      -1.227885       -33.4124 
   5   2.0000      -1.134969       -30.8841 
   6   2.0000      -0.878709       -23.9109 
   7   2.0000      -0.721262       -19.6266 
   8   2.0000      -0.600679       -16.3453 
   9   2.0000      -0.589043       -16.0287 
  10   2.0000      -0.579133       -15.7590 
  11   2.0000      -0.513586       -13.9754 
  12   2.0000      -0.500817       -13.6279 
  13   2.0000      -0.495327       -13.4785 
  14   2.0000      -0.426031       -11.5929 
  15   2.0000      -0.382209       -10.4004 
  16   0.0000       0.085057         2.3145 
  17   0.0000       0.112201         3.0532 
  18   0.0000       0.142758         3.8846 
  19   0.0000       0.191292         5.2053 
  20   0.0000       0.200181         5.4472 
  21   0.0000       0.219902         5.9838 
  22   0.0000       0.249938         6.8012 
  23   0.0000       0.286500         7.7961 
  24   0.0000       0.296411         8.0658 
  25   0.0000       0.317444         8.6381 
  26   0.0000       0.335245         9.1225 
  27   0.0000       0.376726        10.2512 
  28   0.0000       0.436793        11.8857 
  29   0.0000       0.448440        12.2027 
  30   0.0000       0.472175        12.8485 
  31   0.0000       0.489142        13.3102 
  32   0.0000       0.525649        14.3036 
  33   0.0000       0.533429        14.5154 
  34   0.0000       0.537475        14.6254 
  35   0.0000       0.565466        15.3871 
  36   0.0000       0.579795        15.7770 
  37   0.0000       0.628716        17.1082 
  38   0.0000       0.641077        17.4446 
  39   0.0000       0.666718        18.1423 
  40   0.0000       0.702855        19.1257 
  41   0.0000       0.731877        19.9154 
  42   0.0000       0.751072        20.4377 
  43   0.0000       0.860014        23.4022 
  44   0.0000       0.860651        23.4195 
  45   0.0000       0.913192        24.8492 
  46   0.0000       0.946746        25.7623 
  47   0.0000       1.008066        27.4309 
  48   0.0000       1.061192        28.8765 
  49   0.0000       1.065208        28.9858 
  50   0.0000       1.109745        30.1977 
  51   0.0000       1.135249        30.8917 
  52   0.0000       1.236736        33.6533 
  53   0.0000       1.405564        38.2473 
  54   0.0000       1.420366        38.6501 
  55   0.0000       1.467490        39.9324 
  56   0.0000       1.498686        40.7813 
  57   0.0000       1.586665        43.1753 
  58   0.0000       1.592200        43.3260 
  59   0.0000       1.595110        43.4051 
  60   0.0000       1.615672        43.9647 
  61   0.0000       1.676290        45.6142 
  62   0.0000       1.688527        45.9472 
  63   0.0000       1.706388        46.4332 
  64   0.0000       1.779185        48.4141 
  65   0.0000       1.876168        51.0531 
  66   0.0000       1.902052        51.7575 
  67   0.0000       1.906192        51.8701 
  68   0.0000       1.983896        53.9845 
  69   0.0000       2.023365        55.0586 
  70   0.0000       2.061593        56.0988 
  71   0.0000       2.157485        58.7082 
  72   0.0000       2.173244        59.1370 
  73   0.0000       2.195726        59.7487 
  74   0.0000       2.211221        60.1704 
  75   0.0000       2.259137        61.4742 
  76   0.0000       2.298885        62.5558 
  77   0.0000       2.348812        63.9144 
  78   0.0000       2.401386        65.3450 
  79   0.0000       2.433014        66.2057 
  80   0.0000       2.437562        66.3294 
  81   0.0000       2.458361        66.8954 
  82   0.0000       2.569091        69.9085 
  83   0.0000       2.593253        70.5660 
  84   0.0000       2.651225        72.1435 
  85   0.0000       2.752641        74.9032 
  86   0.0000       2.804958        76.3268 
  87   0.0000       2.816699        76.6463 
  88   0.0000       2.857384        77.7534 
  89   0.0000       2.878846        78.3374 
  90   0.0000       2.984710        81.2181 
  91   0.0000       3.015399        82.0532 
  92   0.0000       3.023640        82.2774 
  93   0.0000       3.054170        83.1082 
  94   0.0000       3.118350        84.8546 
  95   0.0000       3.177744        86.4708 
  96   0.0000       3.203764        87.1788 
  97   0.0000       3.229093        87.8681 
  98   0.0000       3.255496        88.5865 
  99   0.0000       3.287893        89.4681 
 100   0.0000       3.318649        90.3050 
 101   0.0000       3.337590        90.8204 
 102   0.0000       3.392629        92.3181 
 103   0.0000       3.449768        93.8730 
 104   0.0000       3.509422        95.4962 
 105   0.0000       3.573091        97.2287 
 106   0.0000       3.612500        98.3011 
 107   0.0000       3.755390       102.1894 
 108   0.0000       3.856907       104.9518 
 109   0.0000       3.884498       105.7026 
 110   0.0000       3.951115       107.5153 
 111   0.0000       3.963057       107.8403 
 112   0.0000       4.003621       108.9441 
 113   0.0000       4.190419       114.0271 
 114   0.0000       4.419396       120.2579 
 115   0.0000       4.432915       120.6257 
 116   0.0000       4.465595       121.5150 
 117   0.0000       4.553364       123.9033 
 118   0.0000       4.639127       126.2371 
 119   0.0000       4.798626       130.5773 
 120   0.0000       5.239178       142.5653 
 121   0.0000       5.269065       143.3785 
 122   0.0000       5.295805       144.1062 
 123   0.0000       5.462383       148.6390 
 124   0.0000       5.473321       148.9366 
 125   0.0000       5.585641       151.9930 
 126   0.0000       5.681074       154.5899 
 127   0.0000       5.834717       158.7707 
 128   0.0000       5.941576       161.6785 
 129   0.0000       5.958156       162.1297 
 130   0.0000       6.258247       170.2955 
 131   0.0000       6.284511       171.0102 
 132   0.0000       6.402400       174.2181 
 133   0.0000       6.451402       175.5516 
 134   0.0000       6.523127       177.5033 
 135   0.0000       6.555974       178.3971 
 136   0.0000       6.729745       183.1257 
 137   0.0000       6.783792       184.5964 
 138   0.0000       6.850831       186.4206 
 139   0.0000       6.905901       187.9191 
 140   0.0000       6.968625       189.6259 
 141   0.0000       7.170035       195.1066 
 142   0.0000       7.181133       195.4086 
 143   0.0000       7.380725       200.8397 
 144   0.0000      22.394579       609.3875 
 145   0.0000      23.252585       632.7350 
 146   0.0000      43.767248      1190.9674 
 147   0.0000      43.876212      1193.9324 

                    ********************************
                    * MULLIKEN POPULATION ANALYSIS *
                    ********************************

-----------------------
MULLIKEN ATOMIC CHARGES
-----------------------
   0 C :    0.333851
   1 O :   -0.355132
   2 C :   -0.356583
   3 H :    0.144352
   4 H :    0.144339
   5 H :    0.146304
   6 O :   -0.396238
   7 H :    0.339107
Sum of atomic charges:   -0.0000000

--------------------------------
MULLIKEN REDUCED ORBITAL CHARGES
--------------------------------
  0 C s       :     3.070829  s :     3.070829
      pz      :     0.721197  p :     2.299960
      px      :     0.875104
      py      :     0.703659
      dz2     :     0.006458  d :     0.270865
      dxz     :     0.030033
      dyz     :     0.069236
      dx2y2   :     0.097120
      dxy     :     0.068019
      f0      :     0.003105  f :     0.024495
      f+1     :     0.001079
      f-1     :     0.001438
      f+2     :     0.001597
      f-2     :     0.003902
      f+3     :     0.003635
      f-3     :     0.009739
  1 O s       :     3.834521  s :     3.834521
      pz      :     1.396127  p :     4.488245
      px      :     1.675056
      py      :     1.417063
      dz2     :     0.002649  d :     0.030517
      dxz     :     0.002278
      dyz     :     0.008976
      dx2y2   :     0.008004
      dxy     :     0.008610
      f0      :     0.000189  f :     0.001849
      f+1     :     0.000048
      f-1     :     0.000141
      f+2     :     0.000169
      f-2     :     0.000314
      f+3     :     0.000437
      f-3     :     0.000551
  2 C s       :     3.245222  s :     3.245222
      pz      :     1.071795  p :     3.068650
      px      :     0.914995
      py      :     1.081860
      dz2     :     0.005473  d :     0.039651
      dxz     :     0.008151
      dyz     :     0.006977
      dx2y2   :     0.007846
      dxy     :     0.011204
      f0      :     0.000205  f :     0.003060
      f+1     :     0.000221
      f-1     :     0.000854
      f+2     :     0.000226
      f-2     :     0.000005
      f+3     :     0.000941
      f-3     :     0.000608
  3 H s       :     0.834612  s :     0.834612
      pz      :     0.009559  p :     0.021036
      px      :     0.004904
      py      :     0.006574
  4 H s       :     0.834624  s :     0.834624
      pz      :     0.009565  p :     0.021037
      px      :     0.004905
      py      :     0.006567
  5 H s       :     0.832639  s :     0.832639
      pz      :     0.004159  p :     0.021057
      px      :     0.006047
      py      :     0.010851
  6 O s       :     3.777104  s :     3.777104
      pz      :     1.779288  p :     4.586203
      px      :     1.294663
      py      :     1.512253
      dz2     :     0.004379  d :     0.031258
      dxz     :     0.000402
      dyz     :     0.005372
      dx2y2   :     0.011815
      dxy     :     0.009291
      f0      :     0.000241  f :     0.001672
      f+1     :     0.000415
      f-1     :     0.000240
      f+2     :     0.000042
      f-2     :     0.000086
      f+3     :     0.000343
      f-3     :     0.000304
  7 H s       :     0.618136  s :     0.618136
      pz      :     0.014153  p :     0.042756
      px      :     0.018584
      py      :     0.010019


                     *******************************
                     * LOEWDIN POPULATION ANALYSIS *
                     *******************************

----------------------
LOEWDIN ATOMIC CHARGES
----------------------
   0 C :   -0.515118
   1 O :    0.083470
   2 C :   -0.263721
   3 H :    0.140072
   4 H :    0.140081
   5 H :    0.136428
   6 O :    0.077242
   7 H :    0.201546

-------------------------------
LOEWDIN REDUCED ORBITAL CHARGES
-------------------------------
  0 C s       :     2.774066  s :     2.774066
      pz      :     0.711298  p :     2.650367
      px      :     0.999835
      py      :     0.939235
      dz2     :     0.060011  d :     0.939446
      dxz     :     0.087117
      dyz     :     0.184330
      dx2y2   :     0.323102
      dxy     :     0.284886
      f0      :     0.009683  f :     0.151239
      f+1     :     0.006293
      f-1     :     0.012374
      f+2     :     0.010012
      f-2     :     0.025247
      f+3     :     0.025222
      f-3     :     0.062408
  1 O s       :     3.408264  s :     3.408264
      pz      :     1.316304  p :     4.435709
      px      :     1.597370
      py      :     1.522035
      dz2     :     0.008229  d :     0.066569
      dxz     :     0.002580
      dyz     :     0.011253
      dx2y2   :     0.020999
      dxy     :     0.023509
      f0      :     0.000423  f :     0.005988
      f+1     :     0.000265
      f-1     :     0.000811
      f+2     :     0.000340
      f-2     :     0.000486
      f+3     :     0.001849
      f-3     :     0.001815
  2 C s       :     2.834550  s :     2.834550
      pz      :     1.077632  p :     3.189937
      px      :     1.032913
      py      :     1.079392
      dz2     :     0.034493  d :     0.216289
      dxz     :     0.035508
      dyz     :     0.036412
      dx2y2   :     0.049650
      dxy     :     0.060227
      f0      :     0.001392  f :     0.022945
      f+1     :     0.003556
      f-1     :     0.003420
      f+2     :     0.002951
      f-2     :     0.001799
      f+3     :     0.005776
      f-3     :     0.004052
  3 H s       :     0.798362  s :     0.798362
      pz      :     0.028203  p :     0.061567
      px      :     0.013552
      py      :     0.019812
  4 H s       :     0.798354  s :     0.798354
      pz      :     0.028220  p :     0.061565
      px      :     0.013553
      py      :     0.019792
  5 H s       :     0.802248  s :     0.802248
      pz      :     0.013050  p :     0.061324
      px      :     0.016368
      py      :     0.031906
  6 O s       :     3.343663  s :     3.343663
      pz      :     1.663892  p :     4.506494
      px      :     1.284877
      py      :     1.557724
      dz2     :     0.009351  d :     0.067787
      dxz     :     0.001793
      dyz     :     0.007778
      dx2y2   :     0.029047
      dxy     :     0.019818
      f0      :     0.000279  f :     0.004813
      f+1     :     0.000675
      f-1     :     0.000488
      f+2     :     0.000172
      f-2     :     0.000264
      f+3     :     0.001151
      f-3     :     0.001785
  7 H s       :     0.653408  s :     0.653408
      pz      :     0.037564  p :     0.145046
      px      :     0.073914
      py      :     0.033569


                      *****************************
                      * MAYER POPULATION ANALYSIS *
                      *****************************

  NA   - Mulliken gross atomic population
  ZA   - Total nuclear charge
  QA   - Mulliken gross atomic charge
  VA   - Mayer's total valence
  BVA  - Mayer's bonded valence
  FA   - Mayer's free valence

  ATOM       NA         ZA         QA         VA         BVA        FA
  0 C      5.6661     6.0000     0.3339     4.2280     4.2280     0.0000
  1 O      8.3551     8.0000    -0.3551     2.1302     2.1302    -0.0000
  2 C      6.3566     6.0000    -0.3566     3.8223     3.8223    -0.0000
  3 H      0.8556     1.0000     0.1444     0.9725     0.9725    -0.0000
  4 H      0.8557     1.0000     0.1443     0.9725     0.9725    -0.0000
  5 H      0.8537     1.0000     0.1463     0.9807     0.9807    -0.0000
  6 O      8.3962     8.0000    -0.3962     2.0530     2.0530    -0.0000
  7 H      0.6609     1.0000     0.3391     0.9155     0.9155     0.0000

  Mayer bond orders larger than 0.1
B(  0-C ,  1-O ) :   2.0506 B(  0-C ,  2-C ) :   0.9730 B(  0-C ,  6-O ) :   1.1804 
B(  2-C ,  3-H ) :   0.9503 B(  2-C ,  4-H ) :   0.9503 B(  2-C ,  5-H ) :   0.9773 
B(  6-O ,  7-H ) :   0.8576 

-------
TIMINGS
-------

Total SCF time: 0 days 0 hours 0 min 23 sec 

Total time                  ....      23.304 sec
Sum of individual times     ....      19.766 sec  ( 84.8%)

Fock matrix formation       ....      15.772 sec  ( 67.7%)
  Split-RI-J                ....       4.102 sec  ( 26.0% of F)
  Chain of spheres X        ....       4.407 sec  ( 27.9% of F)
  COS-X 1 center corr.      ....       0.000 sec  (  0.0% of F)
  XC integration            ....       3.130 sec  ( 19.8% of F)
    Basis function eval.    ....       0.075 sec  (  2.4% of XC)
    Density eval.           ....       0.077 sec  (  2.5% of XC)
    XC-Functional eval.     ....       0.129 sec  (  4.1% of XC)
    XC-Potential eval.      ....       0.121 sec  (  3.9% of XC)
Diagonalization             ....       0.437 sec  (  1.9%)
Density matrix formation    ....       0.534 sec  (  2.3%)
Population analysis         ....       0.192 sec  (  0.8%)
Initial guess               ....       0.256 sec  (  1.1%)
Orbital Transformation      ....       0.000 sec  (  0.0%)
Orbital Orthonormalization  ....       0.000 sec  (  0.0%)
DIIS solution               ....       0.297 sec  (  1.3%)
SOSCF solution              ....       0.692 sec  (  3.0%)
Grid generation             ....       1.586 sec  (  6.8%)


-------------------------------------------------------------------------------
                          DFT DISPERSION CORRECTION                            
                                                                               
                              DFTD3 V3.1  Rev 1                                
                              USING zero damping                               
-------------------------------------------------------------------------------
The omegaB97X-D3 functional is recognized. Fit by Chai et al.
Active option DFTDOPT                   ...         3   

molecular C6(AA) [au] = 530.258357 


            DFT-D V3
 parameters
 s6 scaling factor         :     1.0000 
 rs6 scaling factor        :     1.2810 
 s8 scaling factor         :     1.0000 
 rs8 scaling factor        :     1.0940 
 Damping factor alpha6     :    14.0000 
 Damping factor alpha8     :    16.0000 
 ad hoc parameters k1-k3   :    16.0000     1.3333    -4.0000 

 Edisp/kcal,au: -0.703597005178  -0.001121253079 
 E6   /kcal   :  -0.245301363 
 E8   /kcal   :  -0.458295642 
 % E8         :  65.136099073 

-------------------------   ----------------
Dispersion correction           -0.001121253
-------------------------   ----------------


-------------------------   --------------------
FINAL SINGLE POINT ENERGY      -229.120816332194
-------------------------   --------------------



           ************************************************************
           *        Program running with 16 parallel MPI-processes    *
           *              working on a common directory               *
           ************************************************************
------------------------------------------------------------------------------
                         ORCA SCF GRADIENT CALCULATION
------------------------------------------------------------------------------

Gradient of the Kohn-Sham DFT energy:
Kohn-Sham wavefunction type      ... RKS
Hartree-Fock exchange scaling    ...    0.196
Number of operators              ...    1
Number of atoms                  ...    8
Basis set dimensions             ...  148
Integral neglect threshold       ... 2.5e-11
Integral primitive cutoff        ... 2.5e-12

Nuclear repulsion gradient       ... done
One Electron Gradient            ... done
Pre-screening matrix             ... done
RI-J gradient                    ... done
COSX-gradient                    ... done
Exchange-correlation gradient    ... done
Dispersion correction            ... done

------------------
CARTESIAN GRADIENT
------------------

   1   C   :   -0.005681019   -0.005919439    0.000012867
   2   O   :    0.008033739    0.019097915   -0.000005148
   3   C   :   -0.002550678   -0.001394883    0.000000790
   4   H   :   -0.001772265   -0.001725674   -0.002734020
   5   H   :   -0.001776721   -0.001716602    0.002739537
   6   H   :   -0.001587125    0.002495637    0.000011750
   7   O   :   -0.005764926   -0.012808331   -0.000008181
   8   H   :    0.008743348    0.003531542    0.000005786

Difference to translation invariance:
           :   -0.0023556473    0.0015601661    0.0000233826

Norm of the cartesian gradient     ...    0.0287609496
RMS gradient                       ...    0.0058708043
MAX gradient                       ...    0.0190979152

-------
TIMINGS
-------

Total SCF gradient time            ...        2.152 sec

One electron gradient       ....       0.015 sec  (  0.7%)
Prescreening matrices       ....       0.060 sec  (  2.8%)
RI-J Coulomb gradient       ....       0.409 sec  ( 19.0%)
COSX gradient               ....       0.588 sec  ( 27.3%)
XC gradient                 ....       0.283 sec  ( 13.1%)
------------------------------------------------------------------------------
                         ORCA GEOMETRY RELAXATION STEP
------------------------------------------------------------------------------

Reading the OPT-File                    .... done
Getting information on internals        .... done
Copying old internal coords+grads       .... done
Making the new internal coordinates     .... (new redundants).... done
Validating the new internal coordinates .... (new redundants).... done
Calculating the B-matrix                .... done
Calculating the G,G- and P matrices     .... done
Transforming gradient to internals      .... done
Projecting the internal gradient        .... done
Number of atoms                         ....   8
Number of internal coordinates          ....  25
Current Energy                          ....  -229.120816332 Eh
Current gradient norm                   ....     0.028760950 Eh/bohr
Maximum allowed component of the step   ....  0.300
Current trust radius                    ....  0.300
Evaluating the initial hessian          ....  (Almloef) done
Projecting the Hessian                  .... done
Forming the augmented Hessian           .... done
Diagonalizing the augmented Hessian     .... done
Last element of RFO vector              ....  0.999179692
Lowest eigenvalues of augmented Hessian:
 -0.000986050  0.012185438  0.016139902  0.029103489  0.136574674
Length of the computed step             ....  0.040529448
The final length of the internal step   ....  0.040529448
Converting the step to cartesian space:
 Initial RMS(Int)=    0.0081058896
Transforming coordinates:
 Iter   0:  RMS(Cart)=    0.0106745842 RMS(Int)=    0.0081064135
 Iter   1:  RMS(Cart)=    0.0000162467 RMS(Int)=    0.0000126689
 Iter   2:  RMS(Cart)=    0.0000001146 RMS(Int)=    0.0000000814
 Iter   3:  RMS(Cart)=    0.0000000006 RMS(Int)=    0.0000000005
done
Storing new coordinates                 .... done

                                .--------------------.
          ----------------------|Geometry convergence|-------------------------
          Item                value                   Tolerance       Converged
          ---------------------------------------------------------------------
          RMS gradient        0.0053445666            0.0001000000      NO
          MAX gradient        0.0205715661            0.0003000000      NO
          RMS step            0.0081058896            0.0020000000      NO
          MAX step            0.0191707679            0.0040000000      NO
          ........................................................
          Max(Bonds)      0.0101      Max(Angles)    0.29
          Max(Dihed)        0.10      Max(Improp)    0.00
          ---------------------------------------------------------------------

The optimization has not yet converged - more geometry cycles are needed


    ---------------------------------------------------------------------------
                         Redundant Internal Coordinates
                            (Angstroem and degrees)

        Definition                    Value    dE/dq     Step     New-Value
    ----------------------------------------------------------------------------
     1. B(O   1,C   0)                1.2101  0.020572 -0.0100    1.2000   
     2. B(C   2,C   0)                1.5077  0.006817 -0.0089    1.4988   
     3. B(H   3,C   2)                1.0949  0.003541 -0.0053    1.0896   
     4. B(H   4,C   2)                1.0949  0.003535 -0.0053    1.0896   
     5. B(H   5,C   2)                1.0900  0.002754 -0.0040    1.0860   
     6. B(O   6,C   0)                1.3581  0.010439 -0.0088    1.3493   
     7. B(H   7,O   6)                0.9759  0.009422 -0.0101    0.9657   
     8. A(O   1,C   0,O   6)          122.48  0.002230   -0.28    122.19   
     9. A(C   2,C   0,O   6)          111.33 -0.002147    0.29    111.62   
    10. A(O   1,C   0,C   2)          126.19 -0.000083   -0.01    126.19   
    11. A(C   0,C   2,H   4)          109.97  0.000913   -0.18    109.79   
    12. A(H   3,C   2,H   5)          110.03 -0.000296    0.09    110.11   
    13. A(H   4,C   2,H   5)          110.02 -0.000306    0.09    110.11   
    14. A(C   0,C   2,H   3)          109.97  0.000904   -0.18    109.79   
    15. A(H   3,C   2,H   4)          107.34 -0.000522    0.03    107.37   
    16. A(C   0,C   2,H   5)          109.49 -0.000677    0.14    109.64   
    17. A(C   0,O   6,H   7)          105.84 -0.001310    0.20    106.04   
    18. D(H   3,C   2,C   0,O   1)    121.03 -0.000231    0.10    121.13   
    19. D(H   4,C   2,C   0,O   6)     59.03  0.000232   -0.09     58.94   
    20. D(H   3,C   2,C   0,O   6)    -58.97 -0.000227    0.09    -58.88   
    21. D(H   5,C   2,C   0,O   1)      0.02 -0.000005    0.01      0.03   
    22. D(H   5,C   2,C   0,O   6)   -179.98 -0.000001   -0.00   -179.98   
    23. D(H   4,C   2,C   0,O   1)   -120.98  0.000228   -0.08   -121.05   
    24. D(H   7,O   6,C   0,O   1)      0.01  0.000006   -0.01     -0.00   
    25. D(H   7,O   6,C   0,C   2)   -179.99  0.000002   -0.00   -179.99   
    ----------------------------------------------------------------------------

         *************************************************************
         *                GEOMETRY OPTIMIZATION CYCLE   2            *
         *************************************************************
---------------------------------
CARTESIAN COORDINATES (ANGSTROEM)
---------------------------------
  C      0.088802    0.122919   -0.000044
  O      0.639580    1.189103    0.000067
  C     -1.392119   -0.108153   -0.000020
  H     -1.674983   -0.688549   -0.877716
  H     -1.675023   -0.687690    0.878256
  H     -1.910377    0.846176   -0.000450
  O      0.773366   -1.039881    0.000006
  H      1.708583   -0.799041    0.000106

----------------------------
CARTESIAN COORDINATES (A.U.)
----------------------------
  NO LB      ZA    FRAG     MASS         X           Y           Z
   0 C     6.0000    0    12.011    0.167811    0.232284   -0.000082
   1 O     8.0000    0    15.999    1.208632    2.247080    0.000127
   2 C     6.0000    0    12.011   -2.630725   -0.204380   -0.000038
   3 H     1.0000    0     1.008   -3.165259   -1.301169   -1.658643
   4 H     1.0000    0     1.008   -3.165334   -1.299546    1.659664
   5 H     1.0000    0     1.008   -3.610089    1.599040   -0.000850
   6 O     8.0000    0    15.999    1.461450   -1.965091    0.000011
   7 H     1.0000    0     1.008    3.228754   -1.509969    0.000201

--------------------------------
INTERNAL COORDINATES (ANGSTROEM)
--------------------------------
 C      0   0   0     0.000000000000     0.00000000     0.00000000
 O      1   0   0     1.200044072033     0.00000000     0.00000000
 C      1   2   0     1.498840447507   126.18887884     0.00000000
 H      3   1   2     1.089596977444   109.79207328   121.12561813
 H      3   1   2     1.089617655108   109.78803540   238.94609331
 H      3   1   2     1.085971763373   109.63605791     0.03162750
 O      1   2   3     1.349345669151   122.19346037   180.01080796
 H      7   1   2     0.965730299809   106.04496085     0.00000000

---------------------------
INTERNAL COORDINATES (A.U.)
---------------------------
 C      0   0   0     0.000000000000     0.00000000     0.00000000
 O      1   0   0     2.267754644778     0.00000000     0.00000000
 C      1   2   0     2.832397964233   126.18887884     0.00000000
 H      3   1   2     2.059039883718   109.79207328   121.12561813
 H      3   1   2     2.059078958839   109.78803540   238.94609331
 H      3   1   2     2.052189221946   109.63605791     0.03162750
 O      1   2   3     2.549893774689   122.19346037   180.01080796
 H      7   1   2     1.824965785868   106.04496085     0.00000000



           ************************************************************
           *        Program running with 16 parallel MPI-processes    *
           *              working on a common directory               *
           ************************************************************
 One Electron integrals                  ... done
 Pre-screening matrix                    ... done


           ************************************************************
           *        Program running with 16 parallel MPI-processes    *
           *              working on a common directory               *
           ************************************************************

Diagonalization of the overlap matrix:
Smallest eigenvalue                        ... 4.184e-04
Time for diagonalization                   ...    0.008 sec
Threshold for overlap eigenvalues          ... 1.000e-08
Number of eigenvalues below threshold      ... 0
Time for construction of square roots      ...    0.022 sec
Total time needed                          ...    0.030 sec

-------------------
DFT GRID GENERATION
-------------------

General Integration Accuracy     IntAcc      ...  4.340
Radial Grid Type                 RadialGrid  ... Gauss-Chebyshev
Angular Grid (max. acc.)         AngularGrid ... Lebedev-110
Angular grid pruning method      GridPruning ... 3 (G Style)
Weight generation scheme         WeightScheme... Becke
Basis function cutoff            BFCut       ...    1.0000e-11
Integration weight cutoff        WCut        ...    1.0000e-14
Grids for H and He will be reduced by one unit

# of grid points (after initial pruning)     ...   9920 (   0.0 sec)
# of grid points (after weights+screening)   ...   9555 (   0.0 sec)
nearest neighbour list constructed           ...    0.0 sec
Grid point re-assignment to atoms done       ...    0.0 sec
Grid point division into batches done        ...    0.0 sec
Reduced shell lists constructed in    0.0 sec

Total number of grid points                  ...     9555
Total number of batches                      ...      154
Average number of points per batch           ...       62
Average number of grid points per atom       ...     1194
Average number of shells per batch           ...    50.64 (84.39%)
Average number of basis functions per batch  ...   130.64 (88.27%)
Average number of large shells per batch     ...    47.45 (93.72%)
Average number of large basis fcns per batch ...   124.55 (95.34%)
Maximum spatial batch extension              ...   3.35,  2.85,  2.71 au
Average spatial batch extension              ...   0.13,  0.13,  0.13 au

Time for grid setup =    0.096 sec

--------------------
COSX GRID GENERATION
--------------------

General Integration Accuracy     IntAcc      ...  3.340
Radial Grid Type                 RadialGrid  ... Gauss-Chebyshev
Angular Grid (max. acc.)         AngularGrid ... Lebedev-50
Angular grid pruning method      GridPruning ... 3 (G Style)
Weight generation scheme         WeightScheme... Becke
Basis function cutoff            BFCut       ...    1.0000e-11
Integration weight cutoff        WCut        ...    1.0000e-14
Grids for H and He will be reduced by one unit

# of grid points (after initial pruning)     ...   3600 (   0.0 sec)
# of grid points (after weights+screening)   ...   3485 (   0.0 sec)
nearest neighbour list constructed           ...    0.0 sec
Grid point re-assignment to atoms done       ...    0.0 sec
Grid point division into batches done        ...    0.0 sec
Reduced shell lists constructed in    0.0 sec

Total number of grid points                  ...     3485
Total number of batches                      ...       58
Average number of points per batch           ...       60
Average number of grid points per atom       ...      436
Average number of shells per batch           ...    45.40 (75.67%)
Average number of basis functions per batch  ...   115.80 (78.24%)
Average number of large shells per batch     ...    43.20 (95.15%)
Average number of large basis fcns per batch ...   113.60 (98.10%)
Maximum spatial batch extension              ...   3.19,  2.99,  3.46 au
Average spatial batch extension              ...   0.16,  0.16,  0.18 au

Overlap Fitting                  UseSFitting ... on
Constructing numerical overlap ... done (      0.0 sec)
Inverting numerical overlap    ... done (      0.0 sec)
Obtaining analytic overlap     ... done (      0.0 sec)
Final contraction and storage  ... done (      0.0 sec)


General Integration Accuracy     IntAcc      ...  3.670
Radial Grid Type                 RadialGrid  ... Gauss-Chebyshev
Angular Grid (max. acc.)         AngularGrid ... Lebedev-50
Angular grid pruning method      GridPruning ... 3 (G Style)
Weight generation scheme         WeightScheme... Becke
Basis function cutoff            BFCut       ...    1.0000e-11
Integration weight cutoff        WCut        ...    1.0000e-14
Grids for H and He will be reduced by one unit

# of grid points (after initial pruning)     ...   4616 (   0.0 sec)
# of grid points (after weights+screening)   ...   4463 (   0.0 sec)
nearest neighbour list constructed           ...    0.0 sec
Grid point re-assignment to atoms done       ...    0.0 sec
Grid point division into batches done        ...    0.0 sec
Reduced shell lists constructed in    0.0 sec

Total number of grid points                  ...     4463
Total number of batches                      ...       72
Average number of points per batch           ...       61
Average number of grid points per atom       ...      558
Average number of shells per batch           ...    47.50 (79.17%)
Average number of basis functions per batch  ...   120.83 (81.64%)
Average number of large shells per batch     ...    45.00 (94.74%)
Average number of large basis fcns per batch ...   118.33 (97.93%)
Maximum spatial batch extension              ...   3.29,  2.90,  3.69 au
Average spatial batch extension              ...   0.17,  0.16,  0.18 au

Overlap Fitting                  UseSFitting ... on
Constructing numerical overlap ... done (      0.0 sec)
Inverting numerical overlap    ... done (      0.0 sec)
Obtaining analytic overlap     ... done (      0.0 sec)
Final contraction and storage  ... done (      0.0 sec)


General Integration Accuracy     IntAcc      ...  4.010
Radial Grid Type                 RadialGrid  ... Gauss-Chebyshev
Angular Grid (max. acc.)         AngularGrid ... Lebedev-110
Angular grid pruning method      GridPruning ... 3 (G Style)
Weight generation scheme         WeightScheme... Becke
Basis function cutoff            BFCut       ...    1.0000e-11
Integration weight cutoff        WCut        ...    1.0000e-14
Grids for H and He will be reduced by one unit

# of grid points (after initial pruning)     ...   8452 (   0.0 sec)
# of grid points (after weights+screening)   ...   8140 (   0.0 sec)
nearest neighbour list constructed           ...    0.0 sec
Grid point re-assignment to atoms done       ...    0.0 sec
Grid point division into batches done        ...    0.0 sec
Reduced shell lists constructed in    0.0 sec

Total number of grid points                  ...     8140
Total number of batches                      ...      131
Average number of points per batch           ...       62
Average number of grid points per atom       ...     1018
Average number of shells per batch           ...    50.10 (83.50%)
Average number of basis functions per batch  ...   129.30 (87.36%)
Average number of large shells per batch     ...    47.70 (95.21%)
Average number of large basis fcns per batch ...   125.50 (97.06%)
Maximum spatial batch extension              ...   3.42,  2.83,  2.76 au
Average spatial batch extension              ...   0.15,  0.14,  0.14 au

Overlap Fitting                  UseSFitting ... on
Constructing numerical overlap ... done (      0.0 sec)
Inverting numerical overlap    ... done (      0.0 sec)
Obtaining analytic overlap     ... done (      0.0 sec)
Final contraction and storage  ... done (      0.0 sec)

Time for X-Grid setup             =    0.874 sec
--------------
SCF ITERATIONS
--------------
ITER       Energy         Delta-E        Max-DP      RMS-DP      [F,P]     Damp
               ***  Starting incremental Fock matrix formation  ***
                      *** Initiating the SOSCF procedure ***
                      *** Re-Reading the Fockian *** 
                      *** Removing any level shift *** 
ITER      Energy       Delta-E        Grad      Rot      Max-DP    RMS-DP
  0   -229.11970481 -229.1197048055  0.002064  0.002064  0.002405  0.000095
               *** Restarting incremental Fock matrix formation ***
  1   -229.11982617  -0.0001213687  0.000521  0.000609  0.001224  0.000043
  2   -229.11983636  -0.0000101811  0.000431  0.000519  0.000590  0.000018
  3   -229.11983992  -0.0000035653  0.000229  0.000271  0.000294  0.000009
  4   -229.11984025  -0.0000003281  0.000105  0.000080  0.000122  0.000004
  5   -229.11984043  -0.0000001861  0.000017  0.000023  0.000030  0.000001
  6   -229.11984044  -0.0000000053  0.000022  0.000017  0.000017  0.000000
                  ***Gradient check signals convergence***
              ***Rediagonalizing the Fockian in SOSCF/NRSCF***

               *****************************************************
               *                     SUCCESS                       *
               *           SCF CONVERGED AFTER   7 CYCLES          *
               *****************************************************

Setting up the final grid:

General Integration Accuracy     IntAcc      ...  4.670
Radial Grid Type                 RadialGrid  ... Gauss-Chebyshev
Angular Grid (max. acc.)         AngularGrid ... Lebedev-302
Angular grid pruning method      GridPruning ... 3 (G Style)
Weight generation scheme         WeightScheme... Becke
Basis function cutoff            BFCut       ...    1.0000e-11
Integration weight cutoff        WCut        ...    1.0000e-14
Grids for H and He will be reduced by one unit

# of grid points (after initial pruning)     ...  38424 (   0.0 sec)
# of grid points (after weights+screening)   ...  36672 (   0.0 sec)
nearest neighbour list constructed           ...    0.0 sec
Grid point re-assignment to atoms done       ...    0.0 sec
Grid point division into batches done        ...    0.2 sec
Reduced shell lists constructed in    0.2 sec

Total number of grid points                  ...    36672
Total number of batches                      ...      576
Average number of points per batch           ...       63
Average number of grid points per atom       ...     4584
Average number of shells per batch           ...    53.03 (88.38%)
Average number of basis functions per batch  ...   137.57 (92.95%)
Average number of large shells per batch     ...    48.38 (91.23%)
Average number of large basis fcns per batch ...   127.89 (92.97%)
Maximum spatial batch extension              ...   2.79,  2.34,  3.77 au
Average spatial batch extension              ...   0.09,  0.09,  0.09 au

Final grid set up in    0.3 sec
Final integration                            ... done (   0.2 sec)
Change in XC energy                          ...    -0.000565992
Integrated number of electrons               ...    31.999973698
Previous integrated no of electrons          ...    32.000509933
Old exchange energy                            =     -8.985954690 Eh
New exchange energy                            =     -8.985741038 Eh
Exchange energy change after final integration =      0.000213652 Eh
Total energy after final integration           =   -229.120192783 Eh
Final COS-X integration done in                =     0.471 sec
Total Energy       :         -229.12019278 Eh           -6234.67741 eV
  Last Energy change         ...   -3.1674e-09  Tolerance :   1.0000e-08
  Last MAX-Density change    ...    6.1062e-16  Tolerance :   1.0000e-07
             **** THE GBW FILE WAS UPDATED (optimization.gbw) ****
             **** DENSITY FILE WAS UPDATED (optimization.scfp.tmp) ****
             **** ENERGY FILE WAS UPDATED (optimization.en.tmp) ****
Total SCF time: 0 days 0 hours 0 min 13 sec 


-------------------------------------------------------------------------------
                          DFT DISPERSION CORRECTION                            
                                                                               
                              DFTD3 V3.1  Rev 1                                
                              USING zero damping                               
-------------------------------------------------------------------------------
-------------------------   ----------------
Dispersion correction           -0.001114852
-------------------------   ----------------


-------------------------   --------------------
FINAL SINGLE POINT ENERGY      -229.121307635135
-------------------------   --------------------



           ************************************************************
           *        Program running with 16 parallel MPI-processes    *
           *              working on a common directory               *
           ************************************************************
------------------------------------------------------------------------------
                         ORCA SCF GRADIENT CALCULATION
------------------------------------------------------------------------------

Gradient of the Kohn-Sham DFT energy:
Kohn-Sham wavefunction type      ... RKS
Hartree-Fock exchange scaling    ...    0.196
Number of operators              ...    1
Number of atoms                  ...    8
Basis set dimensions             ...  148
Integral neglect threshold       ... 2.5e-11
Integral primitive cutoff        ... 2.5e-12

Nuclear repulsion gradient       ... done
One Electron Gradient            ... done
Pre-screening matrix             ... done
RI-J gradient                    ... done
COSX-gradient                    ... done
Exchange-correlation gradient    ... done
Dispersion correction            ... done

------------------
CARTESIAN GRADIENT
------------------

   1   C   :   -0.000245693    0.001529930   -0.000019677
   2   O   :    0.000367166    0.001830274    0.000006017
   3   C   :   -0.001042344   -0.001189320    0.000009915
   4   H   :   -0.000340003    0.000125394   -0.000028439
   5   H   :   -0.000345888    0.000125675    0.000036017
   6   H   :   -0.000270540    0.000198269    0.000010363
   7   O   :    0.000136113   -0.002448109    0.000005353
   8   H   :   -0.000537835    0.001347550    0.000000970

Difference to translation invariance:
           :   -0.0022790247    0.0015196648    0.0000205191

Norm of the cartesian gradient     ...    0.0041092185
RMS gradient                       ...    0.0008387907
MAX gradient                       ...    0.0024481091

-------
TIMINGS
-------

Total SCF gradient time            ...        1.874 sec

One electron gradient       ....       0.013 sec  (  0.7%)
Prescreening matrices       ....       0.060 sec  (  3.2%)
RI-J Coulomb gradient       ....       0.322 sec  ( 17.2%)
COSX gradient               ....       0.560 sec  ( 29.9%)
XC gradient                 ....       0.259 sec  ( 13.8%)
------------------------------------------------------------------------------
                         ORCA GEOMETRY RELAXATION STEP
------------------------------------------------------------------------------

Reading the OPT-File                    .... done
Getting information on internals        .... done
Copying old internal coords+grads       .... done
Making the new internal coordinates     .... (new redundants).... done
Validating the new internal coordinates .... (new redundants).... done
Calculating the B-matrix                .... done
Calculating the G,G- and P matrices     .... done
Transforming gradient to internals      .... done
Projecting the internal gradient        .... done
Number of atoms                         ....   8
Number of internal coordinates          ....  25
Current Energy                          ....  -229.121307635 Eh
Current gradient norm                   ....     0.004109219 Eh/bohr
Maximum allowed component of the step   ....  0.300
Current trust radius                    ....  0.300
Updating the Hessian (BFGS)             .... done
Forming the augmented Hessian           .... done
Diagonalizing the augmented Hessian     .... done
Last element of RFO vector              ....  0.999967603
Lowest eigenvalues of augmented Hessian:
 -0.000023827  0.012185426  0.016140019  0.029103463  0.136574670
Length of the computed step             ....  0.008049685
The final length of the internal step   ....  0.008049685
Converting the step to cartesian space:
 Initial RMS(Int)=    0.0016099369
Transforming coordinates:
 Iter   0:  RMS(Cart)=    0.0016305662 RMS(Int)=    1.2565783232
 Iter   1:  RMS(Cart)=    0.0000036192 RMS(Int)=    0.0000030203
 Iter   2:  RMS(Cart)=    0.0000000094 RMS(Int)=    0.0000000064
done
Storing new coordinates                 .... done

                                .--------------------.
          ----------------------|Geometry convergence|-------------------------
          Item                value                   Tolerance       Converged
[...]
                        -----------------------------------------
Magnitude (a.u.)       :      0.69337
Magnitude (Debye)      :      1.76241



--------------------
Rotational spectrum 
--------------------
 
Rotational constants in cm-1:     0.383283     0.317709     0.179454 
Rotational constants in MHz : 11490.539162  9524.680034  5379.888991 

 Dipole components along the rotational axes: 
x,y,z [a.u.] :    -0.313006    -0.618699     0.000003 
x,y,z [Debye]:    -0.795598    -1.572609     0.000009 

 


           ************************************************************
           *        Program running with 16 parallel MPI-processes    *
           *              working on a common directory               *
           ************************************************************

-------------------------------------------------------------------------------
                               ORCA SCF HESSIAN
-------------------------------------------------------------------------------

Hessian of the Kohn-Sham DFT energy:
Kohn-Sham wavefunction type                      ... RKS
Hartree-Fock exchange scaling                    ...    0.196
Number of operators                              ...    1
Number of atoms                                  ...    8
Basis set dimensions                             ...  148
Integral neglect threshold                       ... 2.5e-11
Integral primitive cutoff                        ... 2.5e-12

Setting up DFT Hessian calculations              ... 
Electron density on the grid                     ... found on disk
Electron density on the final grid               ... found on disk
Building xc-kernel on the grid                   ... done   (      0.4 sec)
Building xc-kernel on the final grid             ... done   (      0.1 sec)
                                                     done   (      0.8 sec)

Nuclear repulsion Hessian                        ... done   (      0.0 sec)

----------------------------------------------
Forming right-hand sides of CP-SCF equations     ...
----------------------------------------------
One electron integral derivatives                ... done   (      0.2 sec)
Transforming the overlap derivative matrices     ... done   (      0.0 sec)
Making the Q(x) pseudodensities                  ... done   (      0.0 sec)
Adding the E*S(x)*S(y) terms to the Hessian      ... done   (      0.0 sec)
Calculating energy weighted overlap derivatives  ... done   (      0.1 sec)
Two electron integral derivatives (RI)           ... done   (      5.3 sec)
Exchange-correlation integral derivatives        ... done   (      2.0 sec)
tr(F(y)Q(x)) contribution to the Hessian         ... done   (      0.0 sec)
Response fock operator R(S(x)) (RIJCOSX)         ... done   (      1.7 sec)
XC Response fock operator R(S(x))                ... done   (      0.7 sec)
tr(F(y)S(x)) contribution to the Hessian         ... done   (      0.0 sec)
Transforming and finalizing RHSs                 ... done   (      0.1 sec)

----------------------------------------------
Solving the CP-SCF equations (RIJCOSX)           ...
----------------------------------------------
     CP-SCF ITERATION   0: 
     CP-SCF ITERATION   1:      0.003377920894
     CP-SCF ITERATION   2:      0.000423169696
     CP-SCF ITERATION   3:      0.000054735881
     CP-SCF ITERATION   4:      0.000006338619
     CP-SCF ITERATION   5:      0.000000603247
     CP-SCF ITERATION   6:      0.000000028413
     CP-SCF ITERATION   7:      0.000000007966

                                                 ... done   (    118.6 sec)
Forming perturbed density Hessian contributions  ... done   (      0.5 sec)
2nd integral derivative contribs (RI)            ... done   (     33.8 sec)
Exchange-correlation Hessian                     ... done   (      1.2 sec)
Dispersion correction in the Hessian             ... done   (      0.4 sec)
Dipol derivatives                                ... done   (      0.4 sec)

Total SCF Hessian time: 0 days 0 hours 2 min 46 sec 

Writing the Hessian file to the disk             ... done


Maximum memory used throughout the entire calculation: 285.1 MB

-----------------------
VIBRATIONAL FREQUENCIES
-----------------------

Scaling factor for frequencies =  1.000000000  (already applied!)

   0:         0.00 cm**-1
   1:         0.00 cm**-1
   2:         0.00 cm**-1
   3:         0.00 cm**-1
   4:         0.00 cm**-1
   5:         0.00 cm**-1
   6:       129.95 cm**-1
   7:       432.62 cm**-1
   8:       559.79 cm**-1
   9:       596.64 cm**-1
  10:       685.56 cm**-1
  11:       889.02 cm**-1
  12:      1013.51 cm**-1
  13:      1078.76 cm**-1
  14:      1231.89 cm**-1
  15:      1360.09 cm**-1
  16:      1436.34 cm**-1
  17:      1479.01 cm**-1
  18:      1483.85 cm**-1
  19:      1861.21 cm**-1
  20:      3087.48 cm**-1
  21:      3161.79 cm**-1
  22:      3203.31 cm**-1
  23:      3813.96 cm**-1


------------
NORMAL MODES
------------

These modes are the Cartesian displacements weighted by the diagonal matrix
M(i,i)=1/sqrt(m[i]) where m[i] is the mass of the displaced atom
Thus, these vectors are normalized but *not* orthogonal

                  0          1          2          3          4          5    
      0       0.000000   0.000000   0.000000   0.000000   0.000000   0.000000
      1       0.000000   0.000000   0.000000   0.000000   0.000000   0.000000
      2       0.000000   0.000000   0.000000   0.000000   0.000000   0.000000
      3       0.000000   0.000000   0.000000   0.000000   0.000000   0.000000
      4       0.000000   0.000000   0.000000   0.000000   0.000000   0.000000
      5       0.000000   0.000000   0.000000   0.000000   0.000000   0.000000
      6       0.000000   0.000000   0.000000   0.000000   0.000000   0.000000
      7       0.000000   0.000000   0.000000   0.000000   0.000000   0.000000
      8       0.000000   0.000000   0.000000   0.000000   0.000000   0.000000
      9       0.000000   0.000000   0.000000   0.000000   0.000000   0.000000
     10       0.000000   0.000000   0.000000   0.000000   0.000000   0.000000
     11       0.000000   0.000000   0.000000   0.000000   0.000000   0.000000
     12       0.000000   0.000000   0.000000   0.000000   0.000000   0.000000
     13       0.000000   0.000000   0.000000   0.000000   0.000000   0.000000
     14       0.000000   0.000000   0.000000   0.000000   0.000000   0.000000
     15       0.000000   0.000000   0.000000   0.000000   0.000000   0.000000
     16       0.000000   0.000000   0.000000   0.000000   0.000000   0.000000
     17       0.000000   0.000000   0.000000   0.000000   0.000000   0.000000
     18       0.000000   0.000000   0.000000   0.000000   0.000000   0.000000
     19       0.000000   0.000000   0.000000   0.000000   0.000000   0.000000
     20       0.000000   0.000000   0.000000   0.000000   0.000000   0.000000
     21       0.000000   0.000000   0.000000   0.000000   0.000000   0.000000
     22       0.000000   0.000000   0.000000   0.000000   0.000000   0.000000
     23       0.000000   0.000000   0.000000   0.000000   0.000000   0.000000
                  6          7          8          9         10         11    
      0      -0.000007  -0.011833   0.000066   0.138135  -0.000025  -0.119867
      1       0.000048  -0.155465   0.000048  -0.003662   0.000058  -0.101554
      2       0.011206  -0.000029  -0.207247   0.000172  -0.146973   0.000106
      3       0.000068  -0.156696  -0.000137  -0.252422   0.000046  -0.066081
      4       0.000039  -0.082796   0.000015   0.188785  -0.000089  -0.182266
      5      -0.052490  -0.000070   0.056106   0.000004   0.068988  -0.000096
      6       0.000005  -0.064063   0.000139   0.255499  -0.000031   0.309260
      7      -0.000043   0.185963   0.000048   0.059050  -0.000015   0.034406
      8       0.003587   0.000058   0.011482  -0.000007  -0.038407  -0.000003
      9      -0.032562  -0.331212  -0.360199   0.197806  -0.263594   0.348815
     10       0.499819   0.332593  -0.004951   0.089198  -0.044254   0.032370
     11      -0.321199  -0.009964   0.135169   0.001700   0.080874  -0.003661
     12       0.032795  -0.330370   0.360957   0.197626   0.263940   0.348696
     13      -0.500643   0.331729   0.004957   0.089049   0.044204   0.032319
     14      -0.320538   0.009548   0.135132  -0.001907   0.080806   0.003589
     15      -0.000224   0.377003  -0.000212   0.374354  -0.000355   0.436182
     16       0.000212   0.431262   0.000029   0.119957  -0.000071   0.088379
     17       0.534991   0.000563   0.260457  -0.000024   0.130633  -0.000037
     18      -0.000064   0.221798  -0.000043  -0.093347  -0.000010  -0.133831
     19      -0.000001  -0.025033  -0.000068  -0.204026   0.000042   0.188716
     20       0.048459   0.000046   0.009058  -0.000012   0.107672   0.000023
     21      -0.000043   0.155625  -0.000130   0.027843   0.000118  -0.217426
     22      -0.000044   0.252465  -0.000346  -0.716280   0.000348   0.544668
     23      -0.005553  -0.000114   0.767616  -0.001612  -0.887343   0.000036
                 12         13         14         15         16         17    
      0       0.064113   0.000014  -0.110172   0.170822   0.159699   0.041148
      1      -0.020963   0.000070   0.081635  -0.110781  -0.114203  -0.014861
      2      -0.000087  -0.205907  -0.000025  -0.000032   0.000033  -0.000264
      3       0.030447  -0.000041   0.044912  -0.012997  -0.006534  -0.014744
      4       0.029010  -0.000058   0.085436   0.042677   0.044118  -0.012200
      5       0.000023   0.042196   0.000041   0.000021   0.000010   0.000016
      6      -0.007400   0.000027   0.036562   0.052036  -0.185723   0.006904
      7      -0.165009   0.000039  -0.071965   0.038680   0.000590  -0.044793
      8       0.000024   0.169577   0.000001  -0.000007   0.000107  -0.000509
      9      -0.441087   0.577454  -0.044774  -0.380925   0.514468   0.089907
     10       0.174708   0.177337   0.105429  -0.096272  -0.113315   0.500853
     11      -0.081378  -0.154081  -0.084282   0.213694  -0.151346  -0.378279
     12      -0.440191  -0.577761  -0.044508  -0.381128   0.515772   0.081548
     13       0.174764  -0.177337   0.105613  -0.096560  -0.114322   0.508342
     14       0.081168  -0.153688   0.084158  -0.213560   0.151255   0.378634
     15       0.639984   0.000399   0.340236  -0.420510   0.348001  -0.358370
     16       0.198885  -0.000152   0.096246  -0.218896   0.287980  -0.231311
     17       0.000089  -0.385169   0.000067   0.000123  -0.001570   0.008043
     18      -0.058560   0.000004   0.008115  -0.068708  -0.053783  -0.008487
     19       0.089144  -0.000015  -0.165736   0.003368   0.017145   0.004623
     20       0.000030   0.029830  -0.000028  -0.000010  -0.000010   0.000028
     21       0.011732   0.000012  -0.215483  -0.176130  -0.110796  -0.016948
     22      -0.207724  -0.000008   0.852018   0.540026   0.321058   0.053189
     23       0.000023  -0.017371   0.000138   0.000039  -0.000004   0.000112
                 18         19         20         21         22         23    
      0       0.000274  -0.384549  -0.002399   0.000007   0.001043   0.003035
      1      -0.000046  -0.591642   0.000450   0.000001   0.002569  -0.000457
      2       0.026679  -0.000288  -0.000002  -0.000903   0.000001  -0.000000
      3      -0.000145   0.209206  -0.000151  -0.000000  -0.000471  -0.000056
      4      -0.000166   0.385854  -0.000332  -0.000001  -0.001065   0.000846
      5      -0.002778   0.000205  -0.000000  -0.000148  -0.000000   0.000000
      6       0.000271   0.064371   0.046883  -0.000109  -0.022929  -0.000613
      7      -0.000442   0.039053   0.021894   0.000028   0.091433  -0.000423
      8       0.049892   0.000016  -0.000154  -0.091863   0.000066   0.000000
      9      -0.376150   0.091624  -0.156906   0.185698  -0.084129  -0.000377
     10       0.322185   0.090445  -0.330677   0.384137  -0.157980   0.001322
     11      -0.056454  -0.049489  -0.509466   0.560707  -0.259633   0.001161
     12       0.376993   0.091289  -0.157458  -0.185439  -0.083597  -0.000375
     13      -0.311087   0.090475  -0.331066  -0.382701  -0.156478   0.001322
     14      -0.048090   0.049288   0.511641   0.560406   0.258245  -0.001166
     15      -0.004315  -0.197956  -0.213657   0.000960   0.427651   0.000296
     16      -0.003363  -0.139305   0.402448  -0.001777  -0.781415   0.000161
     17      -0.712026   0.000055  -0.000320  -0.014670   0.000589  -0.000001
     18      -0.000040   0.024365   0.000152   0.000000   0.000568   0.059717
     19       0.000027   0.053733  -0.000003   0.000000  -0.000424   0.012998
     20      -0.002690   0.000013   0.000000   0.000049  -0.000000   0.000012
     21      -0.000084   0.122921  -0.002051  -0.000000  -0.000678  -0.975336
     22       0.000300  -0.434289  -0.001636   0.000002  -0.000592  -0.212056
     23      -0.009031  -0.000073  -0.000001   0.000505  -0.000002  -0.000193


-----------
IR SPECTRUM
-----------

 Mode    freq (cm**-1)   T**2         TX         TY         TZ
-------------------------------------------------------------------
   6:       129.95    0.165620  ( -0.000516  -0.001464  -0.406961)
   7:       432.62    4.426197  ( -0.313707   2.080333  -0.000952)
   8:       559.79   27.282899  (  0.002820  -0.001477   5.223302)
   9:       596.64   42.614965  (  5.995540  -2.582326  -0.007222)
  10:       685.56   98.894591  ( -0.001001   0.003681  -9.944575)
  11:       889.02    3.138518  ( -1.133915  -1.361159   0.000044)
  12:      1013.51   50.713211  (  4.559027  -5.470693  -0.002429)
  13:      1078.76    9.033519  (  0.003361   0.003665  -3.005577)
  14:      1231.89  212.464739  ( -9.139858  11.354635   0.001554)
  15:      1360.09   29.724940  (  2.729598  -4.719558  -0.000797)
  16:      1436.34   93.083585  (  8.369358  -4.799728  -0.006881)
  17:      1479.01   16.307323  (  2.367211   3.271480   0.032430)
  18:      1483.85   10.030807  (  0.014361   0.040663  -3.166851)
  19:      1861.21  354.671812  ( -6.479083 -17.683135  -0.005054)
  20:      3087.48    1.259678  (  0.951090   0.595905  -0.002087)
  21:      3161.79    3.325110  ( -0.005177  -0.000986  -1.823481)
  22:      3203.31    3.890483  ( -0.928480   1.740231   0.001857)
  23:      3813.96   66.118572  ( -8.093877   0.779572  -0.001011)

The first frequency considered to be a vibration is 6
The total number of vibrations considered is 18


--------------------------
THERMOCHEMISTRY AT 298.15K
--------------------------

Temperature         ... 298.15 K
Pressure            ... 1.00 atm
Total Mass          ... 60.05 AMU

Throughout the following assumptions are being made:
  (1) The electronic state is orbitally nondegenerate
  (2) There are no thermally accessible electronically excited states
  (3) Hindered rotations indicated by low frequency modes are not
      treated as such but are treated as vibrations and this may
      cause some error
  (4) All equations used are the standard statistical mechanics
      equations for an ideal gas
  (5) All vibrations are strictly harmonic

freq.     129.95  E(vib)   ...       0.43 
freq.     432.62  E(vib)   ...       0.18 
freq.     559.79  E(vib)   ...       0.12 
freq.     596.64  E(vib)   ...       0.10 
freq.     685.56  E(vib)   ...       0.07 
freq.     889.02  E(vib)   ...       0.04 
freq.    1013.51  E(vib)   ...       0.02 
freq.    1078.76  E(vib)   ...       0.02 
freq.    1231.89  E(vib)   ...       0.01 
freq.    1360.09  E(vib)   ...       0.01 
freq.    1436.34  E(vib)   ...       0.00 
freq.    1479.01  E(vib)   ...       0.00 
freq.    1483.85  E(vib)   ...       0.00 
freq.    1861.21  E(vib)   ...       0.00 
freq.    3087.48  E(vib)   ...       0.00 
freq.    3161.79  E(vib)   ...       0.00 
freq.    3203.31  E(vib)   ...       0.00 
freq.    3813.96  E(vib)   ...       0.00 

------------
INNER ENERGY
------------

The inner energy is: U= E(el) + E(ZPE) + E(vib) + E(rot) + E(trans)
    E(el)   - is the total energy from the electronic structure calculation
              = E(kin-el) + E(nuc-el) + E(el-el) + E(nuc-nuc)
    E(ZPE)  - the the zero temperature vibrational energy from the frequency calculation
    E(vib)  - the the finite temperature correction to E(ZPE) due to population
              of excited vibrational states
    E(rot)  - is the rotational thermal energy
    E(trans)- is the translational thermal energy

Summary of contributions to the inner energy U:
Electronic energy                ...   -229.12132242 Eh
Zero point energy                ...      0.06266052 Eh      39.32 kcal/mol
Thermal vibrational correction   ...      0.00158178 Eh       0.99 kcal/mol
Thermal rotational correction    ...      0.00141627 Eh       0.89 kcal/mol
Thermal translational correction ...      0.00141627 Eh       0.89 kcal/mol
-----------------------------------------------------------------------
Total thermal energy                   -229.05424758 Eh


Summary of corrections to the electronic energy:
(perhaps to be used in another calculation)
Total thermal correction                  0.00441433 Eh       2.77 kcal/mol
Non-thermal (ZPE) correction              0.06266052 Eh      39.32 kcal/mol
-----------------------------------------------------------------------
Total correction                          0.06707484 Eh      42.09 kcal/mol


--------
ENTHALPY
--------

The enthalpy is H = U + kB*T
                kB is Boltzmann's constant
Total free energy                 ...   -229.05424758 Eh 
Thermal Enthalpy correction       ...      0.00094421 Eh       0.59 kcal/mol
-----------------------------------------------------------------------
Total Enthalpy                    ...   -229.05330337 Eh


Note: Rotational entropy computed according to Herzberg 
Infrared and Raman Spectra, Chapter V,1, Van Nostrand Reinhold, 1945 
Point Group:  C1, Symmetry Number:   1  
Rotational constants in cm-1:     0.383283     0.317709     0.179454 

Vibrational entropy computed according to the QRRHO of S. Grimme
Chem.Eur.J. 2012 18 9955


-------
ENTROPY
-------

The entropy contributions are T*S = T*(S(el)+S(vib)+S(rot)+S(trans))
     S(el)   - electronic entropy
     S(vib)  - vibrational entropy
     S(rot)  - rotational entropy
     S(trans)- translational entropy
The entropies will be listed as mutliplied by the temperature to get
units of energy

Electronic entropy                ...      0.00000000 Eh      0.00 kcal/mol
Vibrational entropy               ...      0.00257313 Eh      1.61 kcal/mol
Rotational entropy                ...      0.01131582 Eh      7.10 kcal/mol
Translational entropy             ...      0.01814900 Eh     11.39 kcal/mol
-----------------------------------------------------------------------
Final entropy term                ...      0.03203795 Eh     20.10 kcal/mol


-------------------
GIBBS FREE ENTHALPY
-------------------

The Gibbs free enthalpy is G = H - T*S

Total enthalpy                    ...   -229.05330337 Eh 
Total entropy correction          ...     -0.03203795 Eh    -20.10 kcal/mol
-----------------------------------------------------------------------
Final Gibbs free enthalpy         ...   -229.08534132 Eh

For completeness - the Gibbs free enthalpy minus the electronic energy
G-E(el)                           ...      0.03598111 Eh     22.58 kcal/mol


Timings for individual modules:

Sum of individual times         ...      293.798 sec (=   4.897 min)
GTO integral calculation        ...       10.642 sec (=   0.177 min)   3.6 %
SCF iterations                  ...       96.973 sec (=   1.616 min)  33.0 %
SCF Gradient evaluation         ...       13.548 sec (=   0.226 min)   4.6 %
Geometry relaxation             ...        5.097 sec (=   0.085 min)   1.7 %
Analytical frequency calculation...      167.538 sec (=   2.792 min)  57.0 %
                             ****ORCA TERMINATED NORMALLY****
TOTAL RUN TIME: 0 days 0 hours 4 minutes 58 seconds 452 msec
