 Entering Gaussian System, Link 0=g16
 Input=postts_170_205.gjf
 Output=postts_170_205.out
 AtFile(1): /n/home03/cwagen/basis_sets/pcseg1.bas
            !----------------------------------------------------------------------
            ! Basis Set Exchange
            ! Version v0.8.12
            ! https://www.basissetexchange.org
            !----------------------------------------------------------------------
            !   Basis set: pcseg-1
            ! Description: Segmented contracted version of the pc-1 basis
            !        Role: orbital
            !     Version: 1  (Data from Frank Jensen (2014))
            !----------------------------------------------------------------------
            -H     0
            S   3   1.00
                  0.122518D+02           0.233371D-01
                  0.186871D+01           0.159150D+00
                  0.418208D+00           0.500000D+00
            S   1   1.00
                  0.106100D+00           1.0000000
            P   1   1.00
                  0.100000D+01           1.0000000
            ****
            -He     0
            S   3   1.00
                  0.368654D+02           0.273556D-01
                  0.558021D+01           0.174855D+00
                  0.119170D+01           0.500000D+00
            S   1   1.00
                  0.268925D+00           1.0000000
            P   1   1.00
                  0.145000D+01           1.0000000
            ****
            -Li     0
            S   5   1.00
                  0.266550D+03           0.692856D-02
                  0.401783D+02           0.510275D-01
                  0.911212D+01           0.213471D+00
                  0.245522D+01           0.500000D+00
                  0.694841D+00           0.458402D+00
            S   2   1.00
                  0.770103D+00          -0.703100D-01
                  0.778623D-01           0.500000D+00
            S   1   1.00
                  0.284580D-01           1.0000000
            P   2   1.00
                  0.114709D+01           0.106358D+00
                  0.213473D+00           0.500000D+00
            P   1   1.00
                  0.477473D-01           1.0000000
            ****
            -Be     0
            S   5   1.00
                  0.513214D+03           0.644549D-02
                  0.773054D+02           0.477643D-01
                  0.175526D+02           0.205052D+00
                  0.479646D+01           0.500000D+00
                  0.139666D+01           0.472486D+00
            S   2   1.00
                  0.196613D+01          -0.693660D-01
                  0.176151D+00           0.500000D+00
            S   1   1.00
                  0.577841D-01           1.0000000
            P   2   1.00
                  0.179454D+01           0.111210D+00
                  0.341727D+00           0.500000D+00
            P   1   1.00
                  0.758163D-01           1.0000000
            ****
            -B     0
            S   5   1.00
                  0.838694D+03           0.619052D-02
                  0.126282D+03           0.460299D-01
                  0.286810D+02           0.200656D+00
                  0.788757D+01           0.500000D+00
                  0.233465D+01           0.477076D+00
            S   2   1.00
                  0.345968D+01          -0.703405D-01
                  0.317058D+00           0.500000D+00
            S   1   1.00
                  0.993303D-01           1.0000000
            P   3   1.00
                  0.584610D+01           0.419175D-01
                  0.120682D+01           0.217800D+00
                  0.327997D+00           0.500000D+00
            P   1   1.00
                  0.864963D-01           1.0000000
            D   1   1.00
                  0.700000D+00           1.0000000
            ****
            -C     0
            S   5   1.00
                  0.124320D+04           0.603366D-02
                  0.187145D+03           0.449576D-01
                  0.425126D+02           0.197901D+00
                  0.117393D+02           0.500000D+00
                  0.350548D+01           0.480364D+00
            S   2   1.00
                  0.539089D+01          -0.703980D-01
                  0.493341D+00           0.500000D+00
            S   1   1.00
                  0.149741D+00           1.0000000
            P   3   1.00
                  0.918056D+01           0.431701D-01
                  0.193658D+01           0.224999D+00
                  0.526296D+00           0.500000D+00
            P   1   1.00
                  0.136319D+00           1.0000000
            D   1   1.00
                  0.800000D+00           1.0000000
            ****
            -N     0
            S   5   1.00
                  0.172632D+04           0.593077D-02
                  0.259827D+03           0.442539D-01
                  0.590335D+02           0.196096D+00
                  0.163509D+02           0.500000D+00
                  0.491084D+01           0.482987D+00
            S   2   1.00
                  0.775894D+01          -0.703356D-01
                  0.705573D+00           0.500000D+00
            S   1   1.00
                  0.209286D+00           1.0000000
            P   3   1.00
                  0.131844D+02           0.440747D-01
                  0.281860D+01           0.230478D+00
                  0.765571D+00           0.500000D+00
            P   1   1.00
                  0.195949D+00           1.0000000
            D   1   1.00
                  0.900000D+00           1.0000000
            ****
            -O     0
            S   5   1.00
                  0.228864D+04           0.585468D-02
                  0.344416D+03           0.437333D-01
                  0.782538D+02           0.194796D+00
                  0.217195D+02           0.500000D+00
                  0.655907D+01           0.484614D+00
            S   2   1.00
                  0.104656D+02          -0.713343D-01
                  0.964351D+00           0.500000D+00
            S   1   1.00
                  0.285127D+00           1.0000000
            P   3   1.00
                  0.170590D+02           0.474439D-01
                  0.368999D+01           0.242689D+00
                  0.992996D+00           0.500000D+00
            P   1   1.00
                  0.244924D+00           1.0000000
            D   1   1.00
                  0.100000D+01           1.0000000
            ****
            -F     0
            S   5   1.00
                  0.293155D+04           0.579504D-02
                  0.441125D+03           0.433238D-01
                  0.100232D+03           0.193739D+00
                  0.278655D+02           0.500000D+00
                  0.844470D+01           0.486420D+00
            S   2   1.00
                  0.136123D+02          -0.719785D-01
                  0.126122D+01           0.500000D+00
            S   1   1.00
                  0.370800D+00           1.0000000
            P   3   1.00
                  0.219305D+02           0.488771D-01
                  0.478552D+01           0.247830D+00
                  0.128378D+01           0.500000D+00
            P   1   1.00
                  0.311558D+00           1.0000000
            D   1   1.00
                  0.110000D+01           1.0000000
            ****
            -Ne     0
            S   5   1.00
                  0.365269D+04           0.575083D-02
                  0.549598D+03           0.430203D-01
                  0.124889D+03           0.192958D+00
                  0.347693D+02           0.500000D+00
                  0.105643D+02           0.487878D+00
            S   2   1.00
                  0.172034D+02          -0.722200D-01
                  0.159348D+01           0.500000D+00
            S   1   1.00
                  0.464939D+00           1.0000000
            P   3   1.00
                  0.275577D+02           0.496379D-01
                  0.605034D+01           0.250893D+00
                  0.162110D+01           0.500000D+00
            P   1   1.00
                  0.390181D+00           1.0000000
            D   1   1.00
                  0.120000D+01           1.0000000
            ****
            -Na     0
            S   7   1.00
                  0.219036D+05           0.796012D-03
                  0.328624D+04           0.614434D-02
                  0.748016D+03           0.313507D-01
                  0.211598D+03           0.119245D+00
                  0.684819D+02           0.324337D+00
                  0.242414D+02           0.500000D+00
                  0.890835D+01           0.277280D+00
            S   3   1.00
                  0.209903D+02          -0.780809D-01
                  0.200831D+01           0.527383D+00
                  0.637279D+00           0.500000D+00
            S   1   1.00
                  0.587726D-01           1.0000000
            S   1   1.00
                  0.233057D-01           1.0000000
            P   6   1.00
                  0.135738D+03           0.702531D-02
                  0.316045D+02           0.516381D-01
                  0.968275D+01           0.197591D+00
                  0.336969D+01           0.421145D+00
                  0.117061D+01           0.500000D+00
                  0.376739D+00           0.262788D+00
            P   1   1.00
                  0.750000D-01           1.0000000
            ****
            -Mg     0
            S   7   1.00
                  0.264576D+05           0.783649D-03
                  0.396929D+04           0.604998D-02
                  0.903446D+03           0.308916D-01
                  0.255556D+03           0.117807D+00
                  0.827415D+02           0.322294D+00
                  0.293478D+02           0.500000D+00
                  0.108238D+02           0.282422D+00
            S   3   1.00
                  0.251406D+02          -0.786240D-01
                  0.249250D+01           0.518640D+00
                  0.844000D+00           0.500000D+00
            S   1   1.00
                  0.999808D-01           1.0000000
            S   1   1.00
                  0.359920D-01           1.0000000
            P   6   1.00
                  0.177774D+03           0.633379D-02
                  0.414783D+02           0.474014D-01
                  0.128188D+02           0.185640D+00
                  0.451684D+01           0.411458D+00
                  0.161289D+01           0.500000D+00
                  0.545656D+00           0.249166D+00
            P   1   1.00
                  0.135000D+00           1.0000000
            ****
            -Al     0
            S   7   1.00
                  0.314930D+05           0.772081D-03
                  0.472479D+04           0.596117D-02
                  0.107541D+04           0.304560D-01
                  0.304198D+03           0.116420D+00
                  0.985259D+02           0.320188D+00
                  0.350079D+02           0.500000D+00
                  0.129514D+02           0.287575D+00
            S   3   1.00
                  0.297115D+02          -0.804805D-01
                  0.302938D+01           0.521165D+00
                  0.107954D+01           0.500000D+00
            S   1   1.00
                  0.155890D+00           1.0000000
            S   1   1.00
                  0.558575D-01           1.0000000
            P   6   1.00
                  0.249234D+03           0.493890D-02
                  0.582857D+02           0.379957D-01
                  0.182788D+02           0.154524D+00
                  0.657003D+01           0.372030D+00
                  0.243373D+01           0.500000D+00
                  0.876458D+00           0.291025D+00
            P   2   1.00
                  0.394856D+00           0.166656D+00
                  0.143539D+00           0.500000D+00
            P   1   1.00
                  0.462621D-01           1.0000000
            D   1   1.00
                  0.400000D+00           1.0000000
            ****
            -Si     0
            S   7   1.00
                  0.369680D+05           0.762336D-03
                  0.554596D+04           0.588668D-02
                  0.126231D+04           0.300904D-01
                  0.357070D+03           0.115247D+00
                  0.115686D+03           0.318407D+00
                  0.411630D+02           0.500000D+00
                  0.152701D+02           0.291844D+00
            S   3   1.00
                  0.347095D+02          -0.827476D-01
                  0.361290D+01           0.530946D+00
                  0.133671D+01           0.500000D+00
            S   1   1.00
                  0.218570D+00           1.0000000
            S   1   1.00
                  0.775716D-01           1.0000000
            P   6   1.00
                  0.310339D+03           0.454351D-02
                  0.727046D+02           0.353002D-01
                  0.229262D+02           0.146120D+00
                  0.829551D+01           0.362053D+00
                  0.311573D+01           0.500000D+00
                  0.114622D+01           0.289049D+00
            P   2   1.00
                  0.527980D+00           0.201725D+00
                  0.190994D+00           0.500000D+00
            P   1   1.00
                  0.633721D-01           1.0000000
            D   1   1.00
                  0.450000D+00           1.0000000
            ****
            -P     0
            S   7   1.00
                  0.429302D+05           0.752902D-03
                  0.644049D+04           0.581420D-02
                  0.146589D+04           0.297346D-01
                  0.414647D+03           0.114096D+00
                  0.134362D+03           0.316618D+00
                  0.478575D+02           0.500000D+00
                  0.177916D+02           0.295798D+00
            S   3   1.00
                  0.401278D+02          -0.851533D-01
                  0.424466D+01           0.544223D+00
                  0.161562D+01           0.500000D+00
            S   1   1.00
                  0.288820D+00           1.0000000
            S   1   1.00
                  0.101289D+00           1.0000000
            P   6   1.00
                  0.378945D+03           0.422246D-02
                  0.889132D+02           0.330712D-01
                  0.281600D+02           0.139057D+00
                  0.102445D+02           0.353164D+00
                  0.389172D+01           0.500000D+00
                  0.145411D+01           0.289954D+00
            P   2   1.00
                  0.690320D+00           0.221541D+00
                  0.251733D+00           0.500000D+00
            P   1   1.00
                  0.843311D-01           1.0000000
            D   1   1.00
                  0.500000D+00           1.0000000
            ****
            -S     0
            S   7   1.00
                  0.492994D+05           0.745680D-03
                  0.739584D+04           0.575893D-02
                  0.168330D+04           0.294637D-01
                  0.476144D+03           0.113223D+00
                  0.154329D+03           0.315267D+00
                  0.550288D+02           0.500000D+00
                  0.205029D+02           0.299093D+00
            S   3   1.00
                  0.459596D+02          -0.874744D-01
                  0.492740D+01           0.558303D+00
                  0.191799D+01           0.500000D+00
            S   1   1.00
                  0.368498D+00           1.0000000
            S   1   1.00
                  0.129165D+00           1.0000000
            P   6   1.00
                  0.451662D+03           0.400554D-02
                  0.106098D+03           0.315665D-01
                  0.336996D+02           0.134441D+00
                  0.123054D+02           0.347659D+00
                  0.471412D+01           0.500000D+00
                  0.178105D+01           0.287922D+00
            P   2   1.00
                  0.872235D+00           0.243521D+00
                  0.310278D+00           0.500000D+00
            P   1   1.00
                  0.100194D+00           1.0000000
            D   1   1.00
                  0.550000D+00           1.0000000
            ****
            -Cl     0
            S   7   1.00
                  0.561295D+05           0.739040D-03
                  0.842032D+04           0.570820D-02
                  0.191646D+04           0.292141D-01
                  0.542099D+03           0.112411D+00
                  0.175740D+03           0.313999D+00
                  0.627191D+02           0.500000D+00
                  0.234123D+02           0.302077D+00
            S   3   1.00
                  0.522067D+02          -0.897496D-01
                  0.566022D+01           0.573007D+00
                  0.224230D+01           0.500000D+00
            S   1   1.00
                  0.456488D+00           1.0000000
            S   1   1.00
                  0.159693D+00           1.0000000
            P   6   1.00
                  0.533333D+03           0.379695D-02
                  0.125415D+03           0.300914D-01
                  0.399394D+02           0.129733D+00
                  0.146334D+02           0.341517D+00
                  0.564837D+01           0.500000D+00
                  0.215360D+01           0.289333D+00
            P   2   1.00
                  0.108810D+01           0.252417D+00
                  0.387168D+00           0.500000D+00
            P   1   1.00
                  0.123929D+00           1.0000000
            D   1   1.00
                  0.600000D+00           1.0000000
            ****
            -Ar     0
            S   7   1.00
                  0.634098D+05           0.733121D-03
                  0.951233D+04           0.566292D-02
                  0.216496D+04           0.289917D-01
                  0.612389D+03           0.111687D+00
                  0.198562D+03           0.312856D+00
                  0.709178D+02           0.500000D+00
                  0.265171D+02           0.304730D+00
            S   3   1.00
                  0.588706D+02          -0.919772D-01
                  0.644247D+01           0.588195D+00
                  0.258785D+01           0.500000D+00
            S   1   1.00
                  0.552744D+00           1.0000000
            S   1   1.00
                  0.192488D+00           1.0000000
            P   6   1.00
                  0.621842D+03           0.362367D-02
                  0.146357D+03           0.288584D-01
                  0.467050D+02           0.125773D+00
                  0.171619D+02           0.336195D+00
                  0.666792D+01           0.500000D+00
                  0.256045D+01           0.291186D+00
            P   2   1.00
                  0.131958D+01           0.259971D+00
                  0.470543D+00           0.500000D+00
            P   1   1.00
                  0.150307D+00           1.0000000
            D   1   1.00
                  0.650000D+00           1.0000000
            ****
            -K     0
            S   6   1.00
                  0.316106D+05           0.192562D-02
                  0.474706D+04           0.147484D-01
                  0.108035D+04           0.728859D-01
                  0.304885D+03           0.250460D+00
                  0.987814D+02           0.500000D+00
                  0.337028D+02           0.375726D+00
            S   4   1.00
                  0.654776D+02          -0.841271D-01
                  0.748464D+01           0.500000D+00
                  0.320503D+01           0.464317D+00
                  0.102359D+01           0.509269D-01
            S   2   1.00
                  0.647373D+00           0.500000D+00
                  0.230414D+00           0.195200D+00
            S   1   1.00
                  0.377435D-01           1.0000000
            S   1   1.00
                  0.142198D-01           1.0000000
            P   6   1.00
                  0.678654D+03           0.380540D-02
                  0.159791D+03           0.302753D-01
                  0.509469D+02           0.131796D+00
                  0.187202D+02           0.347859D+00
                  0.729148D+01           0.500000D+00
                  0.279182D+01           0.266938D+00
            P   3   1.00
                  0.159167D+01           0.268322D+00
                  0.593741D+00           0.500000D+00
                  0.206071D+00           0.263890D+00
            P   1   1.00
                  0.496000D-01           1.0000000
            D   3   1.00
                  0.665202D+01           0.762917D-01
                  0.161238D+01           0.295364D+00
                  0.429003D+00           0.500000D+00
            D   1   1.00
                  0.973407D-01           1.0000000
            ****
            -Ca     0
            S   6   1.00
                  0.352761D+05           0.191287D-02
                  0.529742D+04           0.146530D-01
                  0.120560D+04           0.724657D-01
                  0.340268D+03           0.249552D+00
                  0.110326D+03           0.500000D+00
                  0.376890D+02           0.378890D+00
            S   4   1.00
                  0.729140D+02          -0.831772D-01
                  0.838675D+01           0.500000D+00
                  0.362879D+01           0.456467D+00
                  0.113050D+01           0.508069D-01
            S   2   1.00
                  0.777792D+00           0.500000D+00
                  0.300306D+00           0.198722D+00
            S   1   1.00
                  0.612191D-01           1.0000000
            S   1   1.00
                  0.232795D-01           1.0000000
            P   6   1.00
                  0.777741D+03           0.365637D-02
                  0.183241D+03           0.292122D-01
                  0.585250D+02           0.128332D+00
                  0.215602D+02           0.343242D+00
                  0.844731D+01           0.500000D+00
                  0.326211D+01           0.270477D+00
            P   3   1.00
                  0.189530D+01           0.273762D+00
                  0.733370D+00           0.500000D+00
                  0.269575D+00           0.242372D+00
            P   1   1.00
                  0.668000D-01           1.0000000
            D   3   1.00
                  0.830114D+01           0.737252D-01
                  0.204947D+01           0.292487D+00
                  0.561615D+00           0.500000D+00
            D   1   1.00
                  0.132559D+00           1.0000000
            ****
            -Sc     0
            S   6   1.00
                  0.391008D+05           0.190352D-02
                  0.587169D+04           0.145831D-01
                  0.133627D+04           0.721609D-01
                  0.377180D+03           0.248917D+00
                  0.122366D+03           0.500000D+00
                  0.418515D+02           0.380997D+00
            S   4   1.00
                  0.808214D+02          -0.828031D-01
                  0.935010D+01           0.500000D+00
                  0.407874D+01           0.445369D+00
                  0.129222D+01           0.502650D-01
            S   2   1.00
                  0.906171D+00           0.500000D+00
                  0.350730D+00           0.202297D+00
            S   1   1.00
                  0.713833D-01           1.0000000
            S   1   1.00
                  0.269153D-01           1.0000000
            P   6   1.00
                  0.879476D+03           0.356025D-02
                  0.207316D+03           0.285377D-01
                  0.662978D+02           0.126274D+00
                  0.244732D+02           0.340912D+00
                  0.963232D+01           0.500000D+00
                  0.374292D+01           0.270831D+00
            P   3   1.00
                  0.220326D+01           0.279092D+00
                  0.857807D+00           0.500000D+00
                  0.317049D+00           0.238161D+00
            P   1   1.00
                  0.780000D-01           1.0000000
            D   5   1.00
                  0.294888D+02           0.152859D-01
                  0.824425D+01           0.891619D-01
                  0.272868D+01           0.271144D+00
                  0.967352D+00           0.449546D+00
                  0.321267D+00           0.500000D+00
            D   1   1.00
                  0.970742D-01           1.0000000
            F   1   1.00
                  0.931000D+00           1.0000000
            ****
            -Ti     0
            S   6   1.00
                  0.431197D+05           0.189519D-02
                  0.647516D+04           0.145208D-01
                  0.147359D+04           0.718879D-01
                  0.415975D+03           0.248351D+00
                  0.135023D+03           0.500000D+00
                  0.462318D+02           0.382870D+00
            S   4   1.00
                  0.891483D+02          -0.824262D-01
                  0.103678D+02           0.500000D+00
                  0.455330D+01           0.435606D+00
                  0.146299D+01           0.496620D-01
            S   2   1.00
                  0.104172D+01           0.500000D+00
                  0.406143D+00           0.207817D+00
            S   1   1.00
                  0.818418D-01           1.0000000
            S   1   1.00
                  0.309436D-01           1.0000000
            P   6   1.00
                  0.986708D+03           0.348118D-02
                  0.232698D+03           0.279830D-01
                  0.744934D+02           0.124608D+00
                  0.275466D+02           0.339120D+00
                  0.108846D+02           0.500000D+00
                  0.425174D+01           0.270949D+00
            P   3   1.00
                  0.252996D+01           0.283265D+00
                  0.988361D+00           0.500000D+00
                  0.367093D+00           0.234630D+00
            P   1   1.00
                  0.900000D-01           1.0000000
            D   5   1.00
                  0.362856D+02           0.151531D-01
                  0.102249D+02           0.913776D-01
                  0.343745D+01           0.282425D+00
                  0.124709D+01           0.472824D+00
                  0.429726D+00           0.500000D+00
            D   1   1.00
                  0.131858D+00           1.0000000
            F   1   1.00
                  0.102500D+01           1.0000000
            ****
            -V     0
            S   6   1.00
                  0.473293D+05           0.188790D-02
                  0.710720D+04           0.144662D-01
                  0.161741D+04           0.716497D-01
                  0.456605D+03           0.247859D+00
                  0.148283D+03           0.500000D+00
                  0.508242D+02           0.384469D+00
            S   4   1.00
                  0.979076D+02          -0.821286D-01
                  0.114399D+02           0.500000D+00
                  0.504930D+01           0.426310D+00
                  0.165050D+01           0.487248D-01
            S   2   1.00
                  0.118496D+01           0.500000D+00
                  0.462825D+00           0.215230D+00
            S   1   1.00
                  0.914570D-01           1.0000000
            S   1   1.00
                  0.344979D-01           1.0000000
            P   6   1.00
                  0.109904D+04           0.341756D-02
                  0.259292D+03           0.275387D-01
                  0.830803D+02           0.123313D+00
                  0.307683D+02           0.337875D+00
                  0.121985D+02           0.500000D+00
                  0.478595D+01           0.270657D+00
            P   3   1.00
                  0.287460D+01           0.286609D+00
                  0.112325D+01           0.500000D+00
                  0.417167D+00           0.233576D+00
            P   1   1.00
                  0.101000D+00           1.0000000
            D   5   1.00
                  0.422105D+02           0.152518D-01
                  0.119584D+02           0.934166D-01
                  0.406021D+01           0.289084D+00
                  0.148654D+01           0.481736D+00
                  0.517117D+00           0.500000D+00
            D   1   1.00
                  0.159051D+00           1.0000000
            F   1   1.00
                  0.112700D+01           1.0000000
            ****
            -Cr     0
            S   6   1.00
                  0.517280D+05           0.188154D-02
                  0.776773D+04           0.144185D-01
                  0.176773D+04           0.714407D-01
                  0.499079D+03           0.247429D+00
                  0.162149D+03           0.500000D+00
                  0.556312D+02           0.385873D+00
            S   4   1.00
                  0.107093D+03          -0.818647D-01
                  0.125660D+02           0.500000D+00
                  0.556790D+01           0.417878D+00
                  0.184998D+01           0.477229D-01
            S   2   1.00
                  0.133608D+01           0.500000D+00
                  0.522186D+00           0.222769D+00
            S   1   1.00
                  0.101192D+00           1.0000000
            S   1   1.00
                  0.379481D-01           1.0000000
            P   6   1.00
                  0.121694D+04           0.336341D-02
                  0.287202D+03           0.271619D-01
                  0.920920D+02           0.122235D+00
                  0.341502D+02           0.336930D+00
                  0.135790D+02           0.500000D+00
                  0.534791D+01           0.270260D+00
            P   3   1.00
                  0.323859D+01           0.289343D+00
                  0.126466D+01           0.500000D+00
                  0.469192D+00           0.233201D+00
            P   1   1.00
                  0.113000D+00           1.0000000
            D   5   1.00
                  0.480525D+02           0.154866D-01
                  0.136735D+02           0.957797D-01
                  0.467843D+01           0.295828D+00
                  0.172198D+01           0.488965D+00
                  0.601331D+00           0.500000D+00
            D   1   1.00
                  0.184366D+00           1.0000000
            F   1   1.00
                  0.124000D+01           1.0000000
            ****
            -Mn     0
            S   6   1.00
                  0.563240D+05           0.187561D-02
                  0.845777D+04           0.143742D-01
                  0.192476D+04           0.712467D-01
                  0.543440D+03           0.247033D+00
                  0.176629D+03           0.500000D+00
                  0.606537D+02           0.387119D+00
            S   4   1.00
                  0.116704D+03          -0.816294D-01
                  0.137458D+02           0.500000D+00
                  0.610862D+01           0.410186D+00
                  0.206026D+01           0.466709D-01
            S   2   1.00
                  0.149449D+01           0.500000D+00
                  0.583884D+00           0.230352D+00
            S   1   1.00
                  0.110634D+00           1.0000000
            S   1   1.00
                  0.412430D-01           1.0000000
            P   6   1.00
                  0.134041D+04           0.331662D-02
                  0.316440D+03           0.268363D-01
                  0.101533D+03           0.121317D+00
                  0.376952D+02           0.336177D+00
                  0.150269D+02           0.500000D+00
                  0.593768D+01           0.269791D+00
            P   3   1.00
                  0.362197D+01           0.291374D+00
                  0.141230D+01           0.500000D+00
                  0.522848D+00           0.233359D+00
            P   1   1.00
                  0.125000D+00           1.0000000
            D   5   1.00
                  0.543583D+02           0.155922D-01
                  0.155312D+02           0.972824D-01
                  0.535034D+01           0.300763D+00
                  0.197962D+01           0.494578D+00
                  0.694554D+00           0.500000D+00
            D   1   1.00
                  0.213364D+00           1.0000000
            F   1   1.00
                  0.136400D+01           1.0000000
            ****
            -Fe     0
            S   6   1.00
                  0.611208D+05           0.186994D-02
                  0.917788D+04           0.143321D-01
                  0.208858D+04           0.710640D-01
                  0.589714D+03           0.246660D+00
                  0.191734D+03           0.500000D+00
                  0.658939D+02           0.388271D+00
            S   4   1.00
                  0.126731D+03          -0.814107D-01
                  0.149798D+02           0.500000D+00
                  0.667445D+01           0.403376D+00
                  0.228282D+01           0.457264D-01
            S   2   1.00
                  0.166099D+01           0.500000D+00
                  0.649495D+00           0.235469D+00
            S   1   1.00
                  0.117778D+00           1.0000000
            S   1   1.00
                  0.427351D-01           1.0000000
            P   6   1.00
                  0.147001D+04           0.327351D-02
                  0.347130D+03           0.265351D-01
                  0.111447D+03           0.120453D+00
                  0.414219D+02           0.335397D+00
                  0.165515D+02           0.500000D+00
                  0.655951D+01           0.269494D+00
            P   3   1.00
                  0.402754D+01           0.292780D+00
                  0.157010D+01           0.500000D+00
                  0.581064D+00           0.232018D+00
            P   1   1.00
                  0.138000D+00           1.0000000
            D   5   1.00
                  0.595410D+02           0.164335D-01
                  0.170517D+02           0.102608D+00
                  0.589656D+01           0.313394D+00
                  0.217936D+01           0.504816D+00
                  0.759780D+00           0.500000D+00
            D   1   1.00
                  0.229971D+00           1.0000000
            F   1   1.00
                  0.150000D+01           1.0000000
            ****
            -Co     0
            S   6   1.00
                  0.660912D+05           0.186548D-02
                  0.992418D+04           0.142987D-01
                  0.225843D+04           0.709175D-01
                  0.637713D+03           0.246365D+00
                  0.207415D+03           0.500000D+00
                  0.713421D+02           0.389230D+00
            S   4   1.00
                  0.137187D+03          -0.812052D-01
                  0.162666D+02           0.500000D+00
                  0.726156D+01           0.397030D+00
                  0.251550D+01           0.447426D-01
            S   2   1.00
                  0.183509D+01           0.500000D+00
                  0.717218D+00           0.240983D+00
            S   1   1.00
                  0.124883D+00           1.0000000
            S   1   1.00
                  0.442420D-01           1.0000000
            P   6   1.00
                  0.160526D+04           0.323568D-02
                  0.379149D+03           0.262722D-01
                  0.121788D+03           0.119709D+00
                  0.453110D+02           0.334772D+00
                  0.181433D+02           0.500000D+00
                  0.720897D+01           0.269125D+00
            P   3   1.00
                  0.445203D+01           0.294017D+00
                  0.173403D+01           0.500000D+00
                  0.640868D+00           0.231584D+00
            P   1   1.00
                  0.151000D+00           1.0000000
            D   5   1.00
                  0.656220D+02           0.168248D-01
                  0.188404D+02           0.105482D+00
                  0.654261D+01           0.320220D+00
                  0.242111D+01           0.510102D+00
                  0.842515D+00           0.500000D+00
            D   1   1.00
                  0.253601D+00           1.0000000
            F   1   1.00
                  0.165000D+01           1.0000000
            ****
            -Ni     0
            S   6   1.00
                  0.712691D+05           0.186093D-02
                  0.107017D+05           0.142645D-01
                  0.243534D+04           0.707685D-01
                  0.687695D+03           0.246062D+00
                  0.223739D+03           0.500000D+00
                  0.770127D+02           0.390160D+00
            S   4   1.00
                  0.148063D+03          -0.810407D-01
                  0.176088D+02           0.500000D+00
                  0.787312D+01           0.391423D+00
                  0.275983D+01           0.438584D-01
            S   2   1.00
                  0.201713D+01           0.500000D+00
                  0.787528D+00           0.246308D+00
            S   1   1.00
                  0.132554D+00           1.0000000
            S   1   1.00
                  0.460751D-01           1.0000000
            P   6   1.00
                  0.174616D+04           0.320208D-02
                  0.412525D+03           0.260372D-01
                  0.132571D+03           0.119052D+00
                  0.493665D+02           0.334261D+00
                  0.198041D+02           0.500000D+00
                  0.788720D+01           0.268761D+00
            P   3   1.00
                  0.489589D+01           0.295195D+00
                  0.190493D+01           0.500000D+00
                  0.702992D+00           0.231470D+00
            P   1   1.00
                  0.165000D+00           1.0000000
            D   5   1.00
                  0.719655D+02           0.171693D-01
                  0.207102D+02           0.108007D+00
                  0.721827D+01           0.326242D+00
                  0.267357D+01           0.514742D+00
                  0.928961D+00           0.500000D+00
            D   1   1.00
                  0.278115D+00           1.0000000
            F   1   1.00
                  0.181500D+01           1.0000000
            ****
            -Cu     0
            S   6   1.00
                  0.766372D+05           0.185685D-02
                  0.115079D+05           0.142337D-01
                  0.261882D+04           0.706331D-01
                  0.739536D+03           0.245788D+00
                  0.240673D+03           0.500000D+00
                  0.828992D+02           0.391002D+00
            S   4   1.00
                  0.159362D+03          -0.809030D-01
                  0.190056D+02           0.500000D+00
                  0.850865D+01           0.386407D+00
                  0.301482D+01           0.430550D-01
            S   2   1.00
                  0.220701D+01           0.500000D+00
                  0.860421D+00           0.251281D+00
            S   1   1.00
                  0.140845D+00           1.0000000
            S   1   1.00
                  0.482383D-01           1.0000000
            P   6   1.00
                  0.189268D+04           0.317232D-02
                  0.447221D+03           0.258310D-01
                  0.143778D+03           0.118490D+00
                  0.535818D+02           0.333882D+00
                  0.215313D+02           0.500000D+00
                  0.859335D+01           0.268355D+00
            P   3   1.00
                  0.535950D+01           0.296260D+00
                  0.208306D+01           0.500000D+00
                  0.767566D+00           0.231525D+00
            P   1   1.00
                  0.180000D+00           1.0000000
            D   5   1.00
                  0.785450D+02           0.174901D-01
                  0.226523D+02           0.110327D+00
                  0.792099D+01           0.331718D+00
                  0.293590D+01           0.518899D+00
                  0.101874D+01           0.500000D+00
            D   1   1.00
                  0.303322D+00           1.0000000
            F   1   1.00
                  0.199700D+01           1.0000000
            ****
            -Zn     0
            S   6   1.00
                  0.822032D+05           0.185297D-02
                  0.123434D+05           0.142051D-01
                  0.280889D+04           0.705093D-01
                  0.793234D+03           0.245538D+00
                  0.258216D+03           0.500000D+00
                  0.890002D+02           0.391760D+00
            S   4   1.00
                  0.171085D+03          -0.807753D-01
                  0.204557D+02           0.500000D+00
                  0.916604D+01           0.381740D+00
                  0.327921D+01           0.422389D-01
            S   2   1.00
                  0.240434D+01           0.500000D+00
                  0.935398D+00           0.256230D+00
            S   1   1.00
                  0.149043D+00           1.0000000
            S   1   1.00
                  0.504596D-01           1.0000000
            P   6   1.00
                  0.204440D+04           0.314691D-02
                  0.483159D+03           0.256552D-01
                  0.155392D+03           0.118019D+00
                  0.579545D+02           0.333605D+00
                  0.233250D+02           0.500000D+00
                  0.932731D+01           0.267913D+00
            P   3   1.00
                  0.584243D+01           0.297114D+00
                  0.226759D+01           0.500000D+00
                  0.833841D+00           0.231863D+00
            P   1   1.00
                  0.195000D+00           1.0000000
            D   5   1.00
                  0.855125D+02           0.177249D-01
                  0.247130D+02           0.112110D+00
                  0.866791D+01           0.336083D+00
                  0.321585D+01           0.522226D+00
                  0.111531D+01           0.500000D+00
            D   1   1.00
                  0.331095D+00           1.0000000
            F   1   1.00
                  0.219600D+01           1.0000000
            ****
            -Ga     0
            S   6   1.00
                  0.880200D+05           0.184835D-02
                  0.132168D+05           0.141705D-01
                  0.300766D+04           0.703552D-01
                  0.849422D+03           0.245199D+00
                  0.276595D+03           0.500000D+00
                  0.953959D+02           0.392973D+00
            S   4   1.00
                  0.183189D+03          -0.804620D-01
                  0.219548D+02           0.500000D+00
                  0.985248D+01           0.378347D+00
                  0.348869D+01           0.423214D-01
            S   2   1.00
                  0.260770D+01           0.500000D+00
                  0.103672D+01           0.254793D+00
            S   1   1.00
                  0.188517D+00           1.0000000
            S   1   1.00
                  0.663048D-01           1.0000000
            P   6   1.00
                  0.222696D+04           0.306402D-02
                  0.526420D+03           0.250310D-01
                  0.169409D+03           0.115722D+00
                  0.632435D+02           0.329792D+00
                  0.255018D+02           0.500000D+00
                  0.102420D+02           0.272708D+00
            P   3   1.00
                  0.651924D+01           0.290703D+00
                  0.264620D+01           0.500000D+00
                  0.104896D+01           0.270636D+00
            P   1   1.00
                  0.259549D+00           1.0000000
            P   1   1.00
                  0.646505D-01           1.0000000
            D   6   1.00
                  0.101407D+03           0.153550D-01
                  0.294416D+02           0.100547D+00
                  0.104513D+02           0.312568D+00
                  0.396696D+01           0.510489D+00
                  0.143116D+01           0.500000D+00
                  0.455184D+00           0.267059D+00
            D   1   1.00
                  0.151000D+00           1.0000000
            ****
            -Ge     0
            S   6   1.00
                  0.940720D+05           0.184322D-02
                  0.141255D+05           0.141318D-01
                  0.321444D+04           0.701834D-01
                  0.907847D+03           0.244818D+00
                  0.295691D+03           0.500000D+00
                  0.102034D+03           0.394247D+00
            S   4   1.00
                  0.195700D+03          -0.801662D-01
                  0.235078D+02           0.500000D+00
                  0.105672D+02           0.375307D+00
                  0.370706D+01           0.426829D-01
            S   2   1.00
                  0.281835D+01           0.500000D+00
                  0.114082D+01           0.248819D+00
            S   1   1.00
                  0.231053D+00           1.0000000
            S   1   1.00
                  0.828034D-01           1.0000000
            P   6   1.00
                  0.240479D+04           0.301461D-02
                  0.568546D+03           0.246650D-01
                  0.183041D+03           0.114443D+00
                  0.683859D+02           0.327843D+00
                  0.276206D+02           0.500000D+00
                  0.111188D+02           0.274897D+00
            P   3   1.00
                  0.709479D+01           0.290052D+00
                  0.291066D+01           0.500000D+00
                  0.118060D+01           0.269290D+00
            P   1   1.00
                  0.323882D+00           1.0000000
            P   1   1.00
                  0.876833D-01           1.0000000
            D   6   1.00
                  0.117355D+03           0.137980D-01
                  0.342013D+02           0.926753D-01
                  0.122589D+02           0.295974D+00
                  0.472959D+01           0.502164D+00
                  0.175580D+01           0.500000D+00
                  0.584499D+00           0.252619D+00
            D   1   1.00
                  0.194000D+00           1.0000000
            ****
            -As     0
            S   6   1.00
                  0.100314D+06           0.183873D-02
                  0.150628D+05           0.140978D-01
                  0.342776D+04           0.700313D-01
                  0.968153D+03           0.244472D+00
                  0.315419D+03           0.500000D+00
                  0.108898D+03           0.395452D+00
            S   4   1.00
                  0.208617D+03          -0.798828D-01
                  0.251148D+02           0.500000D+00
                  0.113102D+02           0.372555D+00
                  0.393496D+01           0.432472D-01
            S   2   1.00
                  0.303771D+01           0.500000D+00
                  0.124735D+01           0.240289D+00
            S   1   1.00
                  0.276603D+00           1.0000000
            S   1   1.00
                  0.998823D-01           1.0000000
            P   6   1.00
                  0.259071D+04           0.296650D-02
                  0.612631D+03           0.243044D-01
                  0.197311D+03           0.113168D+00
                  0.737719D+02           0.325850D+00
                  0.298432D+02           0.500000D+00
                  0.120398D+02           0.277240D+00
            P   3   1.00
                  0.768772D+01           0.289577D+00
                  0.318206D+01           0.500000D+00
                  0.131486D+01           0.264560D+00
            P   1   1.00
                  0.393916D+00           1.0000000
            P   1   1.00
                  0.111712D+00           1.0000000
            D   6   1.00
                  0.133680D+03           0.126655D-01
                  0.390846D+02           0.867896D-01
                  0.141215D+02           0.283323D+00
                  0.551628D+01           0.495738D+00
                  0.209379D+01           0.500000D+00
                  0.720841D+00           0.242044D+00
            D   1   1.00
                  0.238000D+00           1.0000000
            ****
            -Se     0
            S   6   1.00
                  0.106781D+06           0.183397D-02
                  0.160335D+05           0.140628D-01
                  0.364855D+04           0.698778D-01
                  0.103051D+04           0.244139D+00
                  0.335807D+03           0.500000D+00
                  0.115993D+03           0.396624D+00
            S   4   1.00
                  0.221948D+03          -0.795948D-01
                  0.267743D+02           0.500000D+00
                  0.120806D+02           0.369956D+00
                  0.417200D+01           0.439850D-01
            S   2   1.00
                  0.326597D+01           0.500000D+00
                  0.135565D+01           0.230246D+00
            S   1   1.00
                  0.326566D+00           1.0000000
            S   1   1.00
                  0.118490D+00           1.0000000
            P   6   1.00
                  0.278531D+04           0.291894D-02
                  0.658708D+03           0.239501D-01
                  0.212226D+03           0.111895D+00
                  0.794029D+02           0.323826D+00
                  0.321682D+02           0.500000D+00
                  0.130029D+02           0.279638D+00
            P   3   1.00
                  0.829337D+01           0.289271D+00
                  0.345432D+01           0.500000D+00
                  0.144531D+01           0.255922D+00
            P   1   1.00
                  0.469002D+00           1.0000000
            P   1   1.00
                  0.130992D+00           1.0000000
            D   6   1.00
                  0.150679D+03           0.117597D-01
                  0.441776D+02           0.819576D-01
                  0.160701D+02           0.272708D+00
                  0.634017D+01           0.490039D+00
                  0.244942D+01           0.500000D+00
                  0.866162D+00           0.233781D+00
            D   1   1.00
                  0.287000D+00           1.0000000
            ****
            -Br     0
            S   6   1.00
                  0.113433D+06           0.182992D-02
                  0.170323D+05           0.140321D-01
                  0.387589D+04           0.697400D-01
                  0.109478D+04           0.243825D+00
                  0.356841D+03           0.500000D+00
                  0.123317D+03           0.397752D+00
            S   4   1.00
                  0.235689D+03          -0.793206D-01
                  0.284876D+02           0.500000D+00
                  0.128790D+02           0.367555D+00
                  0.441844D+01           0.448874D-01
            S   2   1.00
                  0.350439D+01           0.500000D+00
                  0.146525D+01           0.219690D+00
            S   1   1.00
                  0.379819D+00           1.0000000
            S   1   1.00
                  0.138413D+00           1.0000000
            P   6   1.00
                  0.298807D+04           0.287305D-02
                  0.706766D+03           0.236047D-01
                  0.227783D+03           0.110651D+00
                  0.852764D+02           0.321818D+00
                  0.345964D+02           0.500000D+00
                  0.140102D+02           0.282092D+00
            P   3   1.00
                  0.891769D+01           0.288898D+00
                  0.373358D+01           0.500000D+00
                  0.157401D+01           0.245944D+00
            P   1   1.00
                  0.550724D+00           1.0000000
            P   1   1.00
                  0.154474D+00           1.0000000
            D   6   1.00
                  0.168232D+03           0.110431D-01
                  0.494419D+02           0.780716D-01
                  0.180878D+02           0.264128D+00
                  0.719405D+01           0.485386D+00
                  0.282020D+01           0.500000D+00
                  0.101870D+01           0.227220D+00
            D   1   1.00
                  0.337000D+00           1.0000000
            ****
            -Kr     0
            S   6   1.00
                  0.120331D+06           0.182528D-02
                  0.180679D+05           0.139974D-01
                  0.411152D+04           0.695845D-01
                  0.116136D+04           0.243471D+00
                  0.378605D+03           0.500000D+00
                  0.130886D+03           0.398923D+00
            S   4   1.00
                  0.249837D+03          -0.790662D-01
                  0.302557D+02           0.500000D+00
                  0.137065D+02           0.365371D+00
                  0.467780D+01           0.459156D-01
            S   2   1.00
                  0.375357D+01           0.500000D+00
                  0.157639D+01           0.209292D+00
            S   1   1.00
                  0.436357D+00           1.0000000
            S   1   1.00
                  0.159297D+00           1.0000000
            P   6   1.00
                  0.319862D+04           0.282945D-02
                  0.756666D+03           0.232762D-01
                  0.243943D+03           0.109451D+00
                  0.913837D+02           0.319847D+00
                  0.371244D+02           0.500000D+00
                  0.150593D+02           0.284531D+00
            P   3   1.00
                  0.956032D+01           0.288540D+00
                  0.401982D+01           0.500000D+00
                  0.169865D+01           0.235442D+00
            P   1   1.00
                  0.636321D+00           1.0000000
            P   1   1.00
                  0.180236D+00           1.0000000
            D   6   1.00
                  0.186382D+03           0.104609D-01
                  0.548882D+02           0.748792D-01
                  0.201773D+02           0.257087D+00
                  0.807921D+01           0.481565D+00
                  0.320673D+01           0.500000D+00
                  0.117886D+01           0.221870D+00
            D   1   1.00
                  0.393000D+00           1.0000000
            ****
 Initial command:
 /n/sw/g16_nehalem/g16/l1.exe "/n/holyscratch01/jacobsen_lab/cwagen_postts_170_205/Gau-130296.inp" -scrdir="/n/holyscratch01/jacobsen_lab/cwagen_postts_170_205/"
 Entering Link 1 = /n/sw/g16_nehalem/g16/l1.exe PID=    130297.
  
 Copyright (c) 1988,1990,1992,1993,1995,1998,2003,2009,2016,
            Gaussian, Inc.  All Rights Reserved.
  
 This is part of the Gaussian(R) 16 program.  It is based on
 the Gaussian(R) 09 system (copyright 2009, Gaussian, Inc.),
 the Gaussian(R) 03 system (copyright 2003, Gaussian, Inc.),
 the Gaussian(R) 98 system (copyright 1998, Gaussian, Inc.),
 the Gaussian(R) 94 system (copyright 1995, Gaussian, Inc.),
 the Gaussian 92(TM) system (copyright 1992, Gaussian, Inc.),
 the Gaussian 90(TM) system (copyright 1990, Gaussian, Inc.),
 the Gaussian 88(TM) system (copyright 1988, Gaussian, Inc.),
 the Gaussian 86(TM) system (copyright 1986, Carnegie Mellon
 University), and the Gaussian 82(TM) system (copyright 1983,
 Carnegie Mellon University). Gaussian is a federally registered
 trademark of Gaussian, Inc.
  
 This software contains proprietary and confidential information,
 including trade secrets, belonging to Gaussian, Inc.
  
 This software is provided under written license and may be
 used, copied, transmitted, or stored only in accord with that
 written license.
  
 The following legend is applicable only to US Government
 contracts under FAR:
  
                    RESTRICTED RIGHTS LEGEND
  
 Use, reproduction and disclosure by the US Government is
 subject to restrictions as set forth in subparagraphs (a)
 and (c) of the Commercial Computer Software - Restricted
 Rights clause in FAR 52.227-19.
  
 Gaussian, Inc.
 340 Quinnipiac St., Bldg. 40, Wallingford CT 06492
  
  
 ---------------------------------------------------------------
 Warning -- This program may not be used in any manner that
 competes with the business of Gaussian, Inc. or will provide
 assistance to any competitor of Gaussian, Inc.  The licensee
 of this program is prohibited from giving any competitor of
 Gaussian, Inc. access to this program.  By using this program,
 the user acknowledges that Gaussian, Inc. is engaged in the
 business of creating and licensing software in the field of
 computational chemistry and represents and warrants to the
 licensee that it is not a competitor of Gaussian, Inc. and that
 it will not use this program in any manner prohibited above.
 ---------------------------------------------------------------
  

 Cite this work as:
 Gaussian 16, Revision A.03,
 M. J. Frisch, G. W. Trucks, H. B. Schlegel, G. E. Scuseria, 
 M. A. Robb, J. R. Cheeseman, G. Scalmani, V. Barone, 
 G. A. Petersson, H. Nakatsuji, X. Li, M. Caricato, A. V. Marenich, 
 J. Bloino, B. G. Janesko, R. Gomperts, B. Mennucci, H. P. Hratchian, 
 J. V. Ortiz, A. F. Izmaylov, J. L. Sonnenberg, D. Williams-Young, 
 F. Ding, F. Lipparini, F. Egidi, J. Goings, B. Peng, A. Petrone, 
 T. Henderson, D. Ranasinghe, V. G. Zakrzewski, J. Gao, N. Rega, 
 G. Zheng, W. Liang, M. Hada, M. Ehara, K. Toyota, R. Fukuda, 
 J. Hasegawa, M. Ishida, T. Nakajima, Y. Honda, O. Kitao, H. Nakai, 
 T. Vreven, K. Throssell, J. A. Montgomery, Jr., J. E. Peralta, 
 F. Ogliaro, M. J. Bearpark, J. J. Heyd, E. N. Brothers, K. N. Kudin, 
 V. N. Staroverov, T. A. Keith, R. Kobayashi, J. Normand, 
 K. Raghavachari, A. P. Rendell, J. C. Burant, S. S. Iyengar, 
 J. Tomasi, M. Cossi, J. M. Millam, M. Klene, C. Adamo, R. Cammi, 
 J. W. Ochterski, R. L. Martin, K. Morokuma, O. Farkas, 
 J. B. Foresman, and D. J. Fox, Gaussian, Inc., Wallingford CT, 2016.
 
 ******************************************
 Gaussian 16:  ES64L-G16RevA.03 25-Dec-2016
                 6-Oct-2021 
 ******************************************
 %mem=32GB
 %nprocshared=16
 Will use up to   16 processors via shared memory.
 ----------------------------------------------------------------------
 #p opt=modredundant freq=noraman b3lyp/gen empiricaldispersion=gd3bj p
 op=hirshfeld scrf=(cpcm,solvent=toluene)
 ----------------------------------------------------------------------
 1/18=120,19=15,26=3,38=1/1,3;
 2/9=110,12=2,17=6,18=5,40=1/2;
 3/5=7,11=2,25=1,30=1,70=2101,71=1,72=13,74=-5,124=41/1,2,3;
 4//1;
 5/5=2,38=5,53=13/2;
 6/7=2,8=2,9=2,10=2,28=1,79=1/1;
 7//1,2,3,16;
 1/18=20,19=15,26=3/3(2);
 2/9=110/2;
 99//99;
 2/9=110/2;
 3/5=7,6=1,11=2,25=1,30=1,70=2105,71=1,72=13,74=-5,82=7,124=41/1,2,3;
 4/5=5,16=3,69=1/1;
 5/5=2,38=5,53=13/2;
 7//1,2,3,16;
 1/18=20,19=15,26=3/3(-5);
 2/9=110/2;
 6/7=2,8=2,9=2,10=2,19=2,28=1,79=1/1;
 99/9=1/99;
 Leave Link    1 at Wed Oct  6 07:52:17 2021, MaxMem=  4294967296 cpu:               1.7 elap:               0.1
 (Enter /n/sw/g16_nehalem/g16/l101.exe)
 -----
 title
 -----
 Symbolic Z-matrix:
 Charge =  0 Multiplicity = 1
 6                     4.40553  -4.16013   1.84338 
 6                     3.99163  -3.61412   3.05704 
 6                     2.94587  -2.69272   3.07794 
 6                     2.31398  -2.30083   1.88745 
 6                     2.76062  -2.83606   0.67216 
 6                     3.79702  -3.76374   0.65031 
 1                     5.2155   -4.88681   1.82966 
 1                     4.46652  -3.88456   3.9971 
 1                     2.27521  -2.53388  -0.24884 
 1                     4.12375  -4.18301  -0.29882 
 8                     2.56382  -2.15608   4.27931 
 6                     2.51801  -0.7126    4.24906 
 1                     3.48374  -0.33493   3.89155 
 1                     2.39097  -0.40816   5.2918 
 17                    0.59452   1.20432   3.45459 
 6                     0.66967   2.95407  -0.34697 
 7                     1.84695   2.59099   0.21925 
 1                     1.90271   2.6792    1.24232 
 7                    -0.33966   3.10447   0.54627 
 1                    -0.0208    3.07279   1.52387 
 6                    -1.53749   3.9242    0.35611 
 6                    -1.5385    4.9752    1.48331 
 1                    -1.44528   4.42626  -0.60818 
 6                    -4.11756   3.85276   0.63711 
 6                    -2.83528   5.76924   1.5958 
 1                    -1.35506   4.46273   2.43914 
 1                    -0.67561   5.63442   1.32796 
 6                    -4.00942   4.81756   1.81321 
 1                    -4.93014   3.13043   0.7874 
 1                    -4.38294   4.4225   -0.26104 
 1                    -2.75331   6.48641   2.42287 
 1                    -3.00334   6.35988   0.68148 
 1                    -4.95228   5.36931   1.92324 
 1                    -3.85841   4.25824   2.75 
 6                     3.07231   2.40783  -0.53208 
 1                     3.09164   3.15485  -1.3284 
 6                     3.07862   1.00665  -1.14574 
 6                     4.33412   2.65823   0.35844 
 6                     5.58857   2.42828  -0.49978 
 1                     5.6801    1.38401  -0.82341 
 1                     5.5882    3.06775  -1.39208 
 1                     6.48421   2.67377   0.08429 
 6                     4.38743   1.73829   1.5896 
 1                     3.56148   1.94222   2.28132 
 1                     4.36054   0.68058   1.30757 
 1                     5.31872   1.92859   2.13965 
 6                     4.30007   4.1274    0.81375 
 1                     4.26625   4.80603  -0.04908 
 1                     3.43444   4.33398   1.4531 
 1                     5.20434   4.35727   1.39223 
 8                     2.81437   0.01749  -0.4286 
 6                     3.49628  -0.53466  -3.02633 
 6                     3.61922   1.89802  -3.43525 
 6                     3.76953  -0.22379  -4.52642 
 6                     3.26611   1.20151  -4.74473 
 1                     4.66809   2.22422  -3.42592 
 1                     2.9673    2.74789  -3.22147 
 1                     4.85132  -0.26997  -4.70913 
 1                     3.289    -0.96328  -5.17392 
 1                     3.73044   1.6894   -5.60845 
 1                     2.17998   1.21721  -4.89454 
 7                     3.41214   0.8379   -2.43148 
 6                     4.67797  -1.28927  -2.40823 
 1                     4.48727  -1.53923  -1.3615 
 1                     4.88161  -2.20926  -2.9678 
 1                     5.57436  -0.66108  -2.46732 
 6                     2.15932  -1.25993  -2.86282 
 6                     2.10225  -2.62748  -2.70198 
 6                     0.94053  -0.52763  -2.91244 
 6                     0.86576  -3.30961  -2.55064 
 1                     3.01182  -3.2213   -2.66073 
 6                    -0.27423  -1.1588   -2.80845 
 1                     0.95954   0.55575  -2.99322 
 6                    -0.3529   -2.56424  -2.61704 
 1                    -1.19069  -0.57122  -2.84604 
 7                    -3.01135   2.24941  -0.84116 
 6                    -3.32753   0.90645  -0.81107 
 6                    -3.19737   2.74058  -2.1413 
 6                    -3.70711   0.53097  -2.10189 
 6                    -3.60698   1.68991  -2.92441 
 1                    -3.8402    1.73785  -3.9813 
 6                    -2.96616   4.14671  -2.58741 
 1                    -3.34201   4.24503  -3.61149 
 1                    -3.48632   4.88978  -1.97254 
 1                    -1.89773   4.39216  -2.59466 
 6                    -4.27158  -0.73828  -2.56078 
 8                    -4.55809  -1.58237  -1.54245 
 6                    -5.15805  -2.85518  -1.86188 
 1                    -6.19281  -2.68157  -2.18416 
 1                    -4.622    -3.30842  -2.70368 
 6                    -5.08305  -3.6981   -0.60861 
 1                    -5.5475   -4.67589  -0.78669 
 1                    -4.04158  -3.85269  -0.30447 
 1                    -5.6066   -3.2081    0.22111 
 8                    -4.49088  -1.01605  -3.72867 
 6                    -3.24512   0.02682   0.37135 
 6                    -2.36752  -1.03868   0.33789 
 6                    -4.16107   0.13259   1.4538 
 6                    -2.404    -2.05703   1.31792 
 1                    -1.65542  -1.12563  -0.47496 
 6                    -4.19326  -0.81865   2.44631 
 1                    -4.86738   0.95935   1.47559 
 6                    -1.57347  -3.20831   1.2308 
 6                    -3.33188  -1.94772   2.40219 
 1                    -4.90566  -0.73075   3.26527 
 6                    -1.64126  -4.19568   2.18759 
 1                    -0.89802  -3.30344   0.38302 
 6                    -3.36873  -2.97918   3.3785 
 6                    -2.54062  -4.07576   3.2757 
 1                    -1.00308  -5.07371   2.10875 
 1                    -4.07075  -2.89476   4.20706 
 1                    -2.58151  -4.86084   4.02853 
 6                    -2.8216    3.06042   0.37557 
 1                    -2.68959   2.3417    1.19092 
 16                    0.48807   3.17154  -2.02591 
 6                     1.09213  -1.40787   1.96915 
 1                     0.2333   -1.94953   2.36404 
 8                     0.76635  -0.70446   0.89895 
 6                     1.35964  -0.36425   3.15207 
 1                     1.64146   0.48406   2.53132 
 6                     0.02169  -0.3936    3.54686 
 6                    -0.47894  -1.31027   4.59989 
 1                    -0.94179  -0.70007   5.39043 
 1                    -1.29046  -1.93006   4.19046 
 1                     0.29151  -1.95291   5.02992 
 6                    -0.94663   0.47658   2.85558 
 1                    -1.98549   0.23855   3.0926 
 1                    -1.34834   1.66733   2.99263 
 1                    -0.78633   0.43974   1.76846 
 1                     1.56461  -0.3741    0.36058 
 6                    -1.58624  -3.24809  -2.4646 
 6                    -1.61732  -4.60355  -2.22889 
 1                    -2.50603  -2.67711  -2.525 
 1                    -2.56997  -5.11421  -2.10321 
 6                     0.80192  -4.70759  -2.30539 
 6                    -0.41097  -5.33943  -2.14178 
 1                     1.73101  -5.27277  -2.24171 
 1                    -0.44613  -6.41006  -1.94831 
 
 Add virtual bond connecting atoms H130       and O51        Dist= 2.89D+00.
 The following ModRedundant input section has been read:
 Coordinate type B  requires 2 centers, not 0.
 Error termination via Lnk1e in /n/sw/g16_nehalem/g16/l101.exe at Wed Oct  6 07:52:17 2021.
 Job cpu time:       0 days  0 hours  0 minutes  8.6 seconds.
 Elapsed time:       0 days  0 hours  0 minutes  0.6 seconds.
 File lengths (MBytes):  RWF=      6 Int=      0 D2E=      0 Chk=      1 Scr=      1
