 Entering Gaussian System, Link 0=g16
 Input=elimination-TS_OTf-nocat-c1.gjf
 Output=elimination-TS_OTf-nocat-c1.out
 Initial command:
 /n/sw/g16_nehalem/g16/l1.exe "/scratch/cwagen_elimination-TS_OTf-nocat-c1/Gau-153726.inp" -scrdir="/scratch/cwagen_elimination-TS_OTf-nocat-c1/"
 Entering Link 1 = /n/sw/g16_nehalem/g16/l1.exe PID=    153735.
  
 Copyright (c) 1988,1990,1992,1993,1995,1998,2003,2009,2016,
            Gaussian, Inc.  All Rights Reserved.
  
 This is part of the Gaussian(R) 16 program.  It is based on
 the Gaussian(R) 09 system (copyright 2009, Gaussian, Inc.),
 the Gaussian(R) 03 system (copyright 2003, Gaussian, Inc.),
 the Gaussian(R) 98 system (copyright 1998, Gaussian, Inc.),
 the Gaussian(R) 94 system (copyright 1995, Gaussian, Inc.),
 the Gaussian 92(TM) system (copyright 1992, Gaussian, Inc.),
 the Gaussian 90(TM) system (copyright 1990, Gaussian, Inc.),
 the Gaussian 88(TM) system (copyright 1988, Gaussian, Inc.),
 the Gaussian 86(TM) system (copyright 1986, Carnegie Mellon
 University), and the Gaussian 82(TM) system (copyright 1983,
 Carnegie Mellon University). Gaussian is a federally registered
 trademark of Gaussian, Inc.
  
 This software contains proprietary and confidential information,
 including trade secrets, belonging to Gaussian, Inc.
  
 This software is provided under written license and may be
 used, copied, transmitted, or stored only in accord with that
 written license.
  
 The following legend is applicable only to US Government
 contracts under FAR:
  
                    RESTRICTED RIGHTS LEGEND
  
 Use, reproduction and disclosure by the US Government is
 subject to restrictions as set forth in subparagraphs (a)
 and (c) of the Commercial Computer Software - Restricted
 Rights clause in FAR 52.227-19.
  
 Gaussian, Inc.
 340 Quinnipiac St., Bldg. 40, Wallingford CT 06492
  
  
 ---------------------------------------------------------------
 Warning -- This program may not be used in any manner that
 competes with the business of Gaussian, Inc. or will provide
 assistance to any competitor of Gaussian, Inc.  The licensee
 of this program is prohibited from giving any competitor of
 Gaussian, Inc. access to this program.  By using this program,
 the user acknowledges that Gaussian, Inc. is engaged in the
 business of creating and licensing software in the field of
 computational chemistry and represents and warrants to the
 licensee that it is not a competitor of Gaussian, Inc. and that
 it will not use this program in any manner prohibited above.
 ---------------------------------------------------------------
  

 Cite this work as:
 Gaussian 16, Revision A.03,
 M. J. Frisch, G. W. Trucks, H. B. Schlegel, G. E. Scuseria, 
 M. A. Robb, J. R. Cheeseman, G. Scalmani, V. Barone, 
 G. A. Petersson, H. Nakatsuji, X. Li, M. Caricato, A. V. Marenich, 
 J. Bloino, B. G. Janesko, R. Gomperts, B. Mennucci, H. P. Hratchian, 
 J. V. Ortiz, A. F. Izmaylov, J. L. Sonnenberg, D. Williams-Young, 
 F. Ding, F. Lipparini, F. Egidi, J. Goings, B. Peng, A. Petrone, 
 T. Henderson, D. Ranasinghe, V. G. Zakrzewski, J. Gao, N. Rega, 
 G. Zheng, W. Liang, M. Hada, M. Ehara, K. Toyota, R. Fukuda, 
 J. Hasegawa, M. Ishida, T. Nakajima, Y. Honda, O. Kitao, H. Nakai, 
 T. Vreven, K. Throssell, J. A. Montgomery, Jr., J. E. Peralta, 
 F. Ogliaro, M. J. Bearpark, J. J. Heyd, E. N. Brothers, K. N. Kudin, 
 V. N. Staroverov, T. A. Keith, R. Kobayashi, J. Normand, 
 K. Raghavachari, A. P. Rendell, J. C. Burant, S. S. Iyengar, 
 J. Tomasi, M. Cossi, J. M. Millam, M. Klene, C. Adamo, R. Cammi, 
 J. W. Ochterski, R. L. Martin, K. Morokuma, O. Farkas, 
 J. B. Foresman, and D. J. Fox, Gaussian, Inc., Wallingford CT, 2016.
 
 ******************************************
 Gaussian 16:  ES64L-G16RevA.03 25-Dec-2016
                28-Apr-2020 
 ******************************************
 %nprocshared=16
 Will use up to   16 processors via shared memory.
 %mem=32GB
 ----------------------------------------------------------------------
 #p opt=modredundant freq=noraman b3lyp/6-31g(d) empiricaldispersion=gd
 3bj
 ----------------------------------------------------------------------
 1/18=120,19=15,26=3,38=1/1,3;
 2/9=110,12=2,17=6,18=5,40=1/2;
 3/5=1,6=6,7=1,11=2,25=1,30=1,71=1,74=-5,124=41/1,2,3;
 4//1;
 5/5=2,38=5/2;
 6/7=2,8=2,9=2,10=2,28=1/1;
 7//1,2,3,16;
 1/18=20,19=15,26=3/3(2);
 2/9=110/2;
 99//99;
 2/9=110/2;
 3/5=1,6=6,7=1,11=2,25=1,30=1,71=1,74=-5,124=41/1,2,3;
 4/5=5,16=3,69=1/1;
 5/5=2,38=5/2;
 7//1,2,3,16;
 1/18=20,19=15,26=3/3(-5);
 2/9=110/2;
 6/7=2,8=2,9=2,10=2,19=2,28=1/1;
 99/9=1/99;
 Leave Link    1 at Tue Apr 28 08:12:39 2020, MaxMem=  4294967296 cpu:               1.1 elap:               0.1
 (Enter /n/sw/g16_nehalem/g16/l101.exe)
 -----
 title
 -----
 Symbolic Z-matrix:
 Charge =  0 Multiplicity = 1
 6                     2.67913   0.21395   2.58731 
 6                     3.51643   0.16632   1.45823 
 6                     2.60568  -0.06529   0.25063 
 6                     1.21601   0.0332    0.80686 
 1                     2.78365  -1.06649  -0.16466 
 6                     1.29729   0.17948   2.17325 
 8                     0.29155   0.25237   3.06068 
 14                    0.04894   1.17801   4.48619 
 6                     0.94843   2.81888   4.41852 
 1                     0.44653   3.52939   3.7542 
 1                     0.96937   3.25208   5.42762 
 1                     1.9848    2.71431   4.08799 
 6                    -1.81472   1.41383   4.51011 
 1                    -2.33812   0.45118   4.46507 
 1                    -2.12823   1.92263   5.43059 
 1                    -2.14845   2.02288   3.66192 
 6                     0.59528   0.12434   5.93889 
 1                     0.3195    0.60743   6.88556 
 1                     0.11221  -0.86034   5.91522 
 1                     1.68067  -0.01395   5.93617 
 6                     3.07563   0.43191   4.00185 
 1                     4.15942   0.46612   4.1247 
 1                     2.64239   1.37969   4.34588 
 1                     2.65731  -0.35445   4.64234 
 6                     4.92577  -0.31822   1.44592 
 6                     5.3191   -1.44429   2.18669 
 6                     5.88202   0.32854   0.64628 
 6                     6.63577  -1.90501   2.13855 
 1                     4.58477  -1.97231   2.78877 
 6                     7.19607  -0.13617   0.59221 
 1                     5.59584   1.21069   0.08036 
 6                     7.57923  -1.25224   1.34119 
 1                     6.92144  -2.77976   2.71676 
 1                     7.92353   0.3796   -0.02864 
 1                     8.6038   -1.6116    1.30191 
 6                     0.        0.        0. 
 6                    -0.12361  -0.88878  -1.08257 
 6                    -1.06812   0.8687    0.2939 
 6                    -1.28199  -0.89766  -1.85766 
 1                     0.71042  -1.53029  -1.34721 
 6                    -2.22945   0.84597  -0.47484 
 1                    -0.98152   1.55135   1.13267 
 6                    -2.33867  -0.03325  -1.55691 
 1                    -1.35535  -1.57351  -2.70508 
 1                    -3.04954   1.5165   -0.2322 
 1                    -3.24043  -0.04289  -2.16292 
 1                     2.77965   0.64677  -0.56589 
 1                     3.67599   1.53558   1.38047 
 16                    2.54582   3.55713   1.17891 
 8                     1.94628   3.47067   2.51676 
 8                     3.85609   2.74547   1.07972 
 8                     1.67267   3.36952   0.01592 
 6                     3.25337   5.28826   1.02909 
 9                     3.89123   5.43561  -0.13894 
 9                     4.10956   5.53419   2.02834 
 9                     2.24897   6.17429   1.09034 
 
 Add virtual bond connecting atoms O51        and H48        Dist= 2.38D+00.
 Add virtual bond connecting atoms H48        and C2         Dist= 2.61D+00.
 The following ModRedundant input section has been read:
 B      48      50 F                                                           
 B       2      48 F                                                           
 
 ITRead=  0  0  0  0  0  0  0  0  0  0  0  0  0  0  0  0  0  0  0  0
 ITRead=  0  0  0  0  0  0  0  0  0  0  0  0  0  0  0  0  0  0  0  0
 ITRead=  0  0  0  0  0  0  0  0  0  0  0  0  0  0  0  0
 MicOpt= -1 -1 -1 -1 -1 -1 -1 -1 -1 -1 -1 -1 -1 -1 -1 -1 -1 -1 -1 -1
 MicOpt= -1 -1 -1 -1 -1 -1 -1 -1 -1 -1 -1 -1 -1 -1 -1 -1 -1 -1 -1 -1
 MicOpt= -1 -1 -1 -1 -1 -1 -1 -1 -1 -1 -1 -1 -1 -1 -1 -1
 NAtoms=     56 NQM=       56 NQMF=       0 NMMI=      0 NMMIF=      0
                NMic=       0 NMicF=      0.
                    Isotopes and Nuclear Properties:
 (Nuclear quadrupole moments (NQMom) in fm**2, nuclear magnetic moments (NMagM)
  in nuclear magnetons)

  Atom         1           2           3           4           5           6           7           8           9          10
 IAtWgt=          12          12          12          12           1          12          16          28          12           1
 AtmWgt=  12.0000000  12.0000000  12.0000000  12.0000000   1.0078250  12.0000000  15.9949146  27.9769284  12.0000000   1.0078250
 NucSpn=           0           0           0           0           1           0           0           0           0           1
 AtZEff=   0.0000000   0.0000000   0.0000000   0.0000000   0.0000000   0.0000000   0.0000000   0.0000000   0.0000000   0.0000000
 NQMom=    0.0000000   0.0000000   0.0000000   0.0000000   0.0000000   0.0000000   0.0000000   0.0000000   0.0000000   0.0000000
 NMagM=    0.0000000   0.0000000   0.0000000   0.0000000   2.7928460   0.0000000   0.0000000   0.0000000   0.0000000   2.7928460
 AtZNuc=   6.0000000   6.0000000   6.0000000   6.0000000   1.0000000   6.0000000   8.0000000  14.0000000   6.0000000   1.0000000

  Atom        11          12          13          14          15          16          17          18          19          20
 IAtWgt=           1           1          12           1           1           1          12           1           1           1
 AtmWgt=   1.0078250   1.0078250  12.0000000   1.0078250   1.0078250   1.0078250  12.0000000   1.0078250   1.0078250   1.0078250
 NucSpn=           1           1           0           1           1           1           0           1           1           1
 AtZEff=   0.0000000   0.0000000   0.0000000   0.0000000   0.0000000   0.0000000   0.0000000   0.0000000   0.0000000   0.0000000
 NQMom=    0.0000000   0.0000000   0.0000000   0.0000000   0.0000000   0.0000000   0.0000000   0.0000000   0.0000000   0.0000000
 NMagM=    2.7928460   2.7928460   0.0000000   2.7928460   2.7928460   2.7928460   0.0000000   2.7928460   2.7928460   2.7928460
 AtZNuc=   1.0000000   1.0000000   6.0000000   1.0000000   1.0000000   1.0000000   6.0000000   1.0000000   1.0000000   1.0000000

  Atom        21          22          23          24          25          26          27          28          29          30
 IAtWgt=          12           1           1           1          12          12          12          12           1          12
 AtmWgt=  12.0000000   1.0078250   1.0078250   1.0078250  12.0000000  12.0000000  12.0000000  12.0000000   1.0078250  12.0000000
 NucSpn=           0           1           1           1           0           0           0           0           1           0
 AtZEff=   0.0000000   0.0000000   0.0000000   0.0000000   0.0000000   0.0000000   0.0000000   0.0000000   0.0000000   0.0000000
 NQMom=    0.0000000   0.0000000   0.0000000   0.0000000   0.0000000   0.0000000   0.0000000   0.0000000   0.0000000   0.0000000
 NMagM=    0.0000000   2.7928460   2.7928460   2.7928460   0.0000000   0.0000000   0.0000000   0.0000000   2.7928460   0.0000000
 AtZNuc=   6.0000000   1.0000000   1.0000000   1.0000000   6.0000000   6.0000000   6.0000000   6.0000000   1.0000000   6.0000000

  Atom        31          32          33          34          35          36          37          38          39          40
 IAtWgt=           1          12           1           1           1          12          12          12          12           1
 AtmWgt=   1.0078250  12.0000000   1.0078250   1.0078250   1.0078250  12.0000000  12.0000000  12.0000000  12.0000000   1.0078250
 NucSpn=           1           0           1           1           1           0           0           0           0           1
 AtZEff=   0.0000000   0.0000000   0.0000000   0.0000000   0.0000000   0.0000000   0.0000000   0.0000000   0.0000000   0.0000000
 NQMom=    0.0000000   0.0000000   0.0000000   0.0000000   0.0000000   0.0000000   0.0000000   0.0000000   0.0000000   0.0000000
 NMagM=    2.7928460   0.0000000   2.7928460   2.7928460   2.7928460   0.0000000   0.0000000   0.0000000   0.0000000   2.7928460
 AtZNuc=   1.0000000   6.0000000   1.0000000   1.0000000   1.0000000   6.0000000   6.0000000   6.0000000   6.0000000   1.0000000

  Atom        41          42          43          44          45          46          47          48          49          50
 IAtWgt=          12           1          12           1           1           1           1           1          32          16
 AtmWgt=  12.0000000   1.0078250  12.0000000   1.0078250   1.0078250   1.0078250   1.0078250   1.0078250  31.9720718  15.9949146
 NucSpn=           0           1           0           1           1           1           1           1           0           0
 AtZEff=   0.0000000   0.0000000   0.0000000   0.0000000   0.0000000   0.0000000   0.0000000   0.0000000   0.0000000   0.0000000
 NQMom=    0.0000000   0.0000000   0.0000000   0.0000000   0.0000000   0.0000000   0.0000000   0.0000000   0.0000000   0.0000000
 NMagM=    0.0000000   2.7928460   0.0000000   2.7928460   2.7928460   2.7928460   2.7928460   2.7928460   0.0000000   0.0000000
 AtZNuc=   6.0000000   1.0000000   6.0000000   1.0000000   1.0000000   1.0000000   1.0000000   1.0000000  16.0000000   8.0000000

  Atom        51          52          53          54          55          56
 IAtWgt=          16          16          12          19          19          19
 AtmWgt=  15.9949146  15.9949146  12.0000000  18.9984033  18.9984033  18.9984033
 NucSpn=           0           0           0           1           1           1
 AtZEff=   0.0000000   0.0000000   0.0000000   0.0000000   0.0000000   0.0000000
 NQMom=    0.0000000   0.0000000   0.0000000   0.0000000   0.0000000   0.0000000
 NMagM=    0.0000000   0.0000000   0.0000000   2.6288670   2.6288670   2.6288670
 AtZNuc=   8.0000000   8.0000000   6.0000000   9.0000000   9.0000000   9.0000000
 Leave Link  101 at Tue Apr 28 08:12:41 2020, MaxMem=  4294967296 cpu:               9.0 elap:               0.7
 (Enter /n/sw/g16_nehalem/g16/l103.exe)

 GradGradGradGradGradGradGradGradGradGradGradGradGradGradGradGradGradGrad
 Berny optimization.
 Initialization pass.
                           ----------------------------
                           !    Initial Parameters    !
                           ! (Angstroms and Degrees)  !
 --------------------------                            --------------------------
 ! Name  Definition              Value          Derivative Info.                !
 --------------------------------------------------------------------------------
 ! R1    R(1,2)                  1.4065         estimate D2E/DX2                !
 ! R2    R(1,6)                  1.443          estimate D2E/DX2                !
 ! R3    R(1,21)                 1.4851         estimate D2E/DX2                !
 ! R4    R(2,3)                  1.5302         estimate D2E/DX2                !
 ! R5    R(2,25)                 1.4904         estimate D2E/DX2                !
 ! R6    R(2,48)                 1.3807         Frozen                          !
 ! R7    R(3,4)                  1.5001         estimate D2E/DX2                !
 ! R8    R(3,5)                  1.0984         estimate D2E/DX2                !
 ! R9    R(3,47)                 1.0973         estimate D2E/DX2                !
 ! R10   R(4,6)                  1.3766         estimate D2E/DX2                !
 ! R11   R(4,36)                 1.4597         estimate D2E/DX2                !
 ! R12   R(6,7)                  1.3433         estimate D2E/DX2                !
 ! R13   R(7,8)                  1.7169         estimate D2E/DX2                !
 ! R14   R(8,9)                  1.8725         estimate D2E/DX2                !
 ! R15   R(8,13)                 1.8787         estimate D2E/DX2                !
 ! R16   R(8,17)                 1.8759         estimate D2E/DX2                !
 ! R17   R(9,10)                 1.0946         estimate D2E/DX2                !
 ! R18   R(9,11)                 1.0984         estimate D2E/DX2                !
 ! R19   R(9,12)                 1.0928         estimate D2E/DX2                !
 ! R20   R(13,14)                1.0967         estimate D2E/DX2                !
 ! R21   R(13,15)                1.0975         estimate D2E/DX2                !
 ! R22   R(13,16)                1.0962         estimate D2E/DX2                !
 ! R23   R(17,18)                1.098          estimate D2E/DX2                !
 ! R24   R(17,19)                1.097          estimate D2E/DX2                !
 ! R25   R(17,20)                1.0942         estimate D2E/DX2                !
 ! R26   R(21,22)                1.0913         estimate D2E/DX2                !
 ! R27   R(21,23)                1.0974         estimate D2E/DX2                !
 ! R28   R(21,24)                1.0971         estimate D2E/DX2                !
 ! R29   R(25,26)                1.4041         estimate D2E/DX2                !
 ! R30   R(25,27)                1.4043         estimate D2E/DX2                !
 ! R31   R(26,28)                1.3958         estimate D2E/DX2                !
 ! R32   R(26,29)                1.0865         estimate D2E/DX2                !
 ! R33   R(27,30)                1.3948         estimate D2E/DX2                !
 ! R34   R(27,31)                1.0865         estimate D2E/DX2                !
 ! R35   R(28,32)                1.3971         estimate D2E/DX2                !
 ! R36   R(28,33)                1.0868         estimate D2E/DX2                !
 ! R37   R(30,32)                1.3976         estimate D2E/DX2                !
 ! R38   R(30,34)                1.0866         estimate D2E/DX2                !
 ! R39   R(32,35)                1.0865         estimate D2E/DX2                !
 ! R40   R(36,37)                1.4061         estimate D2E/DX2                !
 ! R41   R(36,38)                1.4078         estimate D2E/DX2                !
 ! R42   R(37,39)                1.3938         estimate D2E/DX2                !
 ! R43   R(37,40)                1.085          estimate D2E/DX2                !
 ! R44   R(38,41)                1.3929         estimate D2E/DX2                !
 ! R45   R(38,42)                1.0849         estimate D2E/DX2                !
 ! R46   R(39,43)                1.3979         estimate D2E/DX2                !
 ! R47   R(39,44)                1.0864         estimate D2E/DX2                !
 ! R48   R(41,43)                1.3985         estimate D2E/DX2                !
 ! R49   R(41,45)                1.0868         estimate D2E/DX2                !
 ! R50   R(43,46)                1.0865         estimate D2E/DX2                !
 ! R51   R(48,50)                2.8333         Frozen                          !
 ! R52   R(48,51)                1.2597         estimate D2E/DX2                !
 ! R53   R(49,50)                1.4686         estimate D2E/DX2                !
 ! R54   R(49,51)                1.5445         estimate D2E/DX2                !
 ! R55   R(49,52)                1.4663         estimate D2E/DX2                !
 ! R56   R(49,53)                1.8761         estimate D2E/DX2                !
 ! R57   R(53,54)                1.339          estimate D2E/DX2                !
 ! R58   R(53,55)                1.3387         estimate D2E/DX2                !
 ! R59   R(53,56)                1.3408         estimate D2E/DX2                !
 ! A1    A(2,1,6)              109.8122         estimate D2E/DX2                !
 ! A2    A(2,1,21)             127.6362         estimate D2E/DX2                !
 ! A3    A(6,1,21)             122.1737         estimate D2E/DX2                !
 ! A4    A(1,2,3)              106.5194         estimate D2E/DX2                !
 ! A5    A(1,2,25)             125.4927         estimate D2E/DX2                !
 ! A6    A(1,2,48)              94.6133         estimate D2E/DX2                !
 ! A7    A(3,2,25)             120.4715         estimate D2E/DX2                !
 ! A8    A(3,2,48)             100.0459         estimate D2E/DX2                !
 ! A9    A(25,2,48)            102.279          estimate D2E/DX2                !
 ! A10   A(2,3,4)              104.4073         estimate D2E/DX2                !
 ! A11   A(2,3,5)              109.8709         estimate D2E/DX2                !
 ! A12   A(2,3,47)             113.246          estimate D2E/DX2                !
 ! A13   A(4,3,5)              110.4953         estimate D2E/DX2                !
 ! A14   A(4,3,47)             112.3462         estimate D2E/DX2                !
 ! A15   A(5,3,47)             106.5269         estimate D2E/DX2                !
 ! A16   A(3,4,6)              108.6827         estimate D2E/DX2                !
 ! A17   A(3,4,36)             124.4209         estimate D2E/DX2                !
 ! A18   A(6,4,36)             126.8879         estimate D2E/DX2                !
 ! A19   A(1,6,4)              110.1152         estimate D2E/DX2                !
 ! A20   A(1,6,7)              121.7454         estimate D2E/DX2                !
 ! A21   A(4,6,7)              128.1198         estimate D2E/DX2                !
 ! A22   A(6,7,8)              133.1241         estimate D2E/DX2                !
 ! A23   A(7,8,9)              111.9976         estimate D2E/DX2                !
 ! A24   A(7,8,13)             102.6166         estimate D2E/DX2                !
 ! A25   A(7,8,17)             107.397          estimate D2E/DX2                !
 ! A26   A(9,8,13)             111.5308         estimate D2E/DX2                !
 ! A27   A(9,8,17)             112.3516         estimate D2E/DX2                !
 ! A28   A(13,8,17)            110.4603         estimate D2E/DX2                !
 ! A29   A(8,9,10)             111.7467         estimate D2E/DX2                !
 ! A30   A(8,9,11)             108.759          estimate D2E/DX2                !
 ! A31   A(8,9,12)             112.4975         estimate D2E/DX2                !
 ! A32   A(10,9,11)            108.0789         estimate D2E/DX2                !
 ! A33   A(10,9,12)            108.2645         estimate D2E/DX2                !
 ! A34   A(11,9,12)            107.3097         estimate D2E/DX2                !
 ! A35   A(8,13,14)            111.269          estimate D2E/DX2                !
 ! A36   A(8,13,15)            110.6254         estimate D2E/DX2                !
 ! A37   A(8,13,16)            111.216          estimate D2E/DX2                !
 ! A38   A(14,13,15)           107.762          estimate D2E/DX2                !
 ! A39   A(14,13,16)           108.0966         estimate D2E/DX2                !
 ! A40   A(15,13,16)           107.7221         estimate D2E/DX2                !
 ! A41   A(8,17,18)            110.3279         estimate D2E/DX2                !
 ! A42   A(8,17,19)            111.0511         estimate D2E/DX2                !
 ! A43   A(8,17,20)            110.9756         estimate D2E/DX2                !
 ! A44   A(18,17,19)           107.6328         estimate D2E/DX2                !
 ! A45   A(18,17,20)           107.8727         estimate D2E/DX2                !
 ! A46   A(19,17,20)           108.8626         estimate D2E/DX2                !
 ! A47   A(1,21,22)            112.1467         estimate D2E/DX2                !
 ! A48   A(1,21,23)            108.6593         estimate D2E/DX2                !
 ! A49   A(1,21,24)            110.4303         estimate D2E/DX2                !
 ! A50   A(22,21,23)           109.251          estimate D2E/DX2                !
 ! A51   A(22,21,24)           109.5989         estimate D2E/DX2                !
 ! A52   A(23,21,24)           106.5877         estimate D2E/DX2                !
 ! A53   A(2,25,26)            121.4186         estimate D2E/DX2                !
 ! A54   A(2,25,27)            119.9265         estimate D2E/DX2                !
 ! A55   A(26,25,27)           118.6206         estimate D2E/DX2                !
 ! A56   A(25,26,28)           120.7156         estimate D2E/DX2                !
 ! A57   A(25,26,29)           119.5224         estimate D2E/DX2                !
 ! A58   A(28,26,29)           119.7521         estimate D2E/DX2                !
 ! A59   A(25,27,30)           120.6725         estimate D2E/DX2                !
 ! A60   A(25,27,31)           119.4181         estimate D2E/DX2                !
 ! A61   A(30,27,31)           119.8991         estimate D2E/DX2                !
 ! A62   A(26,28,32)           120.1636         estimate D2E/DX2                !
 ! A63   A(26,28,33)           119.6879         estimate D2E/DX2                !
 ! A64   A(32,28,33)           120.1458         estimate D2E/DX2                !
 ! A65   A(27,30,32)           120.2339         estimate D2E/DX2                !
 ! A66   A(27,30,34)           119.6513         estimate D2E/DX2                !
 ! A67   A(32,30,34)           120.1124         estimate D2E/DX2                !
 ! A68   A(28,32,30)           119.5911         estimate D2E/DX2                !
 ! A69   A(28,32,35)           120.1917         estimate D2E/DX2                !
 ! A70   A(30,32,35)           120.2171         estimate D2E/DX2                !
 ! A71   A(4,36,37)            120.875          estimate D2E/DX2                !
 ! A72   A(4,36,38)            120.1729         estimate D2E/DX2                !
 ! A73   A(37,36,38)           118.9511         estimate D2E/DX2                !
 ! A74   A(36,37,39)           120.3464         estimate D2E/DX2                !
 ! A75   A(36,37,40)           119.6            estimate D2E/DX2                !
 ! A76   A(39,37,40)           119.9642         estimate D2E/DX2                !
 ! A77   A(36,38,41)           120.4837         estimate D2E/DX2                !
 ! A78   A(36,38,42)           119.2815         estimate D2E/DX2                !
 ! A79   A(41,38,42)           120.2324         estimate D2E/DX2                !
 ! A80   A(37,39,43)           120.307          estimate D2E/DX2                !
 ! A81   A(37,39,44)           119.5945         estimate D2E/DX2                !
 ! A82   A(43,39,44)           120.0952         estimate D2E/DX2                !
 ! A83   A(38,41,43)           120.1589         estimate D2E/DX2                !
 ! A84   A(38,41,45)           119.7276         estimate D2E/DX2                !
 ! A85   A(43,41,45)           120.1133         estimate D2E/DX2                !
 ! A86   A(39,43,41)           119.7467         estimate D2E/DX2                !
 ! A87   A(39,43,46)           120.1238         estimate D2E/DX2                !
 ! A88   A(41,43,46)           120.1293         estimate D2E/DX2                !
 ! A89   A(50,49,51)           111.9562         estimate D2E/DX2                !
 ! A90   A(50,49,52)           118.1578         estimate D2E/DX2                !
 ! A91   A(50,49,53)           106.3219         estimate D2E/DX2                !
 ! A92   A(51,49,52)           112.767          estimate D2E/DX2                !
 ! A93   A(51,49,53)            99.197          estimate D2E/DX2                !
 ! A94   A(52,49,53)           106.2176         estimate D2E/DX2                !
 ! A95   A(48,51,49)           111.6004         estimate D2E/DX2                !
 ! A96   A(49,53,54)           110.5403         estimate D2E/DX2                !
 ! A97   A(49,53,55)           110.5554         estimate D2E/DX2                !
 ! A98   A(49,53,56)           108.8808         estimate D2E/DX2                !
 ! A99   A(54,53,55)           109.0411         estimate D2E/DX2                !
 ! A100  A(54,53,56)           108.9044         estimate D2E/DX2                !
 ! A101  A(55,53,56)           108.8822         estimate D2E/DX2                !
 ! A102  L(2,48,51,8,-1)       188.138          estimate D2E/DX2                !
 ! A103  L(2,48,51,8,-2)       187.2742         estimate D2E/DX2                !
 ! D1    D(6,1,2,3)             -6.3507         estimate D2E/DX2                !
 ! D2    D(6,1,2,25)          -155.7965         estimate D2E/DX2                !
 ! D3    D(6,1,2,48)            95.5649         estimate D2E/DX2                !
 ! D4    D(21,1,2,3)          -179.3396         estimate D2E/DX2                !
 ! D5    D(21,1,2,25)           31.2145         estimate D2E/DX2                !
 ! D6    D(21,1,2,48)          -77.424          estimate D2E/DX2                !
 ! D7    D(2,1,6,4)              3.4381         estimate D2E/DX2                !
 ! D8    D(2,1,6,7)           -178.0486         estimate D2E/DX2                !
 ! D9    D(21,1,6,4)           176.8808         estimate D2E/DX2                !
 ! D10   D(21,1,6,7)            -4.6059         estimate D2E/DX2                !
 ! D11   D(2,1,21,22)           -5.5811         estimate D2E/DX2                !
 ! D12   D(2,1,21,23)          115.2935         estimate D2E/DX2                !
 ! D13   D(2,1,21,24)         -128.1336         estimate D2E/DX2                !
 ! D14   D(6,1,21,22)         -177.7837         estimate D2E/DX2                !
 ! D15   D(6,1,21,23)          -56.9092         estimate D2E/DX2                !
 ! D16   D(6,1,21,24)           59.6637         estimate D2E/DX2                !
 ! D17   D(1,2,3,4)              6.7496         estimate D2E/DX2                !
 ! D18   D(1,2,3,5)           -111.7551         estimate D2E/DX2                !
 ! D19   D(1,2,3,47)           129.2686         estimate D2E/DX2                !
 ! D20   D(25,2,3,4)           158.0497         estimate D2E/DX2                !
 ! D21   D(25,2,3,5)            39.545          estimate D2E/DX2                !
 ! D22   D(25,2,3,47)          -79.4314         estimate D2E/DX2                !
 ! D23   D(48,2,3,4)           -91.1674         estimate D2E/DX2                !
 ! D24   D(48,2,3,5)           150.3279         estimate D2E/DX2                !
 ! D25   D(48,2,3,47)           31.3515         estimate D2E/DX2                !
 ! D26   D(1,2,25,26)           40.0            estimate D2E/DX2                !
 ! D27   D(1,2,25,27)         -142.1566         estimate D2E/DX2                !
 ! D28   D(3,2,25,26)         -105.565          estimate D2E/DX2                !
 ! D29   D(3,2,25,27)           72.2785         estimate D2E/DX2                !
 ! D30   D(48,2,25,26)         144.8509         estimate D2E/DX2                !
 ! D31   D(48,2,25,27)         -37.3056         estimate D2E/DX2                !
 ! D32   D(1,2,51,49)          -45.2855         estimate D2E/DX2                !
 ! D33   D(3,2,51,49)           62.6521         estimate D2E/DX2                !
 ! D34   D(25,2,51,49)        -174.474          estimate D2E/DX2                !
 ! D35   D(2,3,4,6)             -4.8192         estimate D2E/DX2                !
 ! D36   D(2,3,4,36)           174.1781         estimate D2E/DX2                !
 ! D37   D(5,3,4,6)            113.2591         estimate D2E/DX2                !
 ! D38   D(5,3,4,36)           -67.7437         estimate D2E/DX2                !
 ! D39   D(47,3,4,6)          -127.9247         estimate D2E/DX2                !
 ! D40   D(47,3,4,36)           51.0726         estimate D2E/DX2                !
 ! D41   D(3,4,6,1)              1.1469         estimate D2E/DX2                !
 ! D42   D(3,4,6,7)           -177.2461         estimate D2E/DX2                !
 ! D43   D(36,4,6,1)          -177.8189         estimate D2E/DX2                !
 ! D44   D(36,4,6,7)             3.7881         estimate D2E/DX2                !
 ! D45   D(3,4,36,37)           40.8425         estimate D2E/DX2                !
 ! D46   D(3,4,36,38)         -138.8123         estimate D2E/DX2                !
 ! D47   D(6,4,36,37)         -140.3453         estimate D2E/DX2                !
 ! D48   D(6,4,36,38)           40.0            estimate D2E/DX2                !
 ! D49   D(1,6,7,8)             40.0            estimate D2E/DX2                !
 ! D50   D(4,6,7,8)           -141.7745         estimate D2E/DX2                !
 ! D51   D(6,7,8,9)             28.9726         estimate D2E/DX2                !
 ! D52   D(6,7,8,13)           148.7105         estimate D2E/DX2                !
 ! D53   D(6,7,8,17)           -94.8336         estimate D2E/DX2                !
 ! D54   D(7,8,9,10)            74.6529         estimate D2E/DX2                !
 ! D55   D(7,8,9,11)          -166.1166         estimate D2E/DX2                !
 ! D56   D(7,8,9,12)           -47.3807         estimate D2E/DX2                !
 ! D57   D(13,8,9,10)          -39.7171         estimate D2E/DX2                !
 ! D58   D(13,8,9,11)           79.5133         estimate D2E/DX2                !
 ! D59   D(13,8,9,12)         -161.7508         estimate D2E/DX2                !
 ! D60   D(17,8,9,10)         -164.365          estimate D2E/DX2                !
 ! D61   D(17,8,9,11)          -45.1345         estimate D2E/DX2                !
 ! D62   D(17,8,9,12)           73.6014         estimate D2E/DX2                !
 ! D63   D(7,8,13,14)           55.1893         estimate D2E/DX2                !
 ! D64   D(7,8,13,15)          174.9441         estimate D2E/DX2                !
 ! D65   D(7,8,13,16)          -65.3859         estimate D2E/DX2                !
 ! D66   D(9,8,13,14)          175.2513         estimate D2E/DX2                !
 ! D67   D(9,8,13,15)          -64.9939         estimate D2E/DX2                !
 ! D68   D(9,8,13,16)           54.6762         estimate D2E/DX2                !
 ! D69   D(17,8,13,14)         -59.0487         estimate D2E/DX2                !
 ! D70   D(17,8,13,15)          60.7061         estimate D2E/DX2                !
 ! D71   D(17,8,13,16)        -179.6239         estimate D2E/DX2                !
 ! D72   D(7,8,17,18)         -171.3614         estimate D2E/DX2                !
 ! D73   D(7,8,17,19)          -52.1048         estimate D2E/DX2                !
 ! D74   D(7,8,17,20)           69.1309         estimate D2E/DX2                !
 ! D75   D(9,8,17,18)           65.0488         estimate D2E/DX2                !
 ! D76   D(9,8,17,19)         -175.6946         estimate D2E/DX2                !
 ! D77   D(9,8,17,20)          -54.4589         estimate D2E/DX2                !
 ! D78   D(13,8,17,18)         -60.187          estimate D2E/DX2                !
 ! D79   D(13,8,17,19)          59.0695         estimate D2E/DX2                !
 ! D80   D(13,8,17,20)        -179.6947         estimate D2E/DX2                !
 ! D81   D(2,25,26,28)         178.4064         estimate D2E/DX2                !
 ! D82   D(2,25,26,29)          -0.4472         estimate D2E/DX2                !
 ! D83   D(27,25,26,28)          0.5356         estimate D2E/DX2                !
 ! D84   D(27,25,26,29)       -178.318          estimate D2E/DX2                !
 ! D85   D(2,25,27,30)        -178.0783         estimate D2E/DX2                !
 ! D86   D(2,25,27,31)           3.0901         estimate D2E/DX2                !
 ! D87   D(26,25,27,30)         -0.1749         estimate D2E/DX2                !
 ! D88   D(26,25,27,31)       -179.0064         estimate D2E/DX2                !
 ! D89   D(25,26,28,32)         -0.4376         estimate D2E/DX2                !
 ! D90   D(25,26,28,33)       -179.8463         estimate D2E/DX2                !
 ! D91   D(29,26,28,32)        178.4135         estimate D2E/DX2                !
 ! D92   D(29,26,28,33)         -0.9952         estimate D2E/DX2                !
 ! D93   D(25,27,30,32)         -0.2853         estimate D2E/DX2                !
 ! D94   D(25,27,30,34)       -179.7295         estimate D2E/DX2                !
 ! D95   D(31,27,30,32)        178.5406         estimate D2E/DX2                !
 ! D96   D(31,27,30,34)         -0.9035         estimate D2E/DX2                !
 ! D97   D(26,28,32,30)         -0.0296         estimate D2E/DX2                !
 ! D98   D(26,28,32,35)       -179.8837         estimate D2E/DX2                !
 ! D99   D(33,28,32,30)        179.3764         estimate D2E/DX2                !
 ! D100  D(33,28,32,35)         -0.4778         estimate D2E/DX2                !
 ! D101  D(27,30,32,28)          0.3885         estimate D2E/DX2                !
 ! D102  D(27,30,32,35)       -179.7574         estimate D2E/DX2                !
 ! D103  D(34,30,32,28)        179.83           estimate D2E/DX2                !
 ! D104  D(34,30,32,35)         -0.3159         estimate D2E/DX2                !
 ! D105  D(4,36,37,39)        -179.0628         estimate D2E/DX2                !
 ! D106  D(4,36,37,40)          -2.5017         estimate D2E/DX2                !
 ! D107  D(38,36,37,39)          0.5961         estimate D2E/DX2                !
 ! D108  D(38,36,37,40)        177.1572         estimate D2E/DX2                !
 ! D109  D(4,36,38,41)         179.7597         estimate D2E/DX2                !
 ! D110  D(4,36,38,42)          -0.8059         estimate D2E/DX2                !
 ! D111  D(37,36,38,41)          0.0983         estimate D2E/DX2                !
 ! D112  D(37,36,38,42)        179.5328         estimate D2E/DX2                !
 ! D113  D(36,37,39,43)         -0.7277         estimate D2E/DX2                !
 ! D114  D(36,37,39,44)        178.6046         estimate D2E/DX2                !
 ! D115  D(40,37,39,43)       -177.2763         estimate D2E/DX2                !
 ! D116  D(40,37,39,44)          2.0559         estimate D2E/DX2                !
 ! D117  D(36,38,41,43)         -0.664          estimate D2E/DX2                !
 ! D118  D(36,38,41,45)        179.5179         estimate D2E/DX2                !
 ! D119  D(42,38,41,43)        179.9069         estimate D2E/DX2                !
 ! D120  D(42,38,41,45)          0.0888         estimate D2E/DX2                !
 ! D121  D(37,39,43,41)          0.1588         estimate D2E/DX2                !
 ! D122  D(37,39,43,46)       -179.9804         estimate D2E/DX2                !
 ! D123  D(44,39,43,41)       -179.1701         estimate D2E/DX2                !
 ! D124  D(44,39,43,46)          0.6907         estimate D2E/DX2                !
 ! D125  D(38,41,43,39)          0.5358         estimate D2E/DX2                !
 ! D126  D(38,41,43,46)       -179.325          estimate D2E/DX2                !
 ! D127  D(45,41,43,39)       -179.6468         estimate D2E/DX2                !
 ! D128  D(45,41,43,46)          0.4924         estimate D2E/DX2                !
 ! D129  D(50,49,51,48)         56.9683         estimate D2E/DX2                !
 ! D130  D(52,49,51,48)        -79.1677         estimate D2E/DX2                !
 ! D131  D(53,49,51,48)        168.8216         estimate D2E/DX2                !
 ! D132  D(50,49,53,54)        176.5078         estimate D2E/DX2                !
 ! D133  D(50,49,53,55)         55.6715         estimate D2E/DX2                !
 ! D134  D(50,49,53,56)        -63.9013         estimate D2E/DX2                !
 ! D135  D(51,49,53,54)         60.2707         estimate D2E/DX2                !
 ! D136  D(51,49,53,55)        -60.5656         estimate D2E/DX2                !
 ! D137  D(51,49,53,56)        179.8616         estimate D2E/DX2                !
 ! D138  D(52,49,53,54)        -56.8176         estimate D2E/DX2                !
 ! D139  D(52,49,53,55)       -177.6539         estimate D2E/DX2                !
 ! D140  D(52,49,53,56)         62.7733         estimate D2E/DX2                !
 --------------------------------------------------------------------------------
 Trust Radius=3.00D-01 FncErr=1.00D-07 GrdErr=1.00D-06 EigMax=2.50D+02 EigMin=1.00D-04
 Number of steps in this run=    312 maximum allowed number of steps=    336.
 GradGradGradGradGradGradGradGradGradGradGradGradGradGradGradGradGradGrad

 Leave Link  103 at Tue Apr 28 08:12:41 2020, MaxMem=  4294967296 cpu:               0.5 elap:               0.1
 (Enter /n/sw/g16_nehalem/g16/l202.exe)
 Stoichiometry    C22H25F3O4SSi
 Framework group  C1[X(C22H25F3O4SSi)]
 Deg. of freedom   162
 Full point group                 C1      NOp   1
 Largest Abelian subgroup         C1      NOp   1
 Largest concise Abelian subgroup C1      NOp   1
                         Standard orientation:                         
 ---------------------------------------------------------------------
 Center     Atomic      Atomic             Coordinates (Angstroms)
 Number     Number       Type             X           Y           Z
 ---------------------------------------------------------------------
      1          6           0        0.527552   -1.212153    0.944783
      2          6           0        1.389071   -1.257839   -0.166000
      3          6           0        0.505852   -1.499232   -1.392000
      4          6           0       -0.895991   -1.408125   -0.865882
      5          1           0        0.699162   -2.500548   -1.800096
      6          6           0       -0.844872   -1.257008    0.501441
      7          8           0       -1.869799   -1.187937    1.366961
      8         14           0       -2.148824   -0.259420    2.783910
      9          6           0       -1.258782    1.387103    2.730054
     10          1           0       -1.750988    2.092205    2.052839
     11          1           0       -1.262218    1.823615    3.737940
     12          1           0       -0.214927    1.288304    2.422063
     13          6           0       -4.014059   -0.035779    2.767272
     14          1           0       -4.530109   -1.001980    2.714247
     15          1           0       -4.350465    0.473856    3.679170
     16          1           0       -4.333546    0.568391    1.910152
     17          6           0       -1.626802   -1.304888    4.251408
     18          1           0       -1.925880   -0.820636    5.190381
     19          1           0       -2.102837   -2.292792    4.220675
     20          1           0       -0.540719   -1.436056    4.272309
     21          6           0        0.892313   -0.987132    2.366735
     22          1           0        1.972987   -0.945410    2.512582
     23          1           0        0.445664   -0.041138    2.698322
     24          1           0        0.465527   -1.774204    3.000743
     25          6           0        2.801472   -1.733146   -0.146635
     26          6           0        3.186205   -2.854262    0.606067
     27          6           0        3.770369   -1.082640   -0.927806
     28          6           0        4.506576   -3.306465    0.587551
     29          1           0        2.442633   -3.385199    1.194067
     30          6           0        5.088268   -1.538868   -0.952292
     31          1           0        3.490606   -0.204173   -1.502614
     32          6           0        5.462585   -2.650028   -0.191638
     33          1           0        4.785504   -4.177500    1.174609
     34          1           0        5.825455   -1.020290   -1.559165
     35          1           0        6.490075   -3.002774   -0.207859
     36          6           0       -2.094244   -1.451862   -1.698397
     37          6           0       -2.188916   -2.344847   -2.780425
     38          6           0       -3.174030   -0.589276   -1.430225
     39          6           0       -3.330386   -2.363780   -3.580033
     40          1           0       -1.345268   -2.981695   -3.025092
     41          6           0       -4.318491   -0.622063   -2.223495
     42          1           0       -3.109807    0.096567   -0.592043
     43          6           0       -4.398854   -1.505389   -3.304751
     44          1           0       -3.381237   -3.042770   -4.426597
     45          1           0       -5.147922    0.043826   -2.000626
     46          1           0       -5.287383   -1.522869   -3.929835
     47          1           0        0.692597   -0.788627   -2.206960
     48          1           0        1.541351    0.112183   -0.244851
     49         16           0        0.402616    2.125623   -0.477136
     50          8           0       -0.224789    2.039439    0.847890
     51          8           0        1.719964    1.322283   -0.545672
     52          8           0       -0.444243    1.928613   -1.657879
     53          6           0        1.101934    3.860878   -0.617524
     54          9           0        1.763630    4.008741   -1.772152
     55          9           0        1.934962    4.115581    0.398954
     56          9           0        0.090713    4.740482   -0.580643
 ---------------------------------------------------------------------
 Rotational constants (GHZ):           0.1259649           0.1072846           0.0923288
 Leave Link  202 at Tue Apr 28 08:12:42 2020, MaxMem=  4294967296 cpu:               3.9 elap:               0.3
 (Enter /n/sw/g16_nehalem/g16/l301.exe)
 Standard basis: 6-31G(d) (6D, 7F)
 Ernie: Thresh=  0.10000D-02 Tol=  0.10000D-05 Strict=F.
 There are   523 symmetry adapted cartesian basis functions of A   symmetry.
 There are   523 symmetry adapted basis functions of A   symmetry.
   523 basis functions,  1016 primitive gaussians,   523 cartesian basis functions
   123 alpha electrons      123 beta electrons
       nuclear repulsion energy      3770.3013923353 Hartrees.
 IExCor=  402 DFT=T Ex+Corr=B3LYP ExCW=0 ScaHFX=  0.200000
 ScaDFX=  0.800000  0.720000  1.000000  0.810000 ScalE2=  1.000000  1.000000
 IRadAn=      5 IRanWt=     -1 IRanGd=            0 ICorTp=0 IEmpDi=141
 NAtoms=   56 NActive=   56 NUniq=   56 SFac= 1.00D+00 NAtFMM=   60 NAOKFM=F Big=F
 Integral buffers will be    131072 words long.
 Raffenetti 2 integral format.
 Two-electron integral symmetry is turned on.
 R6Disp:  Grimme-D3(BJ) Dispersion energy=       -0.1387175288 Hartrees.
 Nuclear repulsion after empirical dispersion term =     3770.1626748065 Hartrees.
 Leave Link  301 at Tue Apr 28 08:12:43 2020, MaxMem=  4294967296 cpu:               4.9 elap:               0.4
 (Enter /n/sw/g16_nehalem/g16/l302.exe)
 NPDir=0 NMtPBC=     1 NCelOv=     1 NCel=       1 NClECP=     1 NCelD=      1
         NCelK=      1 NCelE2=     1 NClLst=     1 CellRange=     0.0.
 One-electron integrals computed using PRISM.
 One-electron integral symmetry used in STVInt
 NBasis=   523 RedAO= T EigKep=  4.52D-04  NBF=   523
 NBsUse=   523 1.00D-06 EigRej= -1.00D+00 NBFU=   523
 Precomputing XC quadrature grid using
 IXCGrd= 4 IRadAn=           5 IRanWt=          -1 IRanGd=           0 AccXCQ= 0.00D+00.
 Generated NRdTot=       0 NPtTot=           0 NUsed=           0 NTot=          32
 NSgBfM=   514   513   513   513   514 MxSgAt=    56 MxSgA2=    56.
 Leave Link  302 at Tue Apr 28 08:12:45 2020, MaxMem=  4294967296 cpu:              17.2 elap:               1.3
 (Enter /n/sw/g16_nehalem/g16/l303.exe)
 DipDrv:  MaxL=1.
 Leave Link  303 at Tue Apr 28 08:12:46 2020, MaxMem=  4294967296 cpu:               3.8 elap:               0.5
 (Enter /n/sw/g16_nehalem/g16/l401.exe)
 ExpMin= 7.78D-02 ExpMax= 2.19D+04 ExpMxC= 3.30D+03 IAcc=3 IRadAn=         5 AccDes= 0.00D+00
 Harris functional with IExCor=  402 and IRadAn=       5 diagonalized for initial guess.
 HarFok:  IExCor=  402 AccDes= 0.00D+00 IRadAn=         5 IDoV= 1 UseB2=F ITyADJ=14
 ICtDFT=  3500011 ScaDFX=  1.000000  1.000000  1.000000  1.000000
 FoFCou: FMM=F IPFlag=           0 FMFlag=      100000 FMFlg1=           0
         NFxFlg=           0 DoJE=T BraDBF=F KetDBF=T FulRan=T
         wScrn=  0.000000 ICntrl=       500 IOpCl=  0 I1Cent=   200000004 NGrid=           0
         NMat0=    1 NMatS0=      1 NMatT0=    0 NMatD0=    1 NMtDS0=    0 NMtDT0=    0
 Petite list used in FoFCou.
 Harris En= -2141.64293906157    
 JPrj=0 DoOrth=F DoCkMO=F.
 Leave Link  401 at Tue Apr 28 08:12:50 2020, MaxMem=  4294967296 cpu:              55.7 elap:               3.9
 (Enter /n/sw/g16_nehalem/g16/l502.exe)
 Integral symmetry usage will be decided dynamically.
 Closed shell SCF:
 Using DIIS extrapolation, IDIIS=  1040.
 NGot=  4294967296 LenX=  4294406125 LenY=  4294132073
 Requested convergence on RMS density matrix=1.00D-08 within 128 cycles.
 Requested convergence on MAX density matrix=1.00D-06.
 Requested convergence on             energy=1.00D-06.
 No special actions if energy rises.
 Fock matrices will be formed incrementally for  20 cycles.
 Integral accuracy reduced to 1.0D-05 until final iterations.

 Cycle   1  Pass 0  IDiag  1:
 FoFJK:  IHMeth= 1 ICntrl=       0 DoSepK=F KAlg= 0 I1Cent=           0 FoldK=F
 IRaf= 710000000 NMat=       1 IRICut=       1 DoRegI=T DoRafI=F ISym2E= 0 IDoP0=0 IntGTp=1.
 FoFCou: FMM=F IPFlag=           0 FMFlag=      100000 FMFlg1=           0
         NFxFlg=           0 DoJE=F BraDBF=F KetDBF=F FulRan=T
         wScrn=  0.000000 ICntrl=         0 IOpCl=  0 I1Cent=           0 NGrid=           0
         NMat0=    1 NMatS0=      1 NMatT0=    0 NMatD0=    1 NMtDS0=    0 NMtDT0=    0
 Symmetry not used in FoFCou.
 E= -2140.52492148132    
 DIIS: error= 2.82D-02 at cycle   1 NSaved=   1.
 NSaved= 1 IEnMin= 1 EnMin= -2140.52492148132     IErMin= 1 ErrMin= 2.82D-02
 ErrMax= 2.82D-02  0.00D+00 EMaxC= 1.00D-01 BMatC= 1.14D+00 BMatP= 1.14D+00
 IDIUse=3 WtCom= 7.18D-01 WtEn= 2.82D-01
 Coeff-Com:  0.100D+01
 Coeff-En:   0.100D+01
 Coeff:      0.100D+01
 Gap=     0.130 Goal=   None    Shift=    0.000
 GapD=    0.130 DampG=1.000 DampE=0.500 DampFc=0.5000 IDamp=-1.
 Damping current iteration by 5.00D-01
 RMSDP=5.02D-03 MaxDP=5.99D-01              OVMax= 2.79D-01

 Cycle   2  Pass 0  IDiag  1:
 RMSU=  2.50D-03    CP:  9.88D-01
 E= -2140.78700007880     Delta-E=       -0.262078597474 Rises=F Damp=T
 DIIS: error= 2.06D-02 at cycle   2 NSaved=   2.
 NSaved= 2 IEnMin= 2 EnMin= -2140.78700007880     IErMin= 2 ErrMin= 2.06D-02
 ErrMax= 2.06D-02  0.00D+00 EMaxC= 1.00D-01 BMatC= 1.70D-01 BMatP= 1.14D+00
 IDIUse=3 WtCom= 7.94D-01 WtEn= 2.06D-01
 Coeff-Com:  0.220D+00 0.780D+00
 Coeff-En:   0.357D+00 0.643D+00
 Coeff:      0.248D+00 0.752D+00
 Gap=     0.193 Goal=   None    Shift=    0.000
 RMSDP=1.55D-03 MaxDP=1.82D-01 DE=-2.62D-01 OVMax= 2.36D-01

 Cycle   3  Pass 0  IDiag  1:
 RMSU=  1.32D-03    CP:  9.78D-01  6.83D-01
 E= -2141.44324705164     Delta-E=       -0.656246972843 Rises=F Damp=F
 DIIS: error= 1.22D-02 at cycle   3 NSaved=   3.
 NSaved= 3 IEnMin= 3 EnMin= -2141.44324705164     IErMin= 3 ErrMin= 1.22D-02
 ErrMax= 1.22D-02  0.00D+00 EMaxC= 1.00D-01 BMatC= 1.16D-01 BMatP= 1.70D-01
 IDIUse=3 WtCom= 8.78D-01 WtEn= 1.22D-01
 Coeff-Com:  0.837D-01 0.448D+00 0.468D+00
 Coeff-En:   0.000D+00 0.000D+00 0.100D+01
 Coeff:      0.734D-01 0.393D+00 0.533D+00
 Gap=     0.132 Goal=   None    Shift=    0.000
 RMSDP=8.72D-04 MaxDP=6.06D-02 DE=-6.56D-01 OVMax= 7.51D-02

 Cycle   4  Pass 0  IDiag  1:
 RMSU=  6.00D-04    CP:  9.82D-01  7.51D-01  5.43D-01
 E= -2141.52527069722     Delta-E=       -0.082023645578 Rises=F Damp=F
 DIIS: error= 6.26D-03 at cycle   4 NSaved=   4.
 NSaved= 4 IEnMin= 4 EnMin= -2141.52527069722     IErMin= 4 ErrMin= 6.26D-03
 ErrMax= 6.26D-03  0.00D+00 EMaxC= 1.00D-01 BMatC= 2.31D-02 BMatP= 1.16D-01
 IDIUse=3 WtCom= 9.37D-01 WtEn= 6.26D-02
 Coeff-Com:  0.172D-01 0.137D+00 0.316D+00 0.530D+00
 Coeff-En:   0.000D+00 0.000D+00 0.155D+00 0.845D+00
 Coeff:      0.162D-01 0.129D+00 0.306D+00 0.549D+00
 Gap=     0.129 Goal=   None    Shift=    0.000
 RMSDP=3.90D-04 MaxDP=2.97D-02 DE=-8.20D-02 OVMax= 5.41D-02

 Cycle   5  Pass 0  IDiag  1:
 RMSU=  2.42D-04    CP:  9.82D-01  7.36D-01  6.59D-01  5.65D-01
 E= -2141.53871172991     Delta-E=       -0.013441032691 Rises=F Damp=F
 DIIS: error= 3.18D-03 at cycle   5 NSaved=   5.
 NSaved= 5 IEnMin= 5 EnMin= -2141.53871172991     IErMin= 5 ErrMin= 3.18D-03
 ErrMax= 3.18D-03  0.00D+00 EMaxC= 1.00D-01 BMatC= 5.85D-03 BMatP= 2.31D-02
 IDIUse=3 WtCom= 9.68D-01 WtEn= 3.18D-02
 Coeff-Com: -0.173D-02 0.239D-01 0.131D+00 0.390D+00 0.457D+00
 Coeff-En:   0.000D+00 0.000D+00 0.000D+00 0.245D+00 0.755D+00
 Coeff:     -0.167D-02 0.231D-01 0.127D+00 0.385D+00 0.466D+00
 Gap=     0.129 Goal=   None    Shift=    0.000
 RMSDP=1.84D-04 MaxDP=1.27D-02 DE=-1.34D-02 OVMax= 2.99D-02

 Cycle   6  Pass 0  IDiag  1:
 RMSU=  7.60D-05    CP:  9.82D-01  7.46D-01  6.40D-01  6.87D-01  3.96D-01
 E= -2141.54363633039     Delta-E=       -0.004924600481 Rises=F Damp=F
 DIIS: error= 3.71D-04 at cycle   6 NSaved=   6.
 NSaved= 6 IEnMin= 6 EnMin= -2141.54363633039     IErMin= 6 ErrMin= 3.71D-04
 ErrMax= 3.71D-04  0.00D+00 EMaxC= 1.00D-01 BMatC= 2.76D-04 BMatP= 5.85D-03
 IDIUse=3 WtCom= 9.96D-01 WtEn= 3.71D-03
 Coeff-Com: -0.222D-02 0.305D-02 0.410D-01 0.153D+00 0.262D+00 0.543D+00
 Coeff-En:   0.000D+00 0.000D+00 0.000D+00 0.000D+00 0.897D-02 0.991D+00
 Coeff:     -0.221D-02 0.304D-02 0.408D-01 0.153D+00 0.261D+00 0.545D+00
 Gap=     0.129 Goal=   None    Shift=    0.000
 RMSDP=4.74D-05 MaxDP=2.64D-03 DE=-4.92D-03 OVMax= 8.49D-03

 Cycle   7  Pass 0  IDiag  1:
 RMSU=  2.49D-05    CP:  9.82D-01  7.44D-01  6.45D-01  6.77D-01  4.96D-01
                    CP:  6.00D-01
 E= -2141.54387796563     Delta-E=       -0.000241635238 Rises=F Damp=F
 DIIS: error= 2.24D-04 at cycle   7 NSaved=   7.
 NSaved= 7 IEnMin= 7 EnMin= -2141.54387796563     IErMin= 7 ErrMin= 2.24D-04
 ErrMax= 2.24D-04  0.00D+00 EMaxC= 1.00D-01 BMatC= 3.30D-05 BMatP= 2.76D-04
 IDIUse=3 WtCom= 9.98D-01 WtEn= 2.24D-03
 Coeff-Com: -0.122D-02 0.312D-03 0.151D-01 0.638D-01 0.129D+00 0.338D+00
 Coeff-Com:  0.456D+00
 Coeff-En:   0.000D+00 0.000D+00 0.000D+00 0.000D+00 0.000D+00 0.566D-01
 Coeff-En:   0.943D+00
 Coeff:     -0.122D-02 0.311D-03 0.151D-01 0.636D-01 0.128D+00 0.337D+00
 Coeff:      0.457D+00
 Gap=     0.129 Goal=   None    Shift=    0.000
 RMSDP=1.61D-05 MaxDP=1.02D-03 DE=-2.42D-04 OVMax= 2.61D-03

 Cycle   8  Pass 0  IDiag  1:
 RMSU=  8.04D-06    CP:  9.82D-01  7.44D-01  6.45D-01  6.82D-01  4.87D-01
                    CP:  6.53D-01  4.87D-01
 E= -2141.54390855279     Delta-E=       -0.000030587161 Rises=F Damp=F
 DIIS: error= 7.15D-05 at cycle   8 NSaved=   8.
 NSaved= 8 IEnMin= 8 EnMin= -2141.54390855279     IErMin= 8 ErrMin= 7.15D-05
 ErrMax= 7.15D-05  0.00D+00 EMaxC= 1.00D-01 BMatC= 3.31D-06 BMatP= 3.30D-05
 IDIUse=1 WtCom= 1.00D+00 WtEn= 0.00D+00
 Coeff-Com: -0.403D-03-0.392D-03 0.231D-02 0.132D-01 0.364D-01 0.108D+00
 Coeff-Com:  0.269D+00 0.571D+00
 Coeff:     -0.403D-03-0.392D-03 0.231D-02 0.132D-01 0.364D-01 0.108D+00
 Coeff:      0.269D+00 0.571D+00
 Gap=     0.129 Goal=   None    Shift=    0.000
 RMSDP=4.77D-06 MaxDP=2.99D-04 DE=-3.06D-05 OVMax= 6.74D-04

 Initial convergence to 1.0D-05 achieved.  Increase integral accuracy.
 Cycle   9  Pass 1  IDiag  1:
 E= -2141.54391518283     Delta-E=       -0.000006630040 Rises=F Damp=F
 DIIS: error= 1.00D-04 at cycle   1 NSaved=   1.
 NSaved= 1 IEnMin= 1 EnMin= -2141.54391518283     IErMin= 1 ErrMin= 1.00D-04
 ErrMax= 1.00D-04  0.00D+00 EMaxC= 1.00D-01 BMatC= 2.74D-06 BMatP= 2.74D-06
 IDIUse=1 WtCom= 1.00D+00 WtEn= 0.00D+00
 Coeff-Com:  0.100D+01
 Coeff:      0.100D+01
 Gap=     0.129 Goal=   None    Shift=    0.000
 RMSDP=4.77D-06 MaxDP=2.99D-04 DE=-6.63D-06 OVMax= 5.10D-04

 Cycle  10  Pass 1  IDiag  1:
 RMSU=  4.33D-05    CP:  1.00D+00
 E= -2141.54391635720     Delta-E=       -0.000001174369 Rises=F Damp=F
 DIIS: error= 3.65D-05 at cycle   2 NSaved=   2.
 NSaved= 2 IEnMin= 2 EnMin= -2141.54391635720     IErMin= 2 ErrMin= 3.65D-05
 ErrMax= 3.65D-05  0.00D+00 EMaxC= 1.00D-01 BMatC= 1.36D-06 BMatP= 2.74D-06
 IDIUse=1 WtCom= 1.00D+00 WtEn= 0.00D+00
 Coeff-Com:  0.372D+00 0.628D+00
 Coeff:      0.372D+00 0.628D+00
 Gap=     0.129 Goal=   None    Shift=    0.000
 RMSDP=5.09D-06 MaxDP=4.05D-04 DE=-1.17D-06 OVMax= 7.02D-04

 Cycle  11  Pass 1  IDiag  1:
 RMSU=  5.09D-06    CP:  1.00D+00  9.98D-01
 E= -2141.54391631118     Delta-E=        0.000000046023 Rises=F Damp=F
 DIIS: error= 3.78D-05 at cycle   3 NSaved=   3.
 NSaved= 3 IEnMin= 2 EnMin= -2141.54391635720     IErMin= 2 ErrMin= 3.65D-05
 ErrMax= 3.78D-05  0.00D+00 EMaxC= 1.00D-01 BMatC= 1.39D-06 BMatP= 1.36D-06
 IDIUse=1 WtCom= 1.00D+00 WtEn= 0.00D+00
 Coeff-Com:  0.122D-01 0.500D+00 0.488D+00
 Coeff:      0.122D-01 0.500D+00 0.488D+00
 Gap=     0.129 Goal=   None    Shift=    0.000
 RMSDP=2.76D-06 MaxDP=1.94D-04 DE= 4.60D-08 OVMax= 3.82D-04

 Cycle  12  Pass 1  IDiag  1:
 RMSU=  6.82D-07    CP:  1.00D+00  1.01D+00  4.81D-01
 E= -2141.54391773266     Delta-E=       -0.000001421484 Rises=F Damp=F
 DIIS: error= 4.50D-06 at cycle   4 NSaved=   4.
 NSaved= 4 IEnMin= 4 EnMin= -2141.54391773266     IErMin= 4 ErrMin= 4.50D-06
 ErrMax= 4.50D-06  0.00D+00 EMaxC= 1.00D-01 BMatC= 4.56D-08 BMatP= 1.36D-06
 IDIUse=1 WtCom= 1.00D+00 WtEn= 0.00D+00
 Coeff-Com: -0.335D-02 0.301D+00 0.310D+00 0.392D+00
 Coeff:     -0.335D-02 0.301D+00 0.310D+00 0.392D+00
 Gap=     0.129 Goal=   None    Shift=    0.000
 RMSDP=4.32D-07 MaxDP=2.95D-05 DE=-1.42D-06 OVMax= 6.89D-05

 Cycle  13  Pass 1  IDiag  1:
 RMSU=  1.67D-07    CP:  1.00D+00  1.01D+00  4.98D-01  4.31D-01
 E= -2141.54391777276     Delta-E=       -0.000000040096 Rises=F Damp=F
 DIIS: error= 1.02D-06 at cycle   5 NSaved=   5.
 NSaved= 5 IEnMin= 5 EnMin= -2141.54391777276     IErMin= 5 ErrMin= 1.02D-06
 ErrMax= 1.02D-06  0.00D+00 EMaxC= 1.00D-01 BMatC= 1.07D-09 BMatP= 4.56D-08
 IDIUse=1 WtCom= 1.00D+00 WtEn= 0.00D+00
 Coeff-Com: -0.236D-02 0.167D+00 0.173D+00 0.234D+00 0.428D+00
 Coeff:     -0.236D-02 0.167D+00 0.173D+00 0.234D+00 0.428D+00
 Gap=     0.129 Goal=   None    Shift=    0.000
 RMSDP=8.40D-08 MaxDP=3.76D-06 DE=-4.01D-08 OVMax= 8.53D-06

 Cycle  14  Pass 1  IDiag  1:
 RMSU=  5.47D-08    CP:  1.00D+00  1.01D+00  5.00D-01  4.48D-01  6.27D-01
 E= -2141.54391777373     Delta-E=       -0.000000000971 Rises=F Damp=F
 DIIS: error= 2.74D-07 at cycle   6 NSaved=   6.
 NSaved= 6 IEnMin= 6 EnMin= -2141.54391777373     IErMin= 6 ErrMin= 2.74D-07
 ErrMax= 2.74D-07  0.00D+00 EMaxC= 1.00D-01 BMatC= 7.85D-11 BMatP= 1.07D-09
 IDIUse=1 WtCom= 1.00D+00 WtEn= 0.00D+00
 Coeff-Com: -0.107D-02 0.695D-01 0.720D-01 0.980D-01 0.254D+00 0.507D+00
 Coeff:     -0.107D-02 0.695D-01 0.720D-01 0.980D-01 0.254D+00 0.507D+00
 Gap=     0.129 Goal=   None    Shift=    0.000
 RMSDP=2.13D-08 MaxDP=1.30D-06 DE=-9.71D-10 OVMax= 2.25D-06

 Cycle  15  Pass 1  IDiag  1:
 RMSU=  1.74D-08    CP:  1.00D+00  1.01D+00  5.00D-01  4.43D-01  6.66D-01
                    CP:  8.16D-01
 E= -2141.54391777389     Delta-E=       -0.000000000157 Rises=F Damp=F
 DIIS: error= 1.25D-07 at cycle   7 NSaved=   7.
 NSaved= 7 IEnMin= 7 EnMin= -2141.54391777389     IErMin= 7 ErrMin= 1.25D-07
 ErrMax= 1.25D-07  0.00D+00 EMaxC= 1.00D-01 BMatC= 1.08D-11 BMatP= 7.85D-11
 IDIUse=1 WtCom= 1.00D+00 WtEn= 0.00D+00
 Coeff-Com: -0.285D-03 0.166D-01 0.170D-01 0.220D-01 0.921D-01 0.303D+00
 Coeff-Com:  0.549D+00
 Coeff:     -0.285D-03 0.166D-01 0.170D-01 0.220D-01 0.921D-01 0.303D+00
 Coeff:      0.549D+00
 Gap=     0.129 Goal=   None    Shift=    0.000
 RMSDP=8.90D-09 MaxDP=4.98D-07 DE=-1.57D-10 OVMax= 1.21D-06

 SCF Done:  E(RB3LYP) =  -2141.54391777     A.U. after   15 cycles
            NFock= 15  Conv=0.89D-08     -V/T= 2.0071
 KE= 2.126368535253D+03 PE=-1.257263387103D+04 EE= 4.534558743201D+03
 Leave Link  502 at Tue Apr 28 08:13:51 2020, MaxMem=  4294967296 cpu:             956.9 elap:              60.4
 (Enter /n/sw/g16_nehalem/g16/l601.exe)
 Copying SCF densities to generalized density rwf, IOpCl= 0 IROHF=0.

 **********************************************************************

            Population analysis using the SCF density.

 **********************************************************************

 Orbital symmetries:
       Occupied  (A) (A) (A) (A) (A) (A) (A) (A) (A) (A) (A) (A)
                 (A) (A) (A) (A) (A) (A) (A) (A) (A) (A) (A) (A)
                 (A) (A) (A) (A) (A) (A) (A) (A) (A) (A) (A) (A)
                 (A) (A) (A) (A) (A) (A) (A) (A) (A) (A) (A) (A)
                 (A) (A) (A) (A) (A) (A) (A) (A) (A) (A) (A) (A)
                 (A) (A) (A) (A) (A) (A) (A) (A) (A) (A) (A) (A)
                 (A) (A) (A) (A) (A) (A) (A) (A) (A) (A) (A) (A)
                 (A) (A) (A) (A) (A) (A) (A) (A) (A) (A) (A) (A)
                 (A) (A) (A) (A) (A) (A) (A) (A) (A) (A) (A) (A)
                 (A) (A) (A) (A) (A) (A) (A) (A) (A) (A) (A) (A)
                 (A) (A) (A)
       Virtual   (A) (A) (A) (A) (A) (A) (A) (A) (A) (A) (A) (A)
                 (A) (A) (A) (A) (A) (A) (A) (A) (A) (A) (A) (A)
                 (A) (A) (A) (A) (A) (A) (A) (A) (A) (A) (A) (A)
                 (A) (A) (A) (A) (A) (A) (A) (A) (A) (A) (A) (A)
                 (A) (A) (A) (A) (A) (A) (A) (A) (A) (A) (A) (A)
                 (A) (A) (A) (A) (A) (A) (A) (A) (A) (A) (A) (A)
                 (A) (A) (A) (A) (A) (A) (A) (A) (A) (A) (A) (A)
                 (A) (A) (A) (A) (A) (A) (A) (A) (A) (A) (A) (A)
                 (A) (A) (A) (A) (A) (A) (A) (A) (A) (A) (A) (A)
                 (A) (A) (A) (A) (A) (A) (A) (A) (A) (A) (A) (A)
                 (A) (A) (A) (A) (A) (A) (A) (A) (A) (A) (A) (A)
                 (A) (A) (A) (A) (A) (A) (A) (A) (A) (A) (A) (A)
                 (A) (A) (A) (A) (A) (A) (A) (A) (A) (A) (A) (A)
                 (A) (A) (A) (A) (A) (A) (A) (A) (A) (A) (A) (A)
                 (A) (A) (A) (A) (A) (A) (A) (A) (A) (A) (A) (A)
                 (A) (A) (A) (A) (A) (A) (A) (A) (A) (A) (A) (A)
                 (A) (A) (A) (A) (A) (A) (A) (A) (A) (A) (A) (A)
                 (A) (A) (A) (A) (A) (A) (A) (A) (A) (A) (A) (A)
                 (A) (A) (A) (A) (A) (A) (A) (A) (A) (A) (A) (A)
                 (A) (A) (A) (A) (A) (A) (A) (A) (A) (A) (A) (A)
                 (A) (A) (A) (A) (A) (A) (A) (A) (A) (A) (A) (A)
                 (A) (A) (A) (A) (A) (A) (A) (A) (A) (A) (A) (A)
                 (A) (A) (A) (A) (A) (A) (A) (A) (A) (A) (A) (A)
                 (A) (A) (A) (A) (A) (A) (A) (A) (A) (A) (A) (A)
                 (A) (A) (A) (A) (A) (A) (A) (A) (A) (A) (A) (A)
                 (A) (A) (A) (A) (A) (A) (A) (A) (A) (A) (A) (A)
                 (A) (A) (A) (A) (A) (A) (A) (A) (A) (A) (A) (A)
                 (A) (A) (A) (A) (A) (A) (A) (A) (A) (A) (A) (A)
                 (A) (A) (A) (A) (A) (A) (A) (A) (A) (A) (A) (A)
                 (A) (A) (A) (A) (A) (A) (A) (A) (A) (A) (A) (A)
                 (A) (A) (A) (A) (A) (A) (A) (A) (A) (A) (A) (A)
                 (A) (A) (A) (A) (A) (A) (A) (A) (A) (A) (A) (A)
                 (A) (A) (A) (A) (A) (A) (A) (A) (A) (A) (A) (A)
                 (A) (A) (A) (A)
 The electronic state is 1-A.
 Alpha  occ. eigenvalues --  -89.11511 -66.15099 -24.73626 -24.73577 -24.73502
 Alpha  occ. eigenvalues --  -19.16919 -19.16578 -19.14016 -19.13807 -10.44494
 Alpha  occ. eigenvalues --  -10.26270 -10.24600 -10.22074 -10.21106 -10.21039
 Alpha  occ. eigenvalues --  -10.20777 -10.20597 -10.20080 -10.19968 -10.19866
 Alpha  occ. eigenvalues --  -10.19779 -10.19774 -10.19665 -10.19610 -10.19492
 Alpha  occ. eigenvalues --  -10.19463 -10.19351 -10.19277 -10.16701 -10.16342
 Alpha  occ. eigenvalues --  -10.14298  -8.13973  -6.10479  -6.10348  -6.10325
 Alpha  occ. eigenvalues --   -5.29216  -3.65371  -3.64987  -3.64950  -1.31412
 Alpha  occ. eigenvalues --   -1.22742  -1.22664  -1.12966  -1.04365  -1.00615
 Alpha  occ. eigenvalues --   -0.99722  -0.89603  -0.86262  -0.85359  -0.79746
 Alpha  occ. eigenvalues --   -0.77377  -0.75214  -0.75060  -0.74874  -0.73548
 Alpha  occ. eigenvalues --   -0.72357  -0.70227  -0.68774  -0.68526  -0.67875
 Alpha  occ. eigenvalues --   -0.64593  -0.62933  -0.61425  -0.60817  -0.60334
 Alpha  occ. eigenvalues --   -0.59159  -0.59060  -0.57305  -0.57106  -0.55574
 Alpha  occ. eigenvalues --   -0.53135  -0.52266  -0.51786  -0.49802  -0.48821
 Alpha  occ. eigenvalues --   -0.47837  -0.47294  -0.46462  -0.46347  -0.45969
 Alpha  occ. eigenvalues --   -0.45896  -0.45414  -0.45353  -0.44635  -0.44031
 Alpha  occ. eigenvalues --   -0.43720  -0.42984  -0.42914  -0.42636  -0.42579
 Alpha  occ. eigenvalues --   -0.42397  -0.41724  -0.41342  -0.40749  -0.40639
 Alpha  occ. eigenvalues --   -0.40496  -0.39973  -0.39802  -0.39399  -0.38855
 Alpha  occ. eigenvalues --   -0.37789  -0.37698  -0.37243  -0.36848  -0.36420
 Alpha  occ. eigenvalues --   -0.35955  -0.35086  -0.34925  -0.34513  -0.34310
 Alpha  occ. eigenvalues --   -0.33282  -0.32474  -0.31709  -0.30973  -0.29291
 Alpha  occ. eigenvalues --   -0.28748  -0.28372  -0.27311  -0.27152  -0.25748
 Alpha  occ. eigenvalues --   -0.25346  -0.25126  -0.21798
 Alpha virt. eigenvalues --   -0.08880  -0.01312  -0.00928  -0.00346  -0.00112
 Alpha virt. eigenvalues --    0.05248   0.06339   0.06491   0.07717   0.08247
 Alpha virt. eigenvalues --    0.08514   0.09287   0.09402   0.10178   0.10366
 Alpha virt. eigenvalues --    0.10990   0.11596   0.11767   0.12733   0.13624
 Alpha virt. eigenvalues --    0.14004   0.14090   0.14408   0.14512   0.15395
 Alpha virt. eigenvalues --    0.15774   0.15931   0.16219   0.16353   0.17126
 Alpha virt. eigenvalues --    0.17473   0.17697   0.18321   0.18542   0.19474
 Alpha virt. eigenvalues --    0.19819   0.20031   0.20570   0.21549   0.21991
 Alpha virt. eigenvalues --    0.22797   0.23677   0.24193   0.24636   0.25023
 Alpha virt. eigenvalues --    0.25488   0.26406   0.27843   0.28738   0.29488
 Alpha virt. eigenvalues --    0.29845   0.30558   0.30824   0.31624   0.32413
 Alpha virt. eigenvalues --    0.32841   0.33862   0.34216   0.35011   0.36531
 Alpha virt. eigenvalues --    0.37072   0.37836   0.38789   0.40187   0.41186
 Alpha virt. eigenvalues --    0.41278   0.42668   0.43622   0.45213   0.46726
 Alpha virt. eigenvalues --    0.47423   0.49283   0.50464   0.50698   0.51309
 Alpha virt. eigenvalues --    0.51992   0.52241   0.52967   0.53401   0.53705
 Alpha virt. eigenvalues --    0.54025   0.54577   0.54790   0.55296   0.56111
 Alpha virt. eigenvalues --    0.56767   0.57240   0.58013   0.58476   0.58750
 Alpha virt. eigenvalues --    0.58994   0.59303   0.59817   0.60206   0.60413
 Alpha virt. eigenvalues --    0.60771   0.61272   0.61373   0.61438   0.62022
 Alpha virt. eigenvalues --    0.62229   0.63014   0.64227   0.65542   0.65847
 Alpha virt. eigenvalues --    0.67083   0.67263   0.67764   0.68839   0.69763
 Alpha virt. eigenvalues --    0.70403   0.72115   0.73278   0.73739   0.73947
 Alpha virt. eigenvalues --    0.74131   0.75325   0.76013   0.76940   0.77314
 Alpha virt. eigenvalues --    0.77633   0.78081   0.79342   0.80306   0.80610
 Alpha virt. eigenvalues --    0.81604   0.82135   0.82801   0.82938   0.83390
 Alpha virt. eigenvalues --    0.83478   0.84222   0.84614   0.85146   0.86425
 Alpha virt. eigenvalues --    0.86760   0.87049   0.88038   0.88164   0.88375
 Alpha virt. eigenvalues --    0.89173   0.89618   0.90316   0.90563   0.90978
 Alpha virt. eigenvalues --    0.91601   0.92658   0.92852   0.93413   0.93469
 Alpha virt. eigenvalues --    0.94357   0.94822   0.95374   0.95800   0.96472
 Alpha virt. eigenvalues --    0.97309   0.97728   0.98493   0.99259   0.99803
 Alpha virt. eigenvalues --    1.00323   1.00792   1.01893   1.02217   1.02689
 Alpha virt. eigenvalues --    1.03992   1.04058   1.04601   1.05989   1.06280
 Alpha virt. eigenvalues --    1.06685   1.07347   1.09021   1.09247   1.09607
 Alpha virt. eigenvalues --    1.10504   1.10885   1.12066   1.13353   1.13883
 Alpha virt. eigenvalues --    1.14449   1.14724   1.15678   1.16082   1.16610
 Alpha virt. eigenvalues --    1.17037   1.18050   1.18234   1.19038   1.20412
 Alpha virt. eigenvalues --    1.21622   1.22824   1.24068   1.24617   1.25567
 Alpha virt. eigenvalues --    1.26560   1.27889   1.28286   1.29254   1.30907
 Alpha virt. eigenvalues --    1.31385   1.32390   1.32929   1.34011   1.34569
 Alpha virt. eigenvalues --    1.37527   1.37736   1.38218   1.39123   1.40367
 Alpha virt. eigenvalues --    1.40480   1.41223   1.42756   1.43885   1.44314
 Alpha virt. eigenvalues --    1.44538   1.45511   1.46290   1.48029   1.48413
 Alpha virt. eigenvalues --    1.48605   1.49282   1.49451   1.50893   1.51580
 Alpha virt. eigenvalues --    1.52360   1.52466   1.55134   1.57474   1.58899
 Alpha virt. eigenvalues --    1.62484   1.63863   1.65510   1.66633   1.67207
 Alpha virt. eigenvalues --    1.67560   1.68582   1.71256   1.72021   1.74759
 Alpha virt. eigenvalues --    1.76041   1.76970   1.77618   1.77977   1.78709
 Alpha virt. eigenvalues --    1.78929   1.79515   1.80047   1.80354   1.81018
 Alpha virt. eigenvalues --    1.81643   1.82336   1.82441   1.82696   1.83257
 Alpha virt. eigenvalues --    1.83650   1.85122   1.85543   1.85774   1.86819
 Alpha virt. eigenvalues --    1.87132   1.87540   1.88784   1.88956   1.89708
 Alpha virt. eigenvalues --    1.90677   1.91157   1.91926   1.92525   1.92613
 Alpha virt. eigenvalues --    1.93854   1.95639   1.96220   1.96980   1.97264
 Alpha virt. eigenvalues --    1.97424   1.97621   1.99006   2.01362   2.02344
 Alpha virt. eigenvalues --    2.03383   2.04350   2.04941   2.05173   2.05304
 Alpha virt. eigenvalues --    2.05638   2.08674   2.10962   2.12538   2.13108
 Alpha virt. eigenvalues --    2.13296   2.13582   2.13990   2.14467   2.14697
 Alpha virt. eigenvalues --    2.15204   2.15472   2.17169   2.18269   2.19546
 Alpha virt. eigenvalues --    2.20277   2.22158   2.24392   2.24899   2.25346
 Alpha virt. eigenvalues --    2.25653   2.26019   2.26564   2.27338   2.27446
 Alpha virt. eigenvalues --    2.27821   2.28509   2.28907   2.29398   2.30116
 Alpha virt. eigenvalues --    2.30349   2.30671   2.31134   2.32074   2.32926
 Alpha virt. eigenvalues --    2.33902   2.35034   2.35259   2.36768   2.40037
 Alpha virt. eigenvalues --    2.40448   2.42023   2.44346   2.44889   2.48484
 Alpha virt. eigenvalues --    2.53221   2.54292   2.57454   2.58711   2.58746
 Alpha virt. eigenvalues --    2.61102   2.62148   2.63642   2.64336   2.64586
 Alpha virt. eigenvalues --    2.68242   2.68850   2.70366   2.71151   2.72416
 Alpha virt. eigenvalues --    2.73865   2.74621   2.75026   2.75597   2.76277
 Alpha virt. eigenvalues --    2.76931   2.77807   2.79667   2.81616   2.82954
 Alpha virt. eigenvalues --    2.85059   2.87094   2.88279   2.93653   2.99563
 Alpha virt. eigenvalues --    3.03136   3.03823   3.04611   3.04992   3.09898
 Alpha virt. eigenvalues --    3.10620   3.16615   3.27071   3.40615   3.41819
 Alpha virt. eigenvalues --    3.85862   3.91827   3.97233   4.04849   4.08291
 Alpha virt. eigenvalues --    4.08448   4.11221   4.11510   4.12304   4.15106
 Alpha virt. eigenvalues --    4.17767   4.20059   4.21385   4.24954   4.27132
 Alpha virt. eigenvalues --    4.30021   4.32794   4.33111   4.35681   4.36596
 Alpha virt. eigenvalues --    4.38698   4.45057   4.51617   4.54407   4.62770
 Alpha virt. eigenvalues --    4.64975   4.66222   4.77065   4.82487   5.07974
          Condensed to atoms (all electrons):
 Mulliken charges:
               1
     1  C    0.204790
     2  C   -0.380269
     3  C   -0.350101
     4  C    0.029948
     5  H    0.187381
     6  C    0.332546
     7  O   -0.648787
     8  Si   0.909019
     9  C   -0.705840
    10  H    0.198310
    11  H    0.146575
    12  H    0.239268
    13  C   -0.662921
    14  H    0.171323
    15  H    0.163209
    16  H    0.169068
    17  C   -0.683167
    18  H    0.164807
    19  H    0.169445
    20  H    0.158861
    21  C   -0.571474
    22  H    0.184981
    23  H    0.183540
    24  H    0.189488
    25  C    0.188487
    26  C   -0.173452
    27  C   -0.187054
    28  C   -0.136345
    29  H    0.128551
    30  C   -0.134292
    31  H    0.163083
    32  C   -0.124789
    33  H    0.133701
    34  H    0.137944
    35  H    0.134201
    36  C    0.125911
    37  C   -0.169385
    38  C   -0.138524
    39  C   -0.134800
    40  H    0.128642
    41  C   -0.141766
    42  H    0.165715
    43  C   -0.120056
    44  H    0.133564
    45  H    0.136316
    46  H    0.134719
    47  H    0.210153
    48  H    0.391473
    49  S    1.156058
    50  O   -0.535162
    51  O   -0.639011
    52  O   -0.517425
    53  C    0.591872
    54  F   -0.234396
    55  F   -0.235601
    56  F   -0.238329
 Sum of Mulliken charges =   0.00000
 Mulliken charges with hydrogens summed into heavy atoms:
               1
     1  C    0.204790
     2  C   -0.380269
     3  C    0.047433
     4  C    0.029948
     6  C    0.332546
     7  O   -0.648787
     8  Si   0.909019
     9  C   -0.121686
    13  C   -0.159322
    17  C   -0.190054
    21  C   -0.013465
    25  C    0.188487
    26  C   -0.044901
    27  C   -0.023971
    28  C   -0.002644
    30  C    0.003653
    32  C    0.009413
    36  C    0.125911
    37  C   -0.040743
    38  C    0.027191
    39  C   -0.001236
    41  C   -0.005451
    43  C    0.014663
    49  S    1.156058
    50  O   -0.535162
    51  O   -0.247538
    52  O   -0.517425
    53  C    0.591872
    54  F   -0.234396
    55  F   -0.235601
    56  F   -0.238329
 Electronic spatial extent (au):  <R**2>=          13972.1433
 Charge=              0.0000 electrons
 Dipole moment (field-independent basis, Debye):
    X=              0.2540    Y=             -4.5201    Z=              1.7108  Tot=              4.8397
 Quadrupole moment (field-independent basis, Debye-Ang):
   XX=           -177.9997   YY=           -194.0355   ZZ=           -183.1109
   XY=             -6.3515   XZ=              0.8447   YZ=              4.3127
 Traceless Quadrupole moment (field-independent basis, Debye-Ang):
   XX=              7.0490   YY=             -8.9868   ZZ=              1.9378
   XY=             -6.3515   XZ=              0.8447   YZ=              4.3127
 Octapole moment (field-independent basis, Debye-Ang**2):
  XXX=             36.3989  YYY=             91.0180  ZZZ=             -0.2987  XYY=             25.7583
  XXY=             17.9326  XXZ=            -34.7660  XZZ=            -20.9938  YZZ=              6.9735
  YYZ=             -0.5906  XYZ=            -23.3421
 Hexadecapole moment (field-independent basis, Debye-Ang**3):
 XXXX=          -7622.0836 YYYY=          -5246.7541 ZZZZ=          -4441.8355 XXXY=            -92.7712
 XXXZ=             35.3184 YYYX=             64.4980 YYYZ=           -100.3950 ZZZX=              0.8829
 ZZZY=             35.4331 XXYY=          -2206.9928 XXZZ=          -1997.7584 YYZZ=          -1598.3179
 XXYZ=            -18.3212 YYXZ=             53.9392 ZZXY=            113.5288
 N-N= 3.770162674807D+03 E-N=-1.257263390273D+04  KE= 2.126368535253D+03
 No NMR shielding tensors so no spin-rotation constants.
 Leave Link  601 at Tue Apr 28 08:13:52 2020, MaxMem=  4294967296 cpu:               7.4 elap:               0.7
 (Enter /n/sw/g16_nehalem/g16/l701.exe)
 ... and contract with generalized density number  0.
 Compute integral first derivatives.
 R6Disp: Adding Grimme-D3(BJ) dispersion energy 1st derivatives to the gradient.
 Leave Link  701 at Tue Apr 28 08:13:53 2020, MaxMem=  4294967296 cpu:               7.4 elap:               0.7
 (Enter /n/sw/g16_nehalem/g16/l702.exe)
 L702 exits ... SP integral derivatives will be done elsewhere.
 Leave Link  702 at Tue Apr 28 08:13:53 2020, MaxMem=  4294967296 cpu:               1.0 elap:               0.1
 (Enter /n/sw/g16_nehalem/g16/l703.exe)
 Integral derivatives from FoFJK, PRISM(SPDF).
 Compute integral first derivatives, UseDBF=F ICtDFT=           0.
 Calling FoFJK, ICntrl=      2127 FMM=F ISym2X=0 I1Cent= 0 IOpClX= 0 NMat=1 NMatS=1 NMatT=0.
 FoFJK:  IHMeth= 1 ICntrl=    2127 DoSepK=F KAlg= 0 I1Cent=           0 FoldK=F
 IRaf=         0 NMat=       1 IRICut=       1 DoRegI=T DoRafI=F ISym2E= 0 IDoP0=0 IntGTp=1.
 FoFCou: FMM=F IPFlag=           0 FMFlag=      100000 FMFlg1=         800
         NFxFlg=           0 DoJE=F BraDBF=F KetDBF=F FulRan=T
         wScrn=  0.000000 ICntrl=      2127 IOpCl=  0 I1Cent=           0 NGrid=           0
         NMat0=    1 NMatS0=      1 NMatT0=    0 NMatD0=    1 NMtDS0=    0 NMtDT0=    0
 Symmetry not used in FoFCou.
 Leave Link  703 at Tue Apr 28 08:14:09 2020, MaxMem=  4294967296 cpu:             254.4 elap:              16.1
 (Enter /n/sw/g16_nehalem/g16/l716.exe)
 Dipole        = 9.99361562D-02-1.77835078D+00 6.73085788D-01
 ***** Axes restored to original set *****
 -------------------------------------------------------------------
 Center     Atomic                   Forces (Hartrees/Bohr)
 Number     Number              X              Y              Z
 -------------------------------------------------------------------
      1        6           0.002852889   -0.001056983   -0.005564201
      2        6          -0.000113415    0.000743799    0.000880839
      3        6          -0.000743860   -0.004897789    0.000202554
      4        6          -0.003943301   -0.000368774    0.001772509
      5        1           0.002279934   -0.000116383    0.000198267
      6        6           0.007523370    0.006221452    0.007516286
      7        8          -0.005304800    0.002041468   -0.003301340
      8       14          -0.008505692    0.002323234   -0.004319607
      9        6          -0.015727755   -0.006740950    0.032319963
     10        1          -0.000336548   -0.004777216    0.008656660
     11        1          -0.003460819   -0.001225725    0.003763212
     12        1          -0.016302760    0.006929149    0.014761440
     13        6           0.000337996   -0.000996381    0.001449370
     14        1           0.000261658    0.000669505   -0.000340776
     15        1           0.000045080   -0.000016791   -0.000463471
     16        1           0.000515144   -0.000506611    0.000125336
     17        6          -0.002204560   -0.000470130    0.005113959
     18        1          -0.000376975   -0.000384838   -0.000533422
     19        1           0.001028883    0.000256359    0.000091851
     20        1          -0.008255745   -0.000568820    0.008027106
     21        6           0.009149262   -0.006008997   -0.003440991
     22        1           0.000662832   -0.000919048   -0.000922525
     23        1           0.009797198   -0.011619796   -0.000342592
     24        1           0.007255564    0.000424670   -0.007089032
     25        6           0.002538746    0.000028821    0.000127036
     26        6           0.000726326    0.000482259   -0.000002628
     27        6           0.000857029   -0.000473167   -0.000043652
     28        6          -0.000128353    0.000957188   -0.000787743
     29        1          -0.000392713    0.000484970    0.000238364
     30        6          -0.000684118   -0.000852656    0.000979241
     31        1          -0.000022546   -0.000611201    0.000229920
     32        6          -0.001622504    0.000523912   -0.000003507
     33        1          -0.000071277    0.000235123   -0.000077501
     34        1          -0.000193758   -0.000120426    0.000140106
     35        1          -0.000224037    0.000040227    0.000023880
     36        6          -0.001420464    0.001897692    0.001167966
     37        6           0.000706362    0.006916739   -0.003703808
     38        6          -0.002650382   -0.002965687    0.002363567
     39        6           0.000075639    0.000288873    0.000154821
     40        1          -0.000382041   -0.002280168    0.001123078
     41        6           0.001348922   -0.000959437   -0.000427965
     42        1           0.000905908    0.000112485   -0.001463990
     43        6           0.001393086   -0.000399881    0.001479363
     44        1          -0.000381953   -0.000311356    0.000356922
     45        1           0.000651132    0.000211695   -0.000479556
     46        1           0.000211078   -0.000170429    0.000137469
[...]
 .00156790,-0.00533847,0.03810077,-0.01254938,0.00296348,-0.00672917,-0
 .00647714,0.00173666,-0.01291845,0.54311030,-0.00027251,-0.00010765,-0
 .00025436,-0.00020914,-0.00024304,-0.00003083,0.00007761,-0.00002327,-
 0.00015784,0.00012585,0.00012784,-0.00015879,-0.00001175,-0.00011885,0
 .00004438,0.00008899,0.00000236,0.00022281,0.00008456,-0.00039483,0.00
 004842,0.00035958,0.00111210,-0.00064832,-0.00044692,-0.00081959,0.000
 47719,0.00031108,0.00030873,0.00003471,0.00020218,0.00006402,-0.000207
 01,-0.00010239,0.00030728,-0.00028006,-0.00012766,-0.00023505,0.000144
 08,-0.00009357,-0.00002740,-0.00000672,0.00002060,0.00001848,-0.000007
 19,0.00007127,0.00002684,0.00001594,-0.00010905,-0.00025298,0.00019255
 ,-0.00000727,0.00001557,-0.00003183,0.00000923,-0.00002194,0.00009788,
 0.00002411,0.00000518,-0.00002218,-0.00007680,0.00004511,0.00007101,0.
 00004986,-0.00005197,0.00000452,-0.00003930,0.00000114,-0.00001979,0.0
 0002559,0.00001142,0.00001911,-0.00026737,-0.00000785,0.00010065,0.000
 05441,0.00002177,-0.00004833,0.00012847,0.00004558,0.00001132,0.000051
 56,0.00002234,-0.00000565,-0.00001096,0.00002082,-0.00002156,-0.000031
 46,-0.00003652,0.00011543,-0.00019002,-0.00001463,-0.00012917,0.000108
 97,-0.00003599,0.00001863,0.00001866,-0.00001716,-0.00000319,0.0000440
 9,-0.00002744,-0.00008420,0.00002308,-0.00003265,-0.00001302,-0.000049
 85,-0.00001196,-0.00003128,0.00014999,-0.00000845,-0.00018024,0.000048
 18,-0.00000738,-0.00000627,-0.00000132,-0.00010465,0.00006887,-0.00003
 280,0.00015583,0.00021702,-0.00001243,-0.00000552,-0.00001849,-0.00000
 955,0.00001005,0.00001996,0.00001210,-0.00000691,0.00001610,0.00001563
 ,0.00002230,0.00001492,-0.00001851,-0.00000424,0.00001499,-0.00003259,
 0.00000791,0.00000290,-0.00013597,0.00015285,0.00021776,0.00046621,0.0
 0103053,0.00025722,-0.02607638,0.00343029,-0.00420393,-0.00051029,-0.0
 0686740,-0.00260994,0.00444606,-0.00369776,0.00358741,0.00750046,-0.00
 086500,-0.00317650,-0.26297415,-0.06983963,-0.06471732,0.37819554,0.00
 027822,-0.00003275,-0.00049707,-0.00040646,-0.00114117,0.00028795,0.00
 009078,0.00014429,-0.00011259,0.00017504,0.00010106,0.00008499,0.00000
 844,-0.00013647,0.00008461,0.00032317,0.00002375,-0.00058721,-0.000451
 13,0.00020087,0.00055184,0.00041395,-0.00015884,-0.00055294,-0.0001844
 6,0.00007248,0.00017028,0.00027857,-0.00004883,-0.00014606,-0.00008785
 ,0.00004872,0.00007828,0.00003068,-0.00009419,-0.00015771,-0.00008310,
 0.00001528,0.00008201,-0.00001234,-0.00000833,-0.00000907,-0.00003194,
 0.00001625,0.00001720,0.00005344,-0.00002167,0.00000301,-0.00005860,-0
 .00001831,0.00013495,-0.00002229,0.00001080,0.00002545,0.00000547,-0.0
 0000607,0.00002111,0.00000877,-0.00001609,-0.00003507,-0.00007209,-0.0
 0000141,0.00009521,0.00001934,0.00000339,-0.00000444,0.00003137,0.0000
 2467,0.00000686,0.00003298,-0.00001230,0.00003055,-0.00019529,0.000110
 43,0.00006149,0.00003439,0.00001685,-0.00001309,0.00003101,0.00009920,
 -0.00012403,0.00003233,0.00001141,-0.00000677,-0.00001585,0.00000826,-
 0.00000562,-0.00005757,-0.00008245,0.00010406,-0.00013842,0.00015195,0
 .00006507,0.00005673,-0.00001711,0.00000826,0.00001826,-0.00002721,0.0
 0000848,0.00001440,0.00000406,-0.00004090,0.00003678,-0.00002932,-0.00
 000261,-0.00007038,-0.00000486,-0.00001754,0.00018371,0.00002953,-0.00
 021331,0.00005529,0.00001801,-0.00006257,-0.00004519,-0.00014173,0.000
 14073,-0.00000115,0.00015245,0.00030370,-0.00003838,0.00002441,-0.0000
 2185,0.00000010,-0.00001130,0.00001518,-0.00003894,0.00001770,-0.00000
 760,0.00000812,0.00000814,-0.00002409,-0.00003338,-0.00001660,0.000009
 42,-0.00004808,-0.00000725,-0.00000549,-0.00013400,0.00020966,0.000261
 12,0.00015751,0.00315801,-0.00012124,-0.03014242,0.00339259,-0.0068172
 9,-0.00501368,-0.00913352,-0.00396667,0.00221278,-0.00501171,0.0024470
 1,0.00457868,-0.00165209,-0.00246092,-0.07439617,-0.10507894,-0.027250
 53,0.07725773,0.08484458,0.00001412,-0.00007267,-0.00034738,-0.0002982
 7,-0.00069329,0.00008623,0.00006119,0.00002441,-0.00006821,0.00005701,
 0.00012114,-0.00003201,0.00000570,-0.00008341,0.00005174,0.00035304,-0
 .00002809,-0.00035560,-0.00032434,0.00027244,0.00043562,0.00005370,-0.
 00047675,-0.00028281,-0.00001240,0.00027334,0.00001816,0.00013989,-0.0
 0006375,-0.00012273,-0.00013718,0.00002350,0.00008598,0.00004611,-0.00
 020761,-0.00003615,0.00001375,0.00009542,0.00003358,0.00002655,-0.0000
 0046,-0.00000209,-0.00003095,0.00000681,0.00000547,0.00002542,-0.00001
 604,0.00000379,0.00000564,0.00006706,0.00005476,-0.00002002,0.00000038
 ,0.00002494,0.00000703,0.00000769,-0.00001431,0.00001353,-0.00002565,0
 .00000160,-0.00004136,0.00000147,0.00005291,0.00002675,-0.00002730,-0.
 00000042,-0.00000699,0.00000205,0.00003965,0.00003453,0.00001002,0.000
 02796,-0.00011413,0.00008253,0.00005272,0.00002061,0.00000945,0.000004
 22,0.00002216,0.00004390,-0.00004925,0.00002200,0.00000300,0.00000287,
 -0.00001172,-0.00000132,-0.00000663,-0.00000672,-0.00002175,0.00004658
 ,-0.00006200,0.00004397,-0.00002271,0.00003667,-0.00001146,0.00001044,
 0.00000829,-0.00001513,0.00000101,0.00000322,-0.00000249,-0.00002719,0
 .00001432,-0.00001621,-0.00000546,-0.00006730,-0.00000514,-0.00003044,
 0.00010366,0.00001162,-0.00012914,0.00003780,0.00001191,-0.00001466,-0
 .00001007,-0.00007481,0.00005028,-0.00001323,0.00011052,0.00015972,-0.
 00003309,0.00000954,-0.00000808,-0.00000597,-0.00002000,0.00000710,-0.
 00001268,0.00000006,0.00000912,0.00001407,0.00000756,0.00000551,-0.000
 01706,-0.00001105,0.00000475,-0.00002147,0.00000018,0.00000078,-0.0000
 8335,0.00012041,0.00014560,0.00058691,0.00153584,0.00019868,-0.0172980
 2,0.00093397,-0.00208123,-0.00238789,-0.00510620,-0.00147524,0.0024348
 3,-0.00338106,0.00352183,0.00159090,-0.00070459,0.00044295,-0.06518899
 ,-0.02615699,-0.09554072,0.08873743,0.01847608,0.10124073,-0.00045859,
 0.00000222,0.00038899,0.00034753,0.00117496,-0.00025408,-0.00001364,-0
 .00014642,-0.00004883,-0.00000446,-0.00002217,-0.00018565,-0.00001534,
 0.00003006,-0.00005647,-0.00065171,0.00005020,0.00111456,0.00087360,-0
 .00112497,-0.00092055,0.00024635,0.00254392,-0.00021489,-0.00103707,-0
 .00266206,0.00093045,0.00019832,0.00063331,0.00050438,0.00055600,-0.00
 000162,-0.00048212,-0.00053721,0.00074365,-0.00030474,-0.00018344,-0.0
 0053412,0.00012805,-0.00018710,-0.00003217,-0.00000541,0.00009168,0.00
 000876,-0.00002322,0.00003912,0.00007387,0.00001431,-0.00015875,-0.000
 49751,0.00013646,0.00002501,0.00001797,-0.00009529,0.00000566,-0.00003
 829,0.00017160,0.00001149,0.00004983,-0.00002006,0.00000698,0.00004908
 ,-0.00002498,0.00001913,-0.00002927,0.00000475,-0.00006689,-0.00002018
 ,-0.00008903,-0.00003472,0.00000726,-0.00002858,-0.00011494,-0.0001323
 9,0.00001932,0.00002855,0.00000730,-0.00007107,0.00009962,-0.00011419,
 0.00013357,0.00001481,0.00002224,-0.00001173,0.00000844,0.00003019,-0.
 00001671,-0.00000496,0.00006179,-0.00002811,0.00004168,-0.00019417,-0.
 00001372,0.00002931,-0.00002005,0.00000806,0.00000259,0.00001309,-0.00
 000754,0.00003779,-0.00002259,-0.00002449,-0.00001177,0.00000656,-0.00
 000766,0.00006568,-0.00000129,0.00000666,-0.00006523,-0.00005518,0.000
 05101,-0.00000661,-0.00003293,0.00003131,0.00004429,0.00002841,-0.0000
 3589,-0.00001613,-0.00001959,-0.00006417,0.00005065,-0.00002568,-0.000
 01458,-0.00000134,0.00005377,0.00000868,0.00004071,-0.00001900,0.00001
 213,-0.00001125,0.00001333,0.00001400,0.00001630,0.00002008,0.00000834
 ,0.00000934,0.00001332,0.00000487,-0.00002690,-0.00005683,-0.00006169,
 -0.00023052,-0.00207902,-0.00020621,-0.00997003,-0.00664372,0.01232919
 ,0.00646361,0.00210048,-0.00097878,0.00106592,0.00353010,-0.00266791,0
 .00037740,0.00437637,0.00181648,-0.14990184,0.02089951,0.10641026,-0.0
 6502066,-0.00280236,0.03704840,0.20258420,0.00049823,0.00000221,-0.000
 50917,-0.00043120,-0.00133682,0.00035280,0.00001815,0.00021334,-0.0000
 2225,0.00012551,0.00000396,0.00025569,0.00002070,-0.00006123,0.0000406
 6,0.00018567,0.00005301,-0.00068801,-0.00043647,0.00027535,0.00049657,
 0.00025239,-0.00025352,-0.00038971,-0.00051267,-0.00102957,0.00062953,
 0.00024005,-0.00018661,0.00015046,-0.00022297,0.00006047,0.00017536,-0
 .00062864,-0.00060879,-0.00010163,-0.00007027,-0.00000155,0.00007703,-
 0.00001938,0.00000438,-0.00001636,-0.00003726,0.00001311,0.00002613,0.
 00003309,-0.00003145,-0.00000384,-0.00004650,0.00001163,0.00009157,-0.
 00002878,0.00000769,0.00003716,0.00000951,0.00000370,0.00001354,0.0000
 0554,-0.00002288,-0.00003032,-0.00006553,-0.00000907,0.00007576,0.0000
 0584,0.00000704,-0.00001195,0.00003917,0.00003507,0.00000510,0.0000331
 3,-0.00001542,0.00002713,-0.00003156,0.00011709,0.00000953,-0.00000153
 ,-0.00000071,0.00003637,-0.00004922,0.00017833,-0.00014709,0.00001184,
 -0.00000573,0.00000219,-0.00001366,-0.00000919,0.00000909,-0.00003539,
 -0.00011228,0.00010486,-0.00017653,0.00027119,-0.00000335,0.00003058,0
 .00000292,-0.00000267,0.00001075,-0.00002643,0.00001108,-0.00001117,0.
 00001630,-0.00001978,0.00003487,-0.00002803,0.00000281,-0.00003435,-0.
 00000880,0.00000634,0.00006547,0.00003981,-0.00003095,0.00002442,0.000
 01820,-0.00007697,-0.00004624,-0.00006733,0.00008015,0.00003582,0.0000
 4523,0.00010491,-0.00002021,0.00003456,-0.00001768,0.00001044,-0.00000
 884,0.00000483,-0.00004092,0.00001673,-0.00001876,0.00000194,0.0000004
 7,-0.00002958,-0.00002681,-0.00001318,0.00000454,-0.00002979,-0.000009
 96,-0.00001098,0.00004740,0.00012418,0.00011496,0.00005128,0.00321594,
 0.00011830,0.01597097,0.00695132,-0.01989193,-0.00321474,-0.00209907,0
 .00048698,0.00018984,-0.00459596,0.00186132,0.00306371,-0.00678166,-0.
 00591354,0.02430037,-0.08406138,-0.03569791,-0.01297968,0.01391408,0.0
 0949522,-0.01188674,0.06778275,0.00062457,-0.00015740,-0.00082775,-0.0
 0065589,-0.00212082,0.00043885,0.00002074,0.00029447,0.00006726,-0.000
 00207,0.00006821,0.00023639,0.00001967,-0.00006357,0.00008805,0.000981
 85,-0.00005735,-0.00156517,-0.00122876,0.00148612,0.00137944,-0.000236
 29,-0.00328005,0.00011625,0.00069340,0.00272972,-0.00103401,-0.0001776
 8,-0.00063382,-0.00037920,-0.00078325,-0.00000437,0.00053589,0.0007549
 0,-0.00113029,0.00035331,0.00023825,0.00070197,-0.00012711,0.00024345,
 0.00003451,0.00000737,-0.00012990,-0.00000460,0.00002285,-0.00002577,-
 0.00008742,-0.00000956,0.00017063,0.00058870,-0.00009965,-0.00005175,-
 0.00002025,0.00012675,0.00000644,0.00005354,-0.00019260,0.00000537,-0.
 00008729,0.00003124,-0.00003607,-0.00004919,0.00005729,0.00000682,-0.0
 0000144,-0.00000875,0.00005274,0.00001422,0.00016202,0.00007314,0.0000
 1057,0.00006257,0.00008403,0.00024015,0.00001741,-0.00001959,-0.000009
 20,0.00010714,-0.00009354,0.00019011,-0.00019932,-0.00000414,-0.000026
 96,0.00002433,-0.00002129,-0.00004262,0.00001601,0.00001199,-0.0001106
 4,0.00009298,-0.00012784,0.00026645,-0.00011782,0.00000260,0.00002024,
 -0.00000644,0.00000199,-0.00002972,0.00000875,-0.00004389,0.00002383,0
 .00000330,0.00002706,-0.00002599,0.00000520,-0.00011063,-0.00000323,-0
 .00002791,0.00011795,0.00007188,-0.00006615,0.00001345,0.00004244,-0.0
 0005177,-0.00006137,-0.00005688,0.00004114,0.00001771,0.00007522,0.000
 09915,-0.00006555,0.00003691,0.00002092,-0.00000010,-0.00007567,-0.000
 00656,-0.00003756,0.00002116,-0.00001546,0.00002448,-0.00000533,0.0000
 0015,-0.00003042,-0.00002981,-0.00000573,-0.00001816,-0.00001259,-0.00
 000645,0.00004788,0.00011624,0.00010388,0.00041861,0.00383175,0.000553
 61,0.02104574,0.01023683,-0.02307386,-0.00570534,-0.00272920,0.0023651
 3,-0.00058024,-0.00705921,0.00770139,0.00165065,-0.00853941,-0.0042639
 8,0.10694891,-0.03145268,-0.22025129,0.02083585,0.00405489,0.01221681,
 -0.16350614,0.01137138,0.28733648,-0.00054742,0.00000609,0.00034263,0.
 00039959,0.00116058,-0.00031181,-0.00006626,0.00002672,-0.00001625,-0.
 00003969,-0.00008767,-0.00024296,-0.00003625,0.00002331,-0.00001678,0.
 00003072,-0.00005623,0.00051731,0.00023665,-0.00020012,-0.00021099,-0.
 00014888,0.00039994,0.00001698,-0.00001761,-0.00023401,0.00004651,-0.0
 0004899,0.00012846,0.00002491,0.00005819,-0.00001234,-0.00010139,-0.00
 000520,0.00011274,0.00004589,0.00001721,-0.00007346,0.00001300,-0.0000
 1779,-0.00000818,0.00000613,0.00002105,-0.00000038,-0.00001701,0.00000
 491,0.00002705,0.00000802,0.00000551,-0.00007025,0.00000761,0.00000445
 ,-0.00000104,-0.00002354,0.00000169,-0.00000202,0.00002039,0.00001025,
 0.00000420,0.00001757,0.00002588,0.00002775,-0.00003157,0.00001111,-0.
 00002607,-0.00000170,-0.00004509,-0.00001913,-0.00000928,-0.00001375,0
 .00001341,-0.00001499,0.00005172,-0.00014705,0.00000825,-0.00000550,0.
 00000599,-0.00001844,0.00001242,0.00000335,0.00005090,0.00001157,-0.00
 000185,0.00000651,0.00000454,-0.00000598,-0.00000070,0.00001268,0.0000
 1416,0.00000934,-0.00001523,-0.00003405,-0.00007350,0.00001395,-0.0000
 0507,0.00000590,-0.00000169,0.00000489,-0.00000565,0.00000292,-0.00001
 180,-0.00001438,-0.00000796,-0.00000189,-0.00000336,0.00003560,0.00000
 568,0.00000566,0.00005665,0.00000038,0.00000356,-0.00003604,-0.0000171
 6,0.00006272,0.00000708,0.00003772,-0.00005124,-0.00002494,0.00001643,
 -0.00005519,0.00002383,-0.00003783,0.00003415,-0.00001115,0.00000536,0
 .00000448,0.00005983,-0.00000186,0.00000611,0.00001304,0.00000959,0.00
 003821,0.00001134,0.00000387,0.00000226,0.00001251,0.00000729,0.000005
 08,-0.00000236,-0.00003384,-0.00003455,-0.00042381,-0.00215997,-0.0001
 1859,-0.00087864,0.00236428,-0.00763913,0.00419345,0.00091610,0.002221
 74,0.00051916,0.00351768,0.00010744,0.00083565,-0.00031182,0.00043419,
 -0.09354281,0.04892241,-0.04444174,-0.03584329,0.02815347,-0.04536005,
 0.01532934,-0.01421848,0.01861236,0.10974589,0.00238236,-0.00023179,-0
 .00186816,-0.00188567,-0.00558076,0.00157941,0.00023255,0.00027898,0.0
 0011619,0.00007959,0.00006767,0.00106782,0.00008993,-0.00009169,0.0000
 5851,-0.00037893,0.00029791,-0.00199887,-0.00071674,0.00034111,0.00076
 534,0.00078006,-0.00041846,-0.00066810,-0.00018457,0.00007153,0.000210
 39,0.00025156,-0.00011499,-0.00004407,-0.00004245,0.00008061,0.0001060
 9,-0.00003768,-0.00001419,-0.00024974,-0.00016812,0.00003691,0.0000899
 6,-0.00001860,-0.00000433,-0.00002160,-0.00005011,0.00002171,0.0000402
 0,0.00005393,-0.00005278,-0.00000640,-0.00009941,0.00002788,0.00015936
 ,-0.00002403,0.00001830,0.00004994,0.00000084,-0.00001404,0.00001130,-
 0.00001074,-0.00001235,-0.00008069,-0.00018920,-0.00005767,0.00017471,
 0.00001046,0.00004323,0.00001431,0.00013411,0.00008443,0.00003048,0.00
 008387,-0.00003605,0.00008614,-0.00053531,0.00069362,0.00005267,0.0000
 9529,-0.00002092,0.00004951,0.00011036,0.00002706,-0.00016495,-0.00000
 987,0.00003714,-0.00002329,-0.00003088,0.00005234,-0.00002670,-0.00007
 184,-0.00009012,0.00007679,-0.00011878,0.00010357,0.00011283,0.0000616
 8,-0.00000640,-0.00001325,0.00002214,-0.00003611,0.00001580,0.00003781
 ,0.00001408,-0.00003197,0.00005268,-0.00002684,-0.00000231,-0.00009831
 ,-0.00000995,-0.00003971,-0.00013333,-0.00003133,0.00003368,0.00009535
 ,0.00003761,-0.00025680,-0.00006132,-0.00015945,0.00015505,0.00005651,
 0.00004318,0.00018511,-0.00004120,0.00013801,-0.00010402,0.00004239,-0
 .00000502,-0.00000331,-0.00015264,0.00000701,-0.00004685,-0.00002975,0
 .00000328,-0.00009155,-0.00005864,-0.00001514,0.00000879,-0.00005771,-
 0.00001192,-0.00002093,0.00001410,0.00011760,0.00012143,0.00181085,0.0
 1119911,0.00081762,0.01269179,-0.01125595,0.03290103,-0.00516559,-0.00
 171332,-0.00425170,0.00116304,-0.02044500,0.00272946,0.00200036,-0.001
 12824,-0.00729064,0.05086092,-0.19912261,0.10748310,0.01264331,0.01607
 764,0.00542174,-0.00734711,0.00796541,0.02132550,-0.06813931,0.2028204
 4,-0.00058449,-0.00000134,0.00025254,0.00037009,0.00097028,-0.00032663
 ,-0.00007518,0.00004942,0.00000555,-0.00007292,-0.00004567,-0.00029439
 ,-0.00003771,0.00001731,0.00000409,0.00046420,-0.00011311,0.00014212,-
 0.00014788,0.00037255,0.00023021,-0.00041115,-0.00094344,0.00019495,0.
 00025319,0.00074283,-0.00031260,-0.00012311,-0.00014331,-0.00010345,-0
 .00024873,-0.00004158,0.00009923,0.00017564,-0.00047474,0.00022018,0.0
 0014823,0.00021700,-0.00005728,0.00008682,0.00001083,0.00001039,-0.000
 02744,-0.00000726,-0.00001019,-0.00001973,-0.00000689,0.00000287,0.000
 09991,0.00018470,-0.00007245,-0.00001344,-0.00001378,0.00002451,0.0000
 0403,0.00002499,-0.00006632,0.00001330,-0.00003055,0.00004534,0.000038
 86,0.00000611,-0.00002579,0.00001077,-0.00002956,-0.00000262,-0.000036
 96,-0.00003019,0.00005267,0.00000611,0.00002222,-0.00000115,0.00009878
 ,-0.00012209,0.00001085,-0.00002348,0.00000416,0.00000906,-0.00003281,
 0.00004604,-0.00001003,0.00000980,-0.00001252,0.00001464,0.00000347,-0
 .00002404,0.00000234,0.00002723,0.00002331,-0.00000780,-0.00003333,0.0
 0005140,0.00004275,-0.00000544,0.00000032,0.00001020,-0.00000557,0.000
 00342,-0.00000630,-0.00002245,-0.00000770,-0.00000394,-0.00001346,0.00
 000135,-0.00000307,-0.00000345,0.00000571,-0.00000935,0.00011662,0.000
 02941,-0.00003007,-0.00004089,-0.00000438,0.00008691,-0.00000794,0.000
 04232,-0.00006741,-0.00002860,0.00004908,-0.00004804,-0.00000068,-0.00
 004156,0.00005704,-0.00001831,-0.00002820,0.00000057,0.00006308,0.0000
 0399,0.00001039,0.00003003,0.00000468,0.00005227,0.00000944,-0.0000064
 2,-0.00000221,0.00001602,0.00000398,0.00000610,-0.00002550,-0.00001829
 ,-0.00002391,-0.00018109,-0.00185235,-0.00004976,-0.00405546,0.0027553
 4,-0.00894005,0.00298372,-0.00028624,0.00266238,0.00030234,0.00276946,
 0.00170958,-0.00158273,-0.00040719,0.00507530,-0.04422016,0.10203526,-
 0.16763658,-0.03853508,0.01563446,-0.01839167,0.00917448,0.03735507,-0
 .06206277,0.07612900,-0.15874463,0.24753079\\0.00000252,-0.00000304,0.
 00000199,0.00074001,0.01159317,0.00133105,0.00000254,-0.00000061,0.000
 00237,0.00000698,0.00000697,0.00001078,-0.00000056,0.00000040,-0.00000
 148,0.00000265,-0.00000858,0.00000668,-0.00000527,0.00001242,-0.000005
 47,0.00000845,-0.00000566,0.00000511,-0.00000255,0.00000138,-0.0000003
 7,-0.00000430,-0.00000151,-0.00000161,0.00000126,0.00000046,-0.0000039
 5,-0.00000038,0.00000178,0.00000114,0.00000239,-0.00000261,-0.00000564
 ,-0.00000353,0.00000143,0.00000199,0.00000157,0.00000176,0.00000318,-0
 .00000158,0.00000028,-0.00000014,-0.00000123,0.00000113,0.00000220,0.0
 0000049,0.00000073,0.00000018,-0.00000193,0.00000032,-0.00000264,-0.00
 000205,0.00000121,0.00000175,0.00000313,-0.00000529,-0.00000168,0.0000
 0015,-0.00000050,0.00000046,0.00000097,0.00000329,-0.00000072,0.000000
 86,0.00000423,0.00000050,0.00000008,0.00000025,0.00000411,-0.00000149,
 -0.00000097,-0.00000067,0.00000210,0.00000199,0.00000068,0.00000154,0.
 00000030,0.,0.00000003,0.00000044,0.00000111,0.00000109,-0.00000003,-0
 .00000052,-0.00000168,-0.00000148,-0.00000107,-0.00000064,0.00000005,0
 .00000094,0.00000018,0.00000058,0.00000089,0.00000015,-0.00000018,0.00
 000038,0.00000020,0.00000044,0.00000054,-0.00001262,-0.00000459,-0.000
 00660,0.00000374,0.00000099,-0.00000065,0.00000383,0.00000087,0.000003
 80,-0.00000066,-0.00000260,0.00000113,-0.00000028,-0.00000212,0.000000
 37,-0.00000306,-0.00000015,-0.00000222,-0.00000043,-0.00000210,-0.0000
 0157,0.00000075,-0.00000197,0.00000179,-0.00000097,-0.00000147,-0.0000
 0057,0.00000004,-0.00000026,0.00000048,0.00000020,-0.00000100,-0.00000
 046,-0.00000060,-0.00000252,-0.00000211,-0.00145246,-0.01090785,-0.001
 94436,0.00000660,0.00000011,-0.00000814,0.00072045,-0.00068020,0.00060
 245,-0.00000924,0.00000461,0.00000029,-0.00000526,-0.00000444,0.000007
 12,-0.00000225,-0.00000543,0.00000742,0.00000110,0.00000139,-0.0000006
 8,0.00000137,0.00000023,-0.00000263,-0.00000241,0.00000396,-0.00000694
 \\\@


 SLITHERY-DITHERY
 FRIEDRICH A. KEKULE
 DREAMT ON A BUS OF THINGS
 FREUD WOULD THINK KEEN.
 MOST OF THE TIME THEY WERE
 HERPETOLOGICAL
 BITING THEIR TAILS IN THE
 SHAPE OF BENZENE.
 Job cpu time:       0 days  5 hours 10 minutes 33.0 seconds.
 Elapsed time:       0 days  0 hours 19 minutes 29.0 seconds.
 File lengths (MBytes):  RWF=   1846 Int=      0 D2E=      0 Chk=     25 Scr=      1
 Normal termination of Gaussian 16 at Tue Apr 28 09:27:12 2020.
