 Entering Gaussian System, Link 0=g16
 Input=ethane.gjf
 Output=ethane.out
 Initial command:
 /n/sw/g16_nehalem/g16/l1.exe "/scratch/Gau-161550.inp" -scrdir="/scratch/"
 Entering Link 1 = /n/sw/g16_nehalem/g16/l1.exe PID=    161552.
  
 Copyright (c) 1988,1990,1992,1993,1995,1998,2003,2009,2016,
            Gaussian, Inc.  All Rights Reserved.
  
 This is part of the Gaussian(R) 16 program.  It is based on
 the Gaussian(R) 09 system (copyright 2009, Gaussian, Inc.),
 the Gaussian(R) 03 system (copyright 2003, Gaussian, Inc.),
 the Gaussian(R) 98 system (copyright 1998, Gaussian, Inc.),
 the Gaussian(R) 94 system (copyright 1995, Gaussian, Inc.),
 the Gaussian 92(TM) system (copyright 1992, Gaussian, Inc.),
 the Gaussian 90(TM) system (copyright 1990, Gaussian, Inc.),
 the Gaussian 88(TM) system (copyright 1988, Gaussian, Inc.),
 the Gaussian 86(TM) system (copyright 1986, Carnegie Mellon
 University), and the Gaussian 82(TM) system (copyright 1983,
 Carnegie Mellon University). Gaussian is a federally registered
 trademark of Gaussian, Inc.
  
 This software contains proprietary and confidential information,
 including trade secrets, belonging to Gaussian, Inc.
  
 This software is provided under written license and may be
 used, copied, transmitted, or stored only in accord with that
 written license.
  
 The following legend is applicable only to US Government
 contracts under FAR:
  
                    RESTRICTED RIGHTS LEGEND
  
 Use, reproduction and disclosure by the US Government is
 subject to restrictions as set forth in subparagraphs (a)
 and (c) of the Commercial Computer Software - Restricted
 Rights clause in FAR 52.227-19.
  
 Gaussian, Inc.
 340 Quinnipiac St., Bldg. 40, Wallingford CT 06492
  
  
 ---------------------------------------------------------------
 Warning -- This program may not be used in any manner that
 competes with the business of Gaussian, Inc. or will provide
 assistance to any competitor of Gaussian, Inc.  The licensee
 of this program is prohibited from giving any competitor of
 Gaussian, Inc. access to this program.  By using this program,
 the user acknowledges that Gaussian, Inc. is engaged in the
 business of creating and licensing software in the field of
 computational chemistry and represents and warrants to the
 licensee that it is not a competitor of Gaussian, Inc. and that
 it will not use this program in any manner prohibited above.
 ---------------------------------------------------------------
  

 Cite this work as:
 Gaussian 16, Revision A.03,
 M. J. Frisch, G. W. Trucks, H. B. Schlegel, G. E. Scuseria, 
 M. A. Robb, J. R. Cheeseman, G. Scalmani, V. Barone, 
 G. A. Petersson, H. Nakatsuji, X. Li, M. Caricato, A. V. Marenich, 
 J. Bloino, B. G. Janesko, R. Gomperts, B. Mennucci, H. P. Hratchian, 
 J. V. Ortiz, A. F. Izmaylov, J. L. Sonnenberg, D. Williams-Young, 
 F. Ding, F. Lipparini, F. Egidi, J. Goings, B. Peng, A. Petrone, 
 T. Henderson, D. Ranasinghe, V. G. Zakrzewski, J. Gao, N. Rega, 
 G. Zheng, W. Liang, M. Hada, M. Ehara, K. Toyota, R. Fukuda, 
 J. Hasegawa, M. Ishida, T. Nakajima, Y. Honda, O. Kitao, H. Nakai, 
 T. Vreven, K. Throssell, J. A. Montgomery, Jr., J. E. Peralta, 
 F. Ogliaro, M. J. Bearpark, J. J. Heyd, E. N. Brothers, K. N. Kudin, 
 V. N. Staroverov, T. A. Keith, R. Kobayashi, J. Normand, 
 K. Raghavachari, A. P. Rendell, J. C. Burant, S. S. Iyengar, 
 J. Tomasi, M. Cossi, J. M. Millam, M. Klene, C. Adamo, R. Cammi, 
 J. W. Ochterski, R. L. Martin, K. Morokuma, O. Farkas, 
 J. B. Foresman, and D. J. Fox, Gaussian, Inc., Wallingford CT, 2016.
 
 ******************************************
 Gaussian 16:  ES64L-G16RevA.03 25-Dec-2016
                25-Mar-2020 
 ******************************************
 %nprocshared=18
 Will use up to   18 processors via shared memory.
 %mem=16GB
 %chk=checkpoint.chk
 --------------------------------
 #p b3lyp 6-31g* opt freq=noraman
 --------------------------------
 1/18=20,19=15,26=3,38=1/1,3;
 2/9=110,12=2,17=6,18=5,40=1/2;
 3/5=1,6=6,7=1,11=2,25=1,30=1,71=1,74=-5/1,2,3;
 4//1;
 5/5=2,38=5/2;
 6/7=2,8=2,9=2,10=2,28=1/1;
 7//1,2,3,16;
 1/18=20,19=15,26=3/3(2);
 2/9=110/2;
 99//99;
 2/9=110/2;
 3/5=1,6=6,7=1,11=2,25=1,30=1,71=1,74=-5/1,2,3;
 4/5=5,16=3,69=1/1;
 5/5=2,38=5/2;
 7//1,2,3,16;
 1/18=20,19=15,26=3/3(-5);
 2/9=110/2;
 6/7=2,8=2,9=2,10=2,19=2,28=1/1;
 99/9=1/99;
 Leave Link    1 at Wed Mar 25 15:22:18 2020, MaxMem=  2147483648 cpu:               1.2 elap:               0.1
 (Enter /n/sw/g16_nehalem/g16/l101.exe)
 -------------------
 Title Card Required
 -------------------
 Symbolic Z-matrix:
 Charge =  0 Multiplicity = 1
 C                    -3.6566    2.09062   0. 
 H                    -3.29994   1.08181   0. 
 H                    -3.29992   2.59502  -0.87365 
 H                    -4.7266    2.09063   0. 
 C                    -3.14326   2.81658   1.2574 
 H                    -3.49831   3.82595   1.25643 
 H                    -3.50152   2.31331   2.13105 
 H                    -2.07326   2.81487   1.25838 
 
 ITRead=  0  0  0  0  0  0  0  0
 MicOpt= -1 -1 -1 -1 -1 -1 -1 -1
 NAtoms=      8 NQM=        8 NQMF=       0 NMMI=      0 NMMIF=      0
                NMic=       0 NMicF=      0.
                    Isotopes and Nuclear Properties:
 (Nuclear quadrupole moments (NQMom) in fm**2, nuclear magnetic moments (NMagM)
  in nuclear magnetons)

  Atom         1           2           3           4           5           6           7           8
 IAtWgt=          12           1           1           1          12           1           1           1
 AtmWgt=  12.0000000   1.0078250   1.0078250   1.0078250  12.0000000   1.0078250   1.0078250   1.0078250
 NucSpn=           0           1           1           1           0           1           1           1
 AtZEff=   0.0000000   0.0000000   0.0000000   0.0000000   0.0000000   0.0000000   0.0000000   0.0000000
 NQMom=    0.0000000   0.0000000   0.0000000   0.0000000   0.0000000   0.0000000   0.0000000   0.0000000
 NMagM=    0.0000000   2.7928460   2.7928460   2.7928460   0.0000000   2.7928460   2.7928460   2.7928460
 AtZNuc=   6.0000000   1.0000000   1.0000000   1.0000000   6.0000000   1.0000000   1.0000000   1.0000000
 Leave Link  101 at Wed Mar 25 15:22:19 2020, MaxMem=  2147483648 cpu:               5.7 elap:               0.4
 (Enter /n/sw/g16_nehalem/g16/l103.exe)

 GradGradGradGradGradGradGradGradGradGradGradGradGradGradGradGradGradGrad
 Berny optimization.
 Initialization pass.
                           ----------------------------
                           !    Initial Parameters    !
                           ! (Angstroms and Degrees)  !
 --------------------------                            --------------------------
 ! Name  Definition              Value          Derivative Info.                !
 --------------------------------------------------------------------------------
 ! R1    R(1,2)                  1.07           estimate D2E/DX2                !
 ! R2    R(1,3)                  1.07           estimate D2E/DX2                !
 ! R3    R(1,4)                  1.07           estimate D2E/DX2                !
 ! R4    R(1,5)                  1.54           estimate D2E/DX2                !
 ! R5    R(5,6)                  1.07           estimate D2E/DX2                !
 ! R6    R(5,7)                  1.07           estimate D2E/DX2                !
 ! R7    R(5,8)                  1.07           estimate D2E/DX2                !
 ! A1    A(2,1,3)              109.4712         estimate D2E/DX2                !
 ! A2    A(2,1,4)              109.4712         estimate D2E/DX2                !
 ! A3    A(2,1,5)              109.4712         estimate D2E/DX2                !
 ! A4    A(3,1,4)              109.4712         estimate D2E/DX2                !
 ! A5    A(3,1,5)              109.4713         estimate D2E/DX2                !
 ! A6    A(4,1,5)              109.4712         estimate D2E/DX2                !
 ! A7    A(1,5,6)              109.4712         estimate D2E/DX2                !
 ! A8    A(1,5,7)              109.4712         estimate D2E/DX2                !
 ! A9    A(1,5,8)              109.4712         estimate D2E/DX2                !
 ! A10   A(6,5,7)              109.4713         estimate D2E/DX2                !
 ! A11   A(6,5,8)              109.4712         estimate D2E/DX2                !
 ! A12   A(7,5,8)              109.4712         estimate D2E/DX2                !
 ! D1    D(2,1,5,6)            179.8889         estimate D2E/DX2                !
 ! D2    D(2,1,5,7)            -60.1111         estimate D2E/DX2                !
 ! D3    D(2,1,5,8)             59.8889         estimate D2E/DX2                !
 ! D4    D(3,1,5,6)             59.8889         estimate D2E/DX2                !
 ! D5    D(3,1,5,7)            179.8889         estimate D2E/DX2                !
 ! D6    D(3,1,5,8)            -60.1111         estimate D2E/DX2                !
 ! D7    D(4,1,5,6)            -60.1111         estimate D2E/DX2                !
 ! D8    D(4,1,5,7)             59.8889         estimate D2E/DX2                !
 ! D9    D(4,1,5,8)            179.8889         estimate D2E/DX2                !
 --------------------------------------------------------------------------------
 Trust Radius=3.00D-01 FncErr=1.00D-07 GrdErr=1.00D-06 EigMax=2.50D+02 EigMin=1.00D-04
 Number of steps in this run=     38 maximum allowed number of steps=    100.
 GradGradGradGradGradGradGradGradGradGradGradGradGradGradGradGradGradGrad

 Leave Link  103 at Wed Mar 25 15:22:19 2020, MaxMem=  2147483648 cpu:               0.2 elap:               0.1
 (Enter /n/sw/g16_nehalem/g16/l202.exe)
                          Input orientation:                          
 ---------------------------------------------------------------------
 Center     Atomic      Atomic             Coordinates (Angstroms)
 Number     Number       Type             X           Y           Z
 ---------------------------------------------------------------------
      1          6           0       -3.656598    2.090620    0.000000
      2          1           0       -3.299943    1.081810    0.000000
      3          1           0       -3.299925    2.595018   -0.873652
      4          1           0       -4.726598    2.090633    0.000000
      5          6           0       -3.143255    2.816576    1.257405
      6          1           0       -3.498312    3.825949    1.256427
      7          1           0       -3.501525    2.313308    2.131055
      8          1           0       -2.073257    2.814870    1.258384
 ---------------------------------------------------------------------
                    Distance matrix (angstroms):
                    1          2          3          4          5
     1  C    0.000000
     2  H    1.070000   0.000000
     3  H    1.070000   1.747302   0.000000
     4  H    1.070000   1.747303   1.747303   0.000000
     5  C    1.540000   2.148263   2.148263   2.148263   0.000000
     6  H    2.148263   3.024609   2.468154   2.469538   1.070000
     7  H    2.148263   2.469538   3.024610   2.468154   1.070000
     8  H    2.148263   2.468154   2.469539   3.024610   1.070000
                    6          7          8
     6  H    0.000000
     7  H    1.747303   0.000000
     8  H    1.747303   1.747303   0.000000
 Stoichiometry    C2H6
 Framework group  D3[C3(C.C),X(H6)]
 Deg. of freedom     4
 Full point group                 D3      NOp   6
 Largest Abelian subgroup         C2      NOp   2
 Largest concise Abelian subgroup C2      NOp   2
                         Standard orientation:                         
 ---------------------------------------------------------------------
 Center     Atomic      Atomic             Coordinates (Angstroms)
 Number     Number       Type             X           Y           Z
 ---------------------------------------------------------------------
      1          6           0        0.000000    0.000000    0.770000
      2          1           0       -0.503556    0.874140    1.126666
      3          1           0        1.008805   -0.000978    1.126666
      4          1           0       -0.505250   -0.873162    1.126666
      5          6           0        0.000000    0.000000   -0.770000
      6          1           0        0.505250   -0.873162   -1.126666
      7          1           0       -1.008805   -0.000978   -1.126666
      8          1           0        0.503556    0.874140   -1.126666
 ---------------------------------------------------------------------
 Rotational constants (GHZ):          82.1231635          20.2293892          20.2293892
 Leave Link  202 at Wed Mar 25 15:22:19 2020, MaxMem=  2147483648 cpu:               0.8 elap:               0.1
 (Enter /n/sw/g16_nehalem/g16/l301.exe)
 Standard basis: 6-31G(d) (6D, 7F)
 Ernie: Thresh=  0.10000D-02 Tol=  0.10000D-05 Strict=F.
 There are    21 symmetry adapted cartesian basis functions of A   symmetry.
 There are    21 symmetry adapted cartesian basis functions of B   symmetry.
 There are    21 symmetry adapted basis functions of A   symmetry.
 There are    21 symmetry adapted basis functions of B   symmetry.
    42 basis functions,    80 primitive gaussians,    42 cartesian basis functions
     9 alpha electrons        9 beta electrons
       nuclear repulsion energy        42.6703238864 Hartrees.
 IExCor=  402 DFT=T Ex+Corr=B3LYP ExCW=0 ScaHFX=  0.200000
 ScaDFX=  0.800000  0.720000  1.000000  0.810000 ScalE2=  1.000000  1.000000
 IRadAn=      5 IRanWt=     -1 IRanGd=            0 ICorTp=0 IEmpDi=  4
 NAtoms=    8 NActive=    8 NUniq=    2 SFac= 4.00D+00 NAtFMM=   60 NAOKFM=F Big=F
 Integral buffers will be    131072 words long.
 Raffenetti 2 integral format.
 Two-electron integral symmetry is turned on.
 Leave Link  301 at Wed Mar 25 15:22:19 2020, MaxMem=  2147483648 cpu:               1.2 elap:               0.1
 (Enter /n/sw/g16_nehalem/g16/l302.exe)
 NPDir=0 NMtPBC=     1 NCelOv=     1 NCel=       1 NClECP=     1 NCelD=      1
         NCelK=      1 NCelE2=     1 NClLst=     1 CellRange=     0.0.
 One-electron integrals computed using PRISM.
 One-electron integral symmetry used in STVInt
 NBasis=    42 RedAO= T EigKep=  7.98D-03  NBF=    21    21
 NBsUse=    42 1.00D-06 EigRej= -1.00D+00 NBFU=    21    21
 Precomputing XC quadrature grid using
 IXCGrd= 4 IRadAn=           5 IRanWt=          -1 IRanGd=           0 AccXCQ= 0.00D+00.
 Generated NRdTot=       0 NPtTot=           0 NUsed=           0 NTot=          32
 NSgBfM=    42    42    42    42    42 MxSgAt=     8 MxSgA2=     8.
 Leave Link  302 at Wed Mar 25 15:22:20 2020, MaxMem=  2147483648 cpu:               3.5 elap:               0.3
 (Enter /n/sw/g16_nehalem/g16/l303.exe)
 DipDrv:  MaxL=1.
 Leave Link  303 at Wed Mar 25 15:22:20 2020, MaxMem=  2147483648 cpu:               1.0 elap:               0.1
 (Enter /n/sw/g16_nehalem/g16/l401.exe)
 ExpMin= 1.61D-01 ExpMax= 3.05D+03 ExpMxC= 4.57D+02 IAcc=3 IRadAn=         5 AccDes= 0.00D+00
 Harris functional with IExCor=  402 and IRadAn=       5 diagonalized for initial guess.
 HarFok:  IExCor=  402 AccDes= 0.00D+00 IRadAn=         5 IDoV= 1 UseB2=F ITyADJ=14
 ICtDFT=  3500011 ScaDFX=  1.000000  1.000000  1.000000  1.000000
 FoFCou: FMM=F IPFlag=           0 FMFlag=      100000 FMFlg1=           0
         NFxFlg=           0 DoJE=T BraDBF=F KetDBF=T FulRan=T
         wScrn=  0.000000 ICntrl=       500 IOpCl=  0 I1Cent=   200000004 NGrid=           0
         NMat0=    1 NMatS0=      1 NMatT0=    0 NMatD0=    1 NMtDS0=    0 NMtDT0=    0
 Petite list used in FoFCou.
 Harris En= -79.8897963356463    
 JPrj=0 DoOrth=F DoCkMO=F.
 Initial guess orbital symmetries:
       Occupied  (A1) (A2) (A1) (A2) (E) (E) (A1) (E) (E)
       Virtual   (A1) (A2) (E) (E) (E) (E) (A2) (A1) (E) (E) (E)
                 (E) (A2) (E) (E) (A1) (E) (E) (A2) (A1) (E) (E)
                 (A2) (A1) (E) (E) (E) (E) (E) (E) (A2) (A1) (A2)
 The electronic state of the initial guess is 1-A1.
 Leave Link  401 at Wed Mar 25 15:22:20 2020, MaxMem=  2147483648 cpu:               3.6 elap:               0.3
 (Enter /n/sw/g16_nehalem/g16/l502.exe)
 Keep R1 ints in memory in symmetry-blocked form, NReq=15947928.
 FoFCou: FMM=F IPFlag=           0 FMFlag=           0 FMFlg1=           0
         NFxFlg=           0 DoJE=F BraDBF=F KetDBF=F FulRan=T
         wScrn=  0.000000 ICntrl=       600 IOpCl=  0 I1Cent=           0 NGrid=           0
         NMat0=    1 NMatS0=    903 NMatT0=    0 NMatD0=    1 NMtDS0=    0 NMtDT0=    0
 Petite list used in FoFCou.
 Closed shell SCF:
 Using DIIS extrapolation, IDIIS=  1040.
 NGot=  2147483648 LenX=  2147271928 LenY=  2147269723
 Requested convergence on RMS density matrix=1.00D-08 within 128 cycles.
 Requested convergence on MAX density matrix=1.00D-06.
 Requested convergence on             energy=1.00D-06.
 No special actions if energy rises.
 Integral accuracy reduced to 1.0D-05 until final iterations.

 Cycle   1  Pass 0  IDiag  1:
 E= -79.6935936705343    
 DIIS: error= 6.56D-02 at cycle   1 NSaved=   1.
 NSaved= 1 IEnMin= 1 EnMin= -79.6935936705343     IErMin= 1 ErrMin= 6.56D-02
 ErrMax= 6.56D-02  0.00D+00 EMaxC= 1.00D-01 BMatC= 1.20D-01 BMatP= 1.20D-01
 IDIUse=3 WtCom= 3.44D-01 WtEn= 6.56D-01
 Coeff-Com:  0.100D+01
 Coeff-En:   0.100D+01
 Coeff:      0.100D+01
 Gap=     0.385 Goal=   None    Shift=    0.000
 GapD=    0.385 DampG=1.000 DampE=0.500 DampFc=0.5000 IDamp=-1.
 Damping current iteration by 5.00D-01
 RMSDP=1.66D-02 MaxDP=1.45D-01              OVMax= 1.86D-01

 Cycle   2  Pass 0  IDiag  1:
 E= -79.7549054367770     Delta-E=       -0.061311766243 Rises=F Damp=T
 DIIS: error= 1.15D-02 at cycle   2 NSaved=   2.
 NSaved= 2 IEnMin= 2 EnMin= -79.7549054367770     IErMin= 2 ErrMin= 1.15D-02
 ErrMax= 1.15D-02  0.00D+00 EMaxC= 1.00D-01 BMatC= 3.46D-03 BMatP= 1.20D-01
 IDIUse=3 WtCom= 8.85D-01 WtEn= 1.15D-01
 Coeff-Com:  0.678D-01 0.932D+00
 Coeff-En:   0.993D-01 0.901D+00
 Coeff:      0.714D-01 0.929D+00
 Gap=     0.446 Goal=   None    Shift=    0.000
 RMSDP=1.78D-03 MaxDP=1.29D-02 DE=-6.13D-02 OVMax= 9.50D-02

 Cycle   3  Pass 0  IDiag  1:
 E= -79.8269552739611     Delta-E=       -0.072049837184 Rises=F Damp=F
 DIIS: error= 2.32D-03 at cycle   3 NSaved=   3.
 NSaved= 3 IEnMin= 3 EnMin= -79.8269552739611     IErMin= 3 ErrMin= 2.32D-03
 ErrMax= 2.32D-03  0.00D+00 EMaxC= 1.00D-01 BMatC= 1.21D-04 BMatP= 3.46D-03
 IDIUse=3 WtCom= 9.77D-01 WtEn= 2.32D-02
 Coeff-Com:  0.600D-02 0.101D+00 0.893D+00
 Coeff-En:   0.000D+00 0.000D+00 0.100D+01
 Coeff:      0.586D-02 0.986D-01 0.895D+00
 Gap=     0.453 Goal=   None    Shift=    0.000
 RMSDP=2.88D-04 MaxDP=1.78D-03 DE=-7.20D-02 OVMax= 3.87D-03

 Cycle   4  Pass 0  IDiag  1:
 E= -79.8270565208976     Delta-E=       -0.000101246937 Rises=F Damp=F
 DIIS: error= 6.72D-04 at cycle   4 NSaved=   4.
 NSaved= 4 IEnMin= 4 EnMin= -79.8270565208976     IErMin= 4 ErrMin= 6.72D-04
 ErrMax= 6.72D-04  0.00D+00 EMaxC= 1.00D-01 BMatC= 8.35D-06 BMatP= 1.21D-04
 IDIUse=3 WtCom= 9.93D-01 WtEn= 6.72D-03
 Coeff-Com:  0.121D-02-0.457D-02 0.195D+00 0.808D+00
 Coeff-En:   0.000D+00 0.000D+00 0.000D+00 0.100D+01
 Coeff:      0.120D-02-0.454D-02 0.194D+00 0.810D+00
 Gap=     0.453 Goal=   None    Shift=    0.000
 RMSDP=6.21D-05 MaxDP=3.46D-04 DE=-1.01D-04 OVMax= 9.33D-04

 Cycle   5  Pass 0  IDiag  1:
 E= -79.8270641659822     Delta-E=       -0.000007645085 Rises=F Damp=F
 DIIS: error= 1.12D-05 at cycle   5 NSaved=   5.
 NSaved= 5 IEnMin= 5 EnMin= -79.8270641659822     IErMin= 5 ErrMin= 1.12D-05
 ErrMax= 1.12D-05  0.00D+00 EMaxC= 1.00D-01 BMatC= 3.93D-09 BMatP= 8.35D-06
 IDIUse=1 WtCom= 1.00D+00 WtEn= 0.00D+00
 Coeff-Com:  0.881D-04-0.218D-03-0.928D-02-0.247D-01 0.103D+01
 Coeff:      0.881D-04-0.218D-03-0.928D-02-0.247D-01 0.103D+01
 Gap=     0.453 Goal=   None    Shift=    0.000
 RMSDP=1.51D-06 MaxDP=1.54D-05 DE=-7.65D-06 OVMax= 2.34D-05

 Initial convergence to 1.0D-05 achieved.  Increase integral accuracy.
 Cycle   6  Pass 1  IDiag  1:
 E= -79.8270656364360     Delta-E=       -0.000001470454 Rises=F Damp=F
 DIIS: error= 6.16D-07 at cycle   1 NSaved=   1.
 NSaved= 1 IEnMin= 1 EnMin= -79.8270656364360     IErMin= 1 ErrMin= 6.16D-07
 ErrMax= 6.16D-07  0.00D+00 EMaxC= 1.00D-01 BMatC= 1.41D-11 BMatP= 1.41D-11
 IDIUse=1 WtCom= 1.00D+00 WtEn= 0.00D+00
 Coeff-Com:  0.100D+01
 Coeff:      0.100D+01
 Gap=     0.453 Goal=   None    Shift=    0.000
 RMSDP=1.51D-06 MaxDP=1.54D-05 DE=-1.47D-06 OVMax= 1.38D-06

 Cycle   7  Pass 1  IDiag  1:
 E= -79.8270656364559     Delta-E=       -0.000000000020 Rises=F Damp=F
 DIIS: error= 5.09D-08 at cycle   2 NSaved=   2.
 NSaved= 2 IEnMin= 2 EnMin= -79.8270656364559     IErMin= 2 ErrMin= 5.09D-08
 ErrMax= 5.09D-08  0.00D+00 EMaxC= 1.00D-01 BMatC= 9.61D-14 BMatP= 1.41D-11
 IDIUse=1 WtCom= 1.00D+00 WtEn= 0.00D+00
 Coeff-Com:  0.536D-02 0.995D+00
 Coeff:      0.536D-02 0.995D+00
 Gap=     0.453 Goal=   None    Shift=    0.000
 RMSDP=8.19D-09 MaxDP=5.21D-08 DE=-1.99D-11 OVMax= 9.57D-08

 SCF Done:  E(RB3LYP) =  -79.8270656365     A.U. after    7 cycles
            NFock=  7  Conv=0.82D-08     -V/T= 2.0082
 KE= 7.917887401545D+01 PE=-2.693007836460D+02 EE= 6.762452010765D+01
 Leave Link  502 at Wed Mar 25 15:22:21 2020, MaxMem=  2147483648 cpu:               5.5 elap:               0.4
 (Enter /n/sw/g16_nehalem/g16/l601.exe)
 Copying SCF densities to generalized density rwf, IOpCl= 0 IROHF=0.

 **********************************************************************

            Population analysis using the SCF density.

 **********************************************************************

 Orbital symmetries:
       Occupied  (A1) (A2) (A1) (A2) (E) (E) (A1) (E) (E)
       Virtual   (A1) (A2) (E) (E) (E) (E) (A2) (A1) (E) (E) (E)
                 (E) (A2) (E) (E) (A1) (E) (E) (A2) (A1) (A2) (E)
                 (E) (A1) (E) (E) (E) (E) (E) (E) (A2) (A1) (A2)
 The electronic state is 1-A1.
 Alpha  occ. eigenvalues --  -10.16282 -10.16262  -0.75194  -0.61559  -0.43767
 Alpha  occ. eigenvalues --   -0.43767  -0.35191  -0.34644  -0.34644
 Alpha virt. eigenvalues --    0.10698   0.16637   0.17652   0.17652   0.19262
 Alpha virt. eigenvalues --    0.19262   0.23680   0.51133   0.54381   0.54381
 Alpha virt. eigenvalues --    0.62002   0.62002   0.66777   0.90393   0.90393
 Alpha virt. eigenvalues --    0.92618   0.94445   0.94445   1.01225   1.07871
 Alpha virt. eigenvalues --    1.44682   1.51648   1.51648   1.94397   2.01418
 Alpha virt. eigenvalues --    2.01418   2.31495   2.31495   2.32823   2.32823
 Alpha virt. eigenvalues --    2.59401   4.16208   4.37737
          Condensed to atoms (all electrons):
               1          2          3          4          5          6
     1  C    5.009667   0.387596   0.387596   0.387596   0.377965  -0.036269
     2  H    0.387596   0.567238  -0.031519  -0.031519  -0.036269   0.005159
     3  H    0.387596  -0.031519   0.567238  -0.031519  -0.036269  -0.003966
     4  H    0.387596  -0.031519  -0.031519   0.567238  -0.036269  -0.003925
     5  C    0.377965  -0.036269  -0.036269  -0.036269   5.009667   0.387596
     6  H   -0.036269   0.005159  -0.003966  -0.003925   0.387596   0.567238
     7  H   -0.036269  -0.003925   0.005159  -0.003966   0.387596  -0.031519
     8  H   -0.036269  -0.003966  -0.003925   0.005159   0.387596  -0.031519
               7          8
     1  C   -0.036269  -0.036269
     2  H   -0.003925  -0.003966
     3  H    0.005159  -0.003925
     4  H   -0.003966   0.005159
     5  C    0.387596   0.387596
     6  H   -0.031519  -0.031519
     7  H    0.567238  -0.031519
     8  H   -0.031519   0.567238
 Mulliken charges:
               1
     1  C   -0.441613
     2  H    0.147204
     3  H    0.147204
     4  H    0.147204
     5  C   -0.441613
     6  H    0.147204
     7  H    0.147204
     8  H    0.147204
 Sum of Mulliken charges =   0.00000
 Mulliken charges with hydrogens summed into heavy atoms:
               1
     1  C    0.000000
     5  C    0.000000
 Electronic spatial extent (au):  <R**2>=            107.4437
 Charge=              0.0000 electrons
 Dipole moment (field-independent basis, Debye):
    X=              0.0000    Y=              0.0000    Z=              0.0000  Tot=              0.0000
 Quadrupole moment (field-independent basis, Debye-Ang):
   XX=            -14.5050   YY=            -14.5050   ZZ=            -15.4202
   XY=              0.0000   XZ=              0.0000   YZ=              0.0000
 Traceless Quadrupole moment (field-independent basis, Debye-Ang):
   XX=              0.3051   YY=              0.3051   ZZ=             -0.6101
   XY=              0.0000   XZ=              0.0000   YZ=              0.0000
 Octapole moment (field-independent basis, Debye-Ang**2):
  XXX=              0.0000  YYY=              0.0027  ZZZ=              0.0000  XYY=              0.0000
  XXY=             -0.0027  XXZ=              0.0000  XZZ=              0.0000  YZZ=              0.0000
  YYZ=              0.0000  XYZ=              0.0000
 Hexadecapole moment (field-independent basis, Debye-Ang**3):
 XXXX=            -27.6383 YYYY=            -27.6383 ZZZZ=            -90.8833 XXXY=              0.0000
 XXXZ=              1.1107 YYYX=              0.0000 YYYZ=              0.0000 ZZZX=              0.0000
 ZZZY=              0.0000 XXYY=             -9.2128 XXZZ=            -18.7263 YYZZ=            -18.7263
 XXYZ=              0.0000 YYXZ=             -1.1107 ZZXY=              0.0000
 N-N= 4.267032388644D+01 E-N=-2.693007831290D+02  KE= 7.917887401545D+01
 Symmetry A    KE= 4.081129877875D+01
 Symmetry B    KE= 3.836757523670D+01
 No NMR shielding tensors so no spin-rotation constants.
 Leave Link  601 at Wed Mar 25 15:22:21 2020, MaxMem=  2147483648 cpu:               2.8 elap:               0.3
 (Enter /n/sw/g16_nehalem/g16/l701.exe)
 ... and contract with generalized density number  0.
 Compute integral first derivatives.
 Leave Link  701 at Wed Mar 25 15:22:22 2020, MaxMem=  2147483648 cpu:               2.2 elap:               0.2
 (Enter /n/sw/g16_nehalem/g16/l702.exe)
 L702 exits ... SP integral derivatives will be done elsewhere.
 Leave Link  702 at Wed Mar 25 15:22:22 2020, MaxMem=  2147483648 cpu:               0.4 elap:               0.1
 (Enter /n/sw/g16_nehalem/g16/l703.exe)
 Integral derivatives from FoFJK, PRISM(SPDF).
 Compute integral first derivatives, UseDBF=F ICtDFT=           0.
 Calling FoFJK, ICntrl=      2127 FMM=F ISym2X=1 I1Cent= 0 IOpClX= 0 NMat=1 NMatS=1 NMatT=0.
 FoFJK:  IHMeth= 1 ICntrl=    2127 DoSepK=F KAlg= 0 I1Cent=           0 FoldK=F
 IRaf=         0 NMat=       1 IRICut=       1 DoRegI=T DoRafI=F ISym2E= 1 IDoP0=0 IntGTp=1.
 FoFCou: FMM=F IPFlag=           0 FMFlag=      100000 FMFlg1=         800
         NFxFlg=           0 DoJE=F BraDBF=F KetDBF=F FulRan=T
         wScrn=  0.000000 ICntrl=      2127 IOpCl=  0 I1Cent=           0 NGrid=           0
         NMat0=    1 NMatS0=      1 NMatT0=    0 NMatD0=    1 NMtDS0=    0 NMtDT0=    0
 Petite list used in FoFCou.
 Leave Link  703 at Wed Mar 25 15:22:22 2020, MaxMem=  2147483648 cpu:               4.9 elap:               0.3
 (Enter /n/sw/g16_nehalem/g16/l716.exe)
 Dipole        = 0.00000000D+00-1.77635684D-15-2.66453526D-15
 ***** Axes restored to original set *****
 -------------------------------------------------------------------
 Center     Atomic                   Forces (Hartrees/Bohr)
 Number     Number              X              Y              Z
 -------------------------------------------------------------------
      1        6           0.008722905    0.012335722    0.021366300
      2        1           0.003901620   -0.017314373   -0.003609753
      3        1           0.003914163    0.005522318   -0.016799518
      4        1          -0.017624740   -0.002079535   -0.003617257
      5        6          -0.008722905   -0.012335722   -0.021366300
      6        1          -0.003889768    0.017318549    0.003602503
      7        1          -0.003926002   -0.005513932    0.016799510
      8        1           0.017624727    0.002066973    0.003624515
 -------------------------------------------------------------------
 Cartesian Forces:  Max     0.021366300 RMS     0.011793004
 Leave Link  716 at Wed Mar 25 15:22:23 2020, MaxMem=  2147483648 cpu:               0.5 elap:               0.1
 (Enter /n/sw/g16_nehalem/g16/l103.exe)

 GradGradGradGradGradGradGradGradGradGradGradGradGradGradGradGradGradGrad
 Berny optimization.
 FormGI is forming the generalized inverse of G from B-inverse, IUseBI=4.
 Internal  Forces:  Max     0.017624713 RMS     0.008635352
 Search for a local minimum.
 Step number   1 out of a maximum of   38
 All quantities printed in internal units (Hartrees-Bohrs-Radians)
 RMS Force = .86354D-02 SwitMx=.10000D-02 MixMth= 1
 Mixed Optimization -- RFO/linear search
 Second derivative matrix not updated -- first step.
 ITU=  0
     Eigenvalues ---    0.00237   0.05720   0.05720   0.05720   0.05720
     Eigenvalues ---    0.16000   0.16000   0.16000   0.16000   0.16000
     Eigenvalues ---    0.16000   0.28519   0.37230   0.37230   0.37230
     Eigenvalues ---    0.37230   0.37230   0.37230
 RFO step:  Lambda=-6.24448965D-03 EMin= 2.36825069D-03
 Linear search not attempted -- first point.
 Iteration  1 RMS(Cart)=  0.03433590 RMS(Int)=  0.00037294
 Iteration  2 RMS(Cart)=  0.00040177 RMS(Int)=  0.00021330
 Iteration  3 RMS(Cart)=  0.00000021 RMS(Int)=  0.00021330
 ITry= 1 IFail=0 DXMaxC= 7.20D-02 DCOld= 1.00D+10 DXMaxT= 3.00D-01 DXLimC= 3.00D+00 Rises=F
 ClnCor:  largest displacement from symmetrization is 1.32D-12 for atom     7.
 Variable       Old X    -DE/DX   Delta X   Delta X   Delta X     New X
                                 (Linear)    (Quad)   (Total)
    R1        2.02201   0.01762   0.00000   0.04656   0.04656   2.06857
    R2        2.02201   0.01762   0.00000   0.04656   0.04656   2.06857
    R3        2.02201   0.01762   0.00000   0.04656   0.04656   2.06857
    R4        2.91018   0.00326   0.00000   0.01118   0.01118   2.92136
    R5        2.02201   0.01762   0.00000   0.04656   0.04656   2.06857
    R6        2.02201   0.01762   0.00000   0.04656   0.04656   2.06857
    R7        2.02201   0.01762   0.00000   0.04656   0.04656   2.06857
    A1        1.91063  -0.00422   0.00000  -0.02537  -0.02569   1.88494
    A2        1.91063  -0.00422   0.00000  -0.02537  -0.02569   1.88494
    A3        1.91063   0.00422   0.00000   0.02537   0.02504   1.93567
    A4        1.91063  -0.00422   0.00000  -0.02537  -0.02569   1.88494
    A5        1.91063   0.00422   0.00000   0.02537   0.02504   1.93567
    A6        1.91063   0.00422   0.00000   0.02537   0.02504   1.93567
    A7        1.91063   0.00422   0.00000   0.02537   0.02504   1.93567
    A8        1.91063   0.00422   0.00000   0.02537   0.02504   1.93567
    A9        1.91063   0.00422   0.00000   0.02537   0.02504   1.93567
   A10        1.91063  -0.00422   0.00000  -0.02537  -0.02569   1.88494
   A11        1.91063  -0.00422   0.00000  -0.02537  -0.02569   1.88494
   A12        1.91063  -0.00422   0.00000  -0.02537  -0.02569   1.88494
    D1        3.13965   0.00000   0.00000   0.00055   0.00055   3.14021
    D2       -1.04914   0.00000   0.00000   0.00055   0.00055  -1.04858
    D3        1.04526   0.00000   0.00000   0.00055   0.00055   1.04581
    D4        1.04526   0.00000   0.00000   0.00055   0.00055   1.04581
    D5        3.13965   0.00000   0.00000   0.00055   0.00055   3.14021
    D6       -1.04914   0.00000   0.00000   0.00055   0.00055  -1.04858
    D7       -1.04914   0.00000   0.00000   0.00055   0.00055  -1.04858
    D8        1.04526   0.00000   0.00000   0.00055   0.00055   1.04581
    D9        3.13965   0.00000   0.00000   0.00055   0.00055   3.14021
         Item               Value     Threshold  Converged?
 Maximum Force            0.017625     0.000450     NO 
 RMS     Force            0.008635     0.000300     NO 
 Maximum Displacement     0.071953     0.001800     NO 
 RMS     Displacement     0.034484     0.001200     NO 
 Predicted change in Energy=-3.187261D-03
 Lowest energy point so far.  Saving SCF results.
 GradGradGradGradGradGradGradGradGradGradGradGradGradGradGradGradGradGrad

 Leave Link  103 at Wed Mar 25 15:22:23 2020, MaxMem=  2147483648 cpu:               1.8 elap:               0.1
 (Enter /n/sw/g16_nehalem/g16/l202.exe)
                          Input orientation:                          
 ---------------------------------------------------------------------
 Center     Atomic      Atomic             Coordinates (Angstroms)
 Number     Number       Type             X           Y           Z
 ---------------------------------------------------------------------
      1          6           0       -3.657584    2.089226   -0.002415
      2          1           0       -3.305983    1.052861   -0.026010
      3          1           0       -3.305501    2.586642   -0.911727
      4          1           0       -4.751879    2.075781   -0.026292
      5          6           0       -3.142269    2.817971    1.259820
      6          1           0       -3.492713    3.854743    1.282707
      7          1           0       -3.495508    2.321373    2.169131
      8          1           0       -2.047976    2.830189    1.284406
 ---------------------------------------------------------------------
                    Distance matrix (angstroms):
                    1          2          3          4          5
     1  C    0.000000
     2  H    1.094638   0.000000
     3  H    1.094638   1.771152   0.000000
     4  H    1.094638   1.771152   1.771152   0.000000
     5  C    1.545916   2.189925   2.189925   2.189925   0.000000
     6  H    2.189925   3.098089   2.541391   2.542378   1.094638
     7  H    2.189925   2.542378   3.098089   2.541391   1.094638
     8  H    2.189925   2.541391   2.542378   3.098089   1.094638
                    6          7          8
     6  H    0.000000
     7  H    1.771152   0.000000
     8  H    1.771152   1.771152   0.000000
 Stoichiometry    C2H6
 Framework group  D3[C3(C.C),X(H6)]
 Deg. of freedom     4
 Full point group                 D3      NOp   6
 RotChk:  IX=0 Diff= 1.10D-12
 Largest Abelian subgroup         C2      NOp   2
 Largest concise Abelian subgroup C2      NOp   2
                         Standard orientation:                         
 ---------------------------------------------------------------------
 Center     Atomic      Atomic             Coordinates (Angstroms)
 Number     Number       Type             X           Y           Z
 ---------------------------------------------------------------------
      1          6           0        0.000000    0.000000    0.772958
      2          1           0       -0.510674    0.885930    1.163563
      3          1           0        1.022575   -0.000708    1.163563
      4          1           0       -0.511901   -0.885222    1.163563
      5          6           0        0.000000    0.000000   -0.772958
      6          1           0        0.511901   -0.885222   -1.163563
      7          1           0       -1.022575   -0.000708   -1.163563
      8          1           0        0.510674    0.885930   -1.163563
 ---------------------------------------------------------------------
 Rotational constants (GHZ):          79.9264106          19.6741216          19.6741216
 Leave Link  202 at Wed Mar 25 15:22:23 2020, MaxMem=  2147483648 cpu:               0.2 elap:               0.1
 (Enter /n/sw/g16_nehalem/g16/l301.exe)
 Standard basis: 6-31G(d) (6D, 7F)
 Ernie: Thresh=  0.10000D-02 Tol=  0.10000D-05 Strict=F.
 There are    21 symmetry adapted cartesian basis functions of A   symmetry.
 There are    21 symmetry adapted cartesian basis functions of B   symmetry.
 There are    21 symmetry adapted basis functions of A   symmetry.
 There are    21 symmetry adapted basis functions of B   symmetry.
    42 basis functions,    80 primitive gaussians,    42 cartesian basis functions
     9 alpha electrons        9 beta electrons
       nuclear repulsion energy        41.9796733745 Hartrees.
 IExCor=  402 DFT=T Ex+Corr=B3LYP ExCW=0 ScaHFX=  0.200000
 ScaDFX=  0.800000  0.720000  1.000000  0.810000 ScalE2=  1.000000  1.000000
 IRadAn=      5 IRanWt=     -1 IRanGd=            0 ICorTp=0 IEmpDi=  4
 NAtoms=    8 NActive=    8 NUniq=    2 SFac= 4.00D+00 NAtFMM=   60 NAOKFM=F Big=F
 Integral buffers will be    131072 words long.
 Raffenetti 2 integral format.
 Two-electron integral symmetry is turned on.
 Leave Link  301 at Wed Mar 25 15:22:23 2020, MaxMem=  2147483648 cpu:               1.0 elap:               0.1
 (Enter /n/sw/g16_nehalem/g16/l302.exe)
 NPDir=0 NMtPBC=     1 NCelOv=     1 NCel=       1 NClECP=     1 NCelD=      1
         NCelK=      1 NCelE2=     1 NClLst=     1 CellRange=     0.0.
 One-electron integrals computed using PRISM.
 One-electron integral symmetry used in STVInt
 NBasis=    42 RedAO= T EigKep=  8.65D-03  NBF=    21    21
 NBsUse=    42 1.00D-06 EigRej= -1.00D+00 NBFU=    21    21
 Precomputing XC quadrature grid using
 IXCGrd= 4 IRadAn=           5 IRanWt=          -1 IRanGd=           0 AccXCQ= 0.00D+00.
 Generated NRdTot=       0 NPtTot=           0 NUsed=           0 NTot=          32
 NSgBfM=    42    42    42    42    42 MxSgAt=     8 MxSgA2=     8.
 Leave Link  302 at Wed Mar 25 15:22:23 2020, MaxMem=  2147483648 cpu:               2.1 elap:               0.1
 (Enter /n/sw/g16_nehalem/g16/l303.exe)
 DipDrv:  MaxL=1.
 Leave Link  303 at Wed Mar 25 15:22:23 2020, MaxMem=  2147483648 cpu:               0.5 elap:               0.1
 (Enter /n/sw/g16_nehalem/g16/l401.exe)
 Initial guess from the checkpoint file:  "checkpoint.chk"
 B after Tr=     0.000000    0.000000    0.000000
         Rot=    1.000000    0.000000    0.000000    0.000000 Ang=   0.00 deg.
 Guess basis will be translated and rotated to current coordinates.
 JPrj=2 DoOrth=T DoCkMO=T.
 Initial guess orbital symmetries:
       Occupied  (A1) (A2) (A1) (A2) (E) (E) (A1) (E) (E)
       Virtual   (A1) (A2) (E) (E) (E) (E) (A2) (A1) (E) (E) (E)
                 (E) (A2) (E) (E) (A1) (E) (E) (A2) (A1) (A2) (E)
                 (E) (A1) (E) (E) (E) (E) (E) (E) (A2) (A1) (A2)
 The electronic state of the initial guess is 1-A1.
 Generating alternative initial guess.
 ExpMin= 1.61D-01 ExpMax= 3.05D+03 ExpMxC= 4.57D+02 IAcc=2 IRadAn=         4 AccDes= 0.00D+00
 Harris functional with IExCor=  402 and IRadAn=       4 diagonalized for initial guess.
 HarFok:  IExCor=  402 AccDes= 0.00D+00 IRadAn=         4 IDoV= 1 UseB2=F ITyADJ=14
 ICtDFT=  3500011 ScaDFX=  1.000000  1.000000  1.000000  1.000000
 FoFCou: FMM=F IPFlag=           0 FMFlag=      100000 FMFlg1=           0
         NFxFlg=           0 DoJE=T BraDBF=F KetDBF=T FulRan=T
         wScrn=  0.000000 ICntrl=       500 IOpCl=  0 I1Cent=   200000004 NGrid=           0
         NMat0=    1 NMatS0=      1 NMatT0=    0 NMatD0=    1 NMtDS0=    0 NMtDT0=    0
 Petite list used in FoFCou.
 Harris En= -79.8799962595173    
 Leave Link  401 at Wed Mar 25 15:22:23 2020, MaxMem=  2147483648 cpu:               3.3 elap:               0.2
 (Enter /n/sw/g16_nehalem/g16/l502.exe)
 Keep R1 ints in memory in symmetry-blocked form, NReq=15947928.
 FoFCou: FMM=F IPFlag=           0 FMFlag=           0 FMFlg1=           0
         NFxFlg=           0 DoJE=F BraDBF=F KetDBF=F FulRan=T
         wScrn=  0.000000 ICntrl=       600 IOpCl=  0 I1Cent=           0 NGrid=           0
         NMat0=    1 NMatS0=    903 NMatT0=    0 NMatD0=    1 NMtDS0=    0 NMtDT0=    0
 Petite list used in FoFCou.
 Closed shell SCF:
 Using DIIS extrapolation, IDIIS=  1040.
 NGot=  2147483648 LenX=  2147271928 LenY=  2147269723
 Requested convergence on RMS density matrix=1.00D-08 within 128 cycles.
 Requested convergence on MAX density matrix=1.00D-06.
 Requested convergence on             energy=1.00D-06.
 No special actions if energy rises.
 Integral accuracy reduced to 1.0D-05 until final iterations.

 Cycle   1  Pass 0  IDiag  1:
 E= -79.8296328375195    
 DIIS: error= 3.71D-03 at cycle   1 NSaved=   1.
 NSaved= 1 IEnMin= 1 EnMin= -79.8296328375195     IErMin= 1 ErrMin= 3.71D-03
 ErrMax= 3.71D-03  0.00D+00 EMaxC= 1.00D-01 BMatC= 4.77D-04 BMatP= 4.77D-04
 IDIUse=3 WtCom= 9.63D-01 WtEn= 3.71D-02
 Coeff-Com:  0.100D+01
 Coeff-En:   0.100D+01
 Coeff:      0.100D+01
 Gap=     0.444 Goal=   None    Shift=    0.000
 GapD=    0.444 DampG=2.000 DampE=1.000 DampFc=2.0000 IDamp=-1.
 RMSDP=8.27D-04 MaxDP=7.94D-03              OVMax= 1.05D-02

 Cycle   2  Pass 0  IDiag  1:
 E= -79.8299554184900     Delta-E=       -0.000322580971 Rises=F Damp=F
 DIIS: error= 3.09D-03 at cycle   2 NSaved=   2.
 NSaved= 2 IEnMin= 2 EnMin= -79.8299554184900     IErMin= 2 ErrMin= 3.09D-03
 ErrMax= 3.09D-03  0.00D+00 EMaxC= 1.00D-01 BMatC= 3.12D-04 BMatP= 4.77D-04
 IDIUse=3 WtCom= 9.69D-01 WtEn= 3.09D-02
 Coeff-Com:  0.435D+00 0.565D+00
 Coeff-En:   0.230D+00 0.770D+00
 Coeff:      0.429D+00 0.571D+00
 Gap=     0.447 Goal=   None    Shift=    0.000
 RMSDP=4.68D-04 MaxDP=4.20D-03 DE=-3.23D-04 OVMax= 5.37D-03

 Cycle   3  Pass 0  IDiag  1:
 E= -79.8302618255932     Delta-E=       -0.000306407103 Rises=F Damp=F
 DIIS: error= 7.89D-04 at cycle   3 NSaved=   3.
 NSaved= 3 IEnMin= 3 EnMin= -79.8302618255932     IErMin= 3 ErrMin= 7.89D-04
 ErrMax= 7.89D-04  0.00D+00 EMaxC= 1.00D-01 BMatC= 2.17D-05 BMatP= 3.12D-04
 IDIUse=3 WtCom= 9.92D-01 WtEn= 7.89D-03
 Coeff-Com: -0.104D-02 0.206D+00 0.795D+00
 Coeff-En:   0.000D+00 0.000D+00 0.100D+01
 Coeff:     -0.103D-02 0.204D+00 0.797D+00
 Gap=     0.447 Goal=   None    Shift=    0.000
 RMSDP=8.41D-05 MaxDP=9.35D-04 DE=-3.06D-04 OVMax= 1.15D-03

 Cycle   4  Pass 0  IDiag  1:
 E= -79.8302835118788     Delta-E=       -0.000021686286 Rises=F Damp=F
 DIIS: error= 4.33D-05 at cycle   4 NSaved=   4.
 NSaved= 4 IEnMin= 4 EnMin= -79.8302835118788     IErMin= 4 ErrMin= 4.33D-05
 ErrMax= 4.33D-05  0.00D+00 EMaxC= 1.00D-01 BMatC= 3.02D-08 BMatP= 2.17D-05
 IDIUse=1 WtCom= 1.00D+00 WtEn= 0.00D+00
 Coeff-Com: -0.225D-02 0.281D-01 0.111D+00 0.863D+00
 Coeff:     -0.225D-02 0.281D-01 0.111D+00 0.863D+00
 Gap=     0.446 Goal=   None    Shift=    0.000
 RMSDP=5.59D-06 MaxDP=3.52D-05 DE=-2.17D-05 OVMax= 8.59D-05

 Initial convergence to 1.0D-05 achieved.  Increase integral accuracy.
 Cycle   5  Pass 1  IDiag  1:
 E= -79.8302861997102     Delta-E=       -0.000002687831 Rises=F Damp=F
 DIIS: error= 7.24D-06 at cycle   1 NSaved=   1.
 NSaved= 1 IEnMin= 1 EnMin= -79.8302861997102     IErMin= 1 ErrMin= 7.24D-06
 ErrMax= 7.24D-06  0.00D+00 EMaxC= 1.00D-01 BMatC= 1.25D-09 BMatP= 1.25D-09
 IDIUse=1 WtCom= 1.00D+00 WtEn= 0.00D+00
 Coeff-Com:  0.100D+01
 Coeff:      0.100D+01
 Gap=     0.446 Goal=   None    Shift=    0.000
 RMSDP=5.59D-06 MaxDP=3.52D-05 DE=-2.69D-06 OVMax= 1.33D-05

 Cycle   6  Pass 1  IDiag  1:
 E= -79.8302862005597     Delta-E=       -0.000000000850 Rises=F Damp=F
 DIIS: error= 3.18D-06 at cycle   2 NSaved=   2.
 NSaved= 2 IEnMin= 2 EnMin= -79.8302862005597     IErMin= 2 ErrMin= 3.18D-06
 ErrMax= 3.18D-06  0.00D+00 EMaxC= 1.00D-01 BMatC= 2.52D-10 BMatP= 1.25D-09
 IDIUse=1 WtCom= 1.00D+00 WtEn= 0.00D+00
 Coeff-Com:  0.300D+00 0.700D+00
 Coeff:      0.300D+00 0.700D+00
 Gap=     0.446 Goal=   None    Shift=    0.000
 RMSDP=3.97D-07 MaxDP=2.47D-06 DE=-8.50D-10 OVMax= 4.89D-06

 Cycle   7  Pass 1  IDiag  1:
 E= -79.8302862007688     Delta-E=       -0.000000000209 Rises=F Damp=F
 DIIS: error= 9.44D-07 at cycle   3 NSaved=   3.
 NSaved= 3 IEnMin= 3 EnMin= -79.8302862007688     IErMin= 3 ErrMin= 9.44D-07
 ErrMax= 9.44D-07  0.00D+00 EMaxC= 1.00D-01 BMatC= 2.84D-11 BMatP= 2.52D-10
 IDIUse=1 WtCom= 1.00D+00 WtEn= 0.00D+00
 Coeff-Com:  0.130D+00 0.361D+00 0.510D+00
 Coeff:      0.130D+00 0.361D+00 0.510D+00
 Gap=     0.446 Goal=   None    Shift=    0.000
 RMSDP=1.13D-07 MaxDP=1.11D-06 DE=-2.09D-10 OVMax= 1.36D-06

 Cycle   8  Pass 1  IDiag  1:
 E= -79.8302862007981     Delta-E=       -0.000000000029 Rises=F Damp=F
 DIIS: error= 6.30D-08 at cycle   4 NSaved=   4.
 NSaved= 4 IEnMin= 4 EnMin= -79.8302862007981     IErMin= 4 ErrMin= 6.30D-08
 ErrMax= 6.30D-08  0.00D+00 EMaxC= 1.00D-01 BMatC= 1.09D-13 BMatP= 2.84D-11
 IDIUse=1 WtCom= 1.00D+00 WtEn= 0.00D+00
 Coeff-Com: -0.532D-02-0.102D-02 0.524D-01 0.954D+00
 Coeff:     -0.532D-02-0.102D-02 0.524D-01 0.954D+00
 Gap=     0.446 Goal=   None    Shift=    0.000
 RMSDP=8.59D-09 MaxDP=5.90D-08 DE=-2.93D-11 OVMax= 9.76D-08

 SCF Done:  E(RB3LYP) =  -79.8302862008     A.U. after    8 cycles
            NFock=  8  Conv=0.86D-08     -V/T= 2.0110
 KE= 7.896461341637D+01 PE=-2.677611762723D+02 EE= 6.698660328057D+01
 Leave Link  502 at Wed Mar 25 15:22:24 2020, MaxMem=  2147483648 cpu:               5.1 elap:               0.3
 (Enter /n/sw/g16_nehalem/g16/l701.exe)
 ... and contract with generalized density number  0.
 Compute integral first derivatives.
 Leave Link  701 at Wed Mar 25 15:22:24 2020, MaxMem=  2147483648 cpu:               2.0 elap:               0.1
 (Enter /n/sw/g16_nehalem/g16/l702.exe)
 L702 exits ... SP integral derivatives will be done elsewhere.
 Leave Link  702 at Wed Mar 25 15:22:24 2020, MaxMem=  2147483648 cpu:               0.4 elap:               0.0
 (Enter /n/sw/g16_nehalem/g16/l703.exe)
 Integral derivatives from FoFJK, PRISM(SPDF).
 Compute integral first derivatives, UseDBF=F ICtDFT=           0.
 Calling FoFJK, ICntrl=      2127 FMM=F ISym2X=1 I1Cent= 0 IOpClX= 0 NMat=1 NMatS=1 NMatT=0.
 FoFJK:  IHMeth= 1 ICntrl=    2127 DoSepK=F KAlg= 0 I1Cent=           0 FoldK=F
 IRaf=         0 NMat=       1 IRICut=       1 DoRegI=T DoRafI=F ISym2E= 1 IDoP0=0 IntGTp=1.
 FoFCou: FMM=F IPFlag=           0 FMFlag=      100000 FMFlg1=         800
         NFxFlg=           0 DoJE=F BraDBF=F KetDBF=F FulRan=T
         wScrn=  0.000000 ICntrl=      2127 IOpCl=  0 I1Cent=           0 NGrid=           0
         NMat0=    1 NMatS0=      1 NMatT0=    0 NMatD0=    1 NMtDS0=    0 NMtDT0=    0
 Petite list used in FoFCou.
 Leave Link  703 at Wed Mar 25 15:22:24 2020, MaxMem=  2147483648 cpu:               3.5 elap:               0.2
 (Enter /n/sw/g16_nehalem/g16/l716.exe)
 Dipole        =-4.44089210D-16-8.88178420D-16 1.77635684D-15
 ***** Axes restored to original set *****
 -------------------------------------------------------------------
 Center     Atomic                   Forces (Hartrees/Bohr)
 Number     Number              X              Y              Z
 -------------------------------------------------------------------
      1        6           0.003043564    0.004304135    0.007455052
      2        1          -0.000100265   -0.000746785   -0.000584858
      3        1          -0.000092079   -0.000138890   -0.000939165
      4        1          -0.000670663   -0.000334768   -0.000589866
      5        6          -0.003043564   -0.004304135   -0.007455052
      6        1           0.000092725    0.000744129    0.000589469
      7        1           0.000099610    0.000133555    0.000939170
      8        1           0.000670671    0.000342758    0.000585249
 -------------------------------------------------------------------
 Cartesian Forces:  Max     0.007455052 RMS     0.002678558
 Leave Link  716 at Wed Mar 25 15:22:24 2020, MaxMem=  2147483648 cpu:               0.4 elap:               0.0
 (Enter /n/sw/g16_nehalem/g16/l103.exe)

 GradGradGradGradGradGradGradGradGradGradGradGradGradGradGradGradGradGrad
 Berny optimization.
 Using GEDIIS/GDIIS optimizer.
 FormGI is forming the generalized inverse of G from B-inverse, IUseBI=4.
 Internal  Forces:  Max     0.006541561 RMS     0.001349053
 Search for a local minimum.
 Step number   2 out of a maximum of   38
 All quantities printed in internal units (Hartrees-Bohrs-Radians)
 RMS Force = .13491D-02 SwitMx=.10000D-02 MixMth= 1
 Mixed Optimization -- RFO/linear search
 Update second derivatives using D2CorX and points    1    2
 DE= -3.22D-03 DEPred=-3.19D-03 R= 1.01D+00
 TightC=F SS=  1.41D+00  RLast= 1.44D-01 DXNew= 5.0454D-01 4.3326D-01
 Trust test= 1.01D+00 RLast= 1.44D-01 DXMaxT set to 4.33D-01
 ITU=  1  0
 Use linear search instead of GDIIS.
     Eigenvalues ---    0.00237   0.05454   0.05454   0.05454   0.05454
     Eigenvalues ---    0.15088   0.16000   0.16000   0.16000   0.16000
     Eigenvalues ---    0.16000   0.27845   0.37230   0.37230   0.37230
     Eigenvalues ---    0.37230   0.37230   0.39168
 RFO step:  Lambda=-1.95450513D-04 EMin= 2.36825192D-03
 Quartic linear search produced a step of  0.05818.
 Iteration  1 RMS(Cart)=  0.00328429 RMS(Int)=  0.00002362
 Iteration  2 RMS(Cart)=  0.00001431 RMS(Int)=  0.00002022
 Iteration  3 RMS(Cart)=  0.00000000 RMS(Int)=  0.00002022
 ITry= 1 IFail=0 DXMaxC= 9.75D-03 DCOld= 1.00D+10 DXMaxT= 4.33D-01 DXLimC= 3.00D+00 Rises=F
 ClnCor:  largest displacement from symmetrization is 1.21D-12 for atom     4.
 Variable       Old X    -DE/DX   Delta X   Delta X   Delta X     New X
                                 (Linear)    (Quad)   (Total)
    R1        2.06857   0.00069   0.00271   0.00076   0.00347   2.07204
    R2        2.06857   0.00069   0.00271   0.00076   0.00347   2.07204
    R3        2.06857   0.00069   0.00271   0.00076   0.00347   2.07204
    R4        2.92136  -0.00654   0.00065  -0.02453  -0.02388   2.89747
    R5        2.06857   0.00069   0.00271   0.00076   0.00347   2.07204
    R6        2.06857   0.00069   0.00271   0.00076   0.00347   2.07204
    R7        2.06857   0.00069   0.00271   0.00076   0.00347   2.07204
    A1        1.88494  -0.00068  -0.00149  -0.00391  -0.00544   1.87950
    A2        1.88494  -0.00068  -0.00149  -0.00391  -0.00544   1.87950
    A3        1.93567   0.00065   0.00146   0.00372   0.00515   1.94082
    A4        1.88494  -0.00068  -0.00149  -0.00391  -0.00544   1.87950
    A5        1.93567   0.00065   0.00146   0.00372   0.00515   1.94082
    A6        1.93567   0.00065   0.00146   0.00372   0.00515   1.94082
    A7        1.93567   0.00065   0.00146   0.00372   0.00515   1.94082
    A8        1.93567   0.00065   0.00146   0.00372   0.00515   1.94082
    A9        1.93567   0.00065   0.00146   0.00372   0.00515   1.94082
   A10        1.88494  -0.00068  -0.00149  -0.00391  -0.00544   1.87950
   A11        1.88494  -0.00068  -0.00149  -0.00391  -0.00544   1.87950
   A12        1.88494  -0.00068  -0.00149  -0.00391  -0.00544   1.87950
    D1        3.14021   0.00000   0.00003   0.00144   0.00148  -3.14150
    D2       -1.04858   0.00000   0.00003   0.00144   0.00148  -1.04711
    D3        1.04581   0.00000   0.00003   0.00144   0.00148   1.04729
    D4        1.04581   0.00000   0.00003   0.00144   0.00148   1.04729
    D5        3.14021   0.00000   0.00003   0.00144   0.00148  -3.14150
    D6       -1.04858   0.00000   0.00003   0.00144   0.00148  -1.04711
    D7       -1.04858   0.00000   0.00003   0.00144   0.00148  -1.04711
    D8        1.04581   0.00000   0.00003   0.00144   0.00148   1.04729
    D9        3.14021   0.00000   0.00003   0.00144   0.00148  -3.14150
         Item               Value     Threshold  Converged?
 Maximum Force            0.006542     0.000450     NO 
 RMS     Force            0.001349     0.000300     NO 
 Maximum Displacement     0.009750     0.001800     NO 
 RMS     Displacement     0.003289     0.001200     NO 
 Predicted change in Energy=-1.052934D-04
 Lowest energy point so far.  Saving SCF results.
 GradGradGradGradGradGradGradGradGradGradGradGradGradGradGradGradGradGrad

 Leave Link  103 at Wed Mar 25 15:22:25 2020, MaxMem=  2147483648 cpu:               0.8 elap:               0.1
 (Enter /n/sw/g16_nehalem/g16/l202.exe)
                          Input orientation:                          
 ---------------------------------------------------------------------
 Center     Atomic      Atomic             Coordinates (Angstroms)
 Number     Number       Type             X           Y           Z
 ---------------------------------------------------------------------
      1          6           0       -3.655477    2.092205    0.002745
      2          1           0       -3.306615    1.053090   -0.025399
      3          1           0       -3.304900    2.586184   -0.911223
      4          1           0       -4.751452    2.076569   -0.026437
      5          6           0       -3.144376    2.814992    1.254660
      6          1           0       -3.493315    3.854079    1.282851
      7          1           0       -3.494876    2.320958    2.168628
      8          1           0       -2.048401    2.830709    1.283795
 ---------------------------------------------------------------------
                    Distance matrix (angstroms):
                    1          2          3          4          5
     1  C    0.000000
     2  H    1.096475   0.000000
     3  H    1.096475   1.770612   0.000000
     4  H    1.096475   1.770612   1.770612   0.000000
     5  C    1.533277   2.183844   2.183844   2.183844   0.000000
     6  H    2.183844   3.097082   2.541067   2.541001   1.096475
     7  H    2.183844   2.541001   3.097082   2.541067   1.096475
     8  H    2.183844   2.541067   2.541001   3.097082   1.096475
                    6          7          8
     6  H    0.000000
     7  H    1.770612   0.000000
     8  H    1.770612   1.770612   0.000000
 Stoichiometry    C2H6
 Framework group  D3[C3(C.C),X(H6)]
 Deg. of freedom     4
 Full point group                 D3      NOp   6
 RotChk:  IX=0 Diff= 1.41D+00
 Largest Abelian subgroup         C2      NOp   2
 Largest concise Abelian subgroup C2      NOp   2
                         Standard orientation:                         
 ---------------------------------------------------------------------
 Center     Atomic      Atomic             Coordinates (Angstroms)
 Number     Number       Type             X           Y           Z
 ---------------------------------------------------------------------
      1          6           0        0.000000    0.000000    0.766639
      2          1           0        0.511091    0.885329    1.163167
      3          1           0        0.511172   -0.885282    1.163167
      4          1           0       -1.022263   -0.000047    1.163167
      5          6           0        0.000000    0.000000   -0.766639
      6          1           0       -0.511172   -0.885282   -1.163167
      7          1           0       -0.511091    0.885329   -1.163167
      8          1           0        1.022263   -0.000047   -1.163167
 ---------------------------------------------------------------------
 Rotational constants (GHZ):          79.9752034          19.8604510          19.8604510
 Leave Link  202 at Wed Mar 25 15:22:25 2020, MaxMem=  2147483648 cpu:               0.2 elap:               0.1
 (Enter /n/sw/g16_nehalem/g16/l301.exe)
 Standard basis: 6-31G(d) (6D, 7F)
 Ernie: Thresh=  0.10000D-02 Tol=  0.10000D-05 Strict=F.
 There are    21 symmetry adapted cartesian basis functions of A   symmetry.
 There are    21 symmetry adapted cartesian basis functions of B   symmetry.
 There are    21 symmetry adapted basis functions of A   symmetry.
 There are    21 symmetry adapted basis functions of B   symmetry.
    42 basis functions,    80 primitive gaussians,    42 cartesian basis functions
     9 alpha electrons        9 beta electrons
       nuclear repulsion energy        42.0774550546 Hartrees.
 IExCor=  402 DFT=T Ex+Corr=B3LYP ExCW=0 ScaHFX=  0.200000
 ScaDFX=  0.800000  0.720000  1.000000  0.810000 ScalE2=  1.000000  1.000000
 IRadAn=      5 IRanWt=     -1 IRanGd=            0 ICorTp=0 IEmpDi=  4
 NAtoms=    8 NActive=    8 NUniq=    2 SFac= 4.00D+00 NAtFMM=   60 NAOKFM=F Big=F
 Integral buffers will be    131072 words long.
 Raffenetti 2 integral format.
 Two-electron integral symmetry is turned on.
 Leave Link  301 at Wed Mar 25 15:22:25 2020, MaxMem=  2147483648 cpu:               1.0 elap:               0.1
 (Enter /n/sw/g16_nehalem/g16/l302.exe)
 NPDir=0 NMtPBC=     1 NCelOv=     1 NCel=       1 NClECP=     1 NCelD=      1
         NCelK=      1 NCelE2=     1 NClLst=     1 CellRange=     0.0.
 One-electron integrals computed using PRISM.
 One-electron integral symmetry used in STVInt
 NBasis=    42 RedAO= T EigKep=  8.51D-03  NBF=    21    21
 NBsUse=    42 1.00D-06 EigRej= -1.00D+00 NBFU=    21    21
 Precomputing XC quadrature grid using
 IXCGrd= 4 IRadAn=           5 IRanWt=          -1 IRanGd=           0 AccXCQ= 0.00D+00.
 Generated NRdTot=       0 NPtTot=           0 NUsed=           0 NTot=          32
 NSgBfM=    42    42    42    42    42 MxSgAt=     8 MxSgA2=     8.
 Leave Link  302 at Wed Mar 25 15:22:25 2020, MaxMem=  2147483648 cpu:               2.3 elap:               0.2
 (Enter /n/sw/g16_nehalem/g16/l303.exe)
 DipDrv:  MaxL=1.
 Leave Link  303 at Wed Mar 25 15:22:25 2020, MaxMem=  2147483648 cpu:               0.4 elap:               0.0
 (Enter /n/sw/g16_nehalem/g16/l401.exe)
 Initial guess from the checkpoint file:  "checkpoint.chk"
 B after Tr=     0.000000    0.000000    0.000000
         Rot=    0.866025    0.000000    0.000000    0.500000 Ang=  60.00 deg.
 Guess basis will be translated and rotated to current coordinates.
 JPrj=2 DoOrth=T DoCkMO=T.
 Initial guess orbital symmetries:
       Occupied  (A1) (A2) (A1) (A2) (E) (E) (A1) (E) (E)
       Virtual   (A1) (A2) (E) (E) (E) (E) (A2) (A1) (E) (E) (E)
                 (E) (A2) (E) (E) (A1) (E) (E) (A2) (A1) (A2) (E)
                 (E) (A1) (E) (E) (E) (E) (E) (E) (A2) (A1) (A2)
 The electronic state of the initial guess is 1-A1.
 Leave Link  401 at Wed Mar 25 15:22:25 2020, MaxMem=  2147483648 cpu:               1.5 elap:               0.1
 (Enter /n/sw/g16_nehalem/g16/l502.exe)
 Keep R1 ints in memory in symmetry-blocked form, NReq=15947928.
 FoFCou: FMM=F IPFlag=           0 FMFlag=           0 FMFlg1=           0
         NFxFlg=           0 DoJE=F BraDBF=F KetDBF=F FulRan=T
         wScrn=  0.000000 ICntrl=       600 IOpCl=  0 I1Cent=           0 NGrid=           0
         NMat0=    1 NMatS0=    903 NMatT0=    0 NMatD0=    1 NMtDS0=    0 NMtDT0=    0
 Petite list used in FoFCou.
 Closed shell SCF:
 Using DIIS extrapolation, IDIIS=  1040.
 NGot=  2147483648 LenX=  2147271928 LenY=  2147269723
 Requested convergence on RMS density matrix=1.00D-08 within 128 cycles.
 Requested convergence on MAX density matrix=1.00D-06.
 Requested convergence on             energy=1.00D-06.
 No special actions if energy rises.
 An orbital has undefined symmetry, so N**3 symmetry is turned off.

 Cycle   1  Pass 1  IDiag  1:
 E= -79.8303692018643    
 DIIS: error= 9.18D-04 at cycle   1 NSaved=   1.
 NSaved= 1 IEnMin= 1 EnMin= -79.8303692018643     IErMin= 1 ErrMin= 9.18D-04
 ErrMax= 9.18D-04  0.00D+00 EMaxC= 1.00D-01 BMatC= 2.21D-05 BMatP= 2.21D-05
 IDIUse=3 WtCom= 9.91D-01 WtEn= 9.18D-03
 Coeff-Com:  0.100D+01
 Coeff-En:   0.100D+01
 Coeff:      0.100D+01
 Gap=     0.445 Goal=   None    Shift=    0.000
 RMSDP=1.80D-04 MaxDP=1.48D-03              OVMax= 2.77D-03

 Cycle   2  Pass 1  IDiag  1:
 E= -79.8304120281220     Delta-E=       -0.000042826258 Rises=F Damp=F
 DIIS: error= 1.32D-04 at cycle   2 NSaved=   2.
 NSaved= 2 IEnMin= 2 EnMin= -79.8304120281220     IErMin= 2 ErrMin= 1.32D-04
 ErrMax= 1.32D-04  0.00D+00 EMaxC= 1.00D-01 BMatC= 3.15D-07 BMatP= 2.21D-05
 IDIUse=3 WtCom= 9.99D-01 WtEn= 1.32D-03
 Coeff-Com: -0.304D-01 0.103D+01
 Coeff-En:   0.000D+00 0.100D+01
 Coeff:     -0.304D-01 0.103D+01
 Gap=     0.445 Goal=   None    Shift=    0.000
 RMSDP=2.14D-05 MaxDP=2.00D-04 DE=-4.28D-05 OVMax= 2.49D-04

 Cycle   3  Pass 1  IDiag  1:
 E= -79.8304122768591     Delta-E=       -0.000000248737 Rises=F Damp=F
 DIIS: error= 6.70D-05 at cycle   3 NSaved=   3.
 NSaved= 3 IEnMin= 3 EnMin= -79.8304122768591     IErMin= 3 ErrMin= 6.70D-05
 ErrMax= 6.70D-05  0.00D+00 EMaxC= 1.00D-01 BMatC= 1.25D-07 BMatP= 3.15D-07
 IDIUse=1 WtCom= 1.00D+00 WtEn= 0.00D+00
 Coeff-Com: -0.172D-01 0.389D+00 0.628D+00
 Coeff:     -0.172D-01 0.389D+00 0.628D+00
 Gap=     0.445 Goal=   None    Shift=    0.000
 RMSDP=9.98D-06 MaxDP=9.27D-05 DE=-2.49D-07 OVMax= 1.19D-04

 Cycle   4  Pass 1  IDiag  1:
 E= -79.8304123925042     Delta-E=       -0.000000115645 Rises=F Damp=F
 DIIS: error= 2.02D-05 at cycle   4 NSaved=   4.
 NSaved= 4 IEnMin= 4 EnMin= -79.8304123925042     IErMin= 4 ErrMin= 2.02D-05
 ErrMax= 2.02D-05  0.00D+00 EMaxC= 1.00D-01 BMatC= 1.64D-08 BMatP= 1.25D-07
 IDIUse=1 WtCom= 1.00D+00 WtEn= 0.00D+00
 Coeff-Com: -0.572D-02 0.904D-01 0.289D+00 0.626D+00
 Coeff:     -0.572D-02 0.904D-01 0.289D+00 0.626D+00
 Gap=     0.445 Goal=   None    Shift=    0.000
 RMSDP=2.69D-06 MaxDP=2.40D-05 DE=-1.16D-07 OVMax= 3.43D-05

 Cycle   5  Pass 1  IDiag  1:
 E= -79.8304124087979     Delta-E=       -0.000000016294 Rises=F Damp=F
 DIIS: error= 1.94D-06 at cycle   5 NSaved=   5.
 NSaved= 5 IEnMin= 5 EnMin= -79.8304124087979     IErMin= 5 ErrMin= 1.94D-06
 ErrMax= 1.94D-06  0.00D+00 EMaxC= 1.00D-01 BMatC= 1.23D-10 BMatP= 1.64D-08
 IDIUse=1 WtCom= 1.00D+00 WtEn= 0.00D+00
 Coeff-Com: -0.471D-03 0.129D-02 0.306D-01 0.131D+00 0.838D+00
 Coeff:     -0.471D-03 0.129D-02 0.306D-01 0.131D+00 0.838D+00
 Gap=     0.445 Goal=   None    Shift=    0.000
 RMSDP=2.27D-07 MaxDP=1.83D-06 DE=-1.63D-08 OVMax= 2.82D-06

 Cycle   6  Pass 1  IDiag  1:
 E= -79.8304124089176     Delta-E=       -0.000000000120 Rises=F Damp=F
 DIIS: error= 4.84D-08 at cycle   6 NSaved=   6.
 NSaved= 6 IEnMin= 6 EnMin= -79.8304124089176     IErMin= 6 ErrMin= 4.84D-08
 ErrMax= 4.84D-08  0.00D+00 EMaxC= 1.00D-01 BMatC= 8.22D-14 BMatP= 1.23D-10
 IDIUse=1 WtCom= 1.00D+00 WtEn= 0.00D+00
 Coeff-Com:  0.160D-04-0.289D-03-0.433D-03-0.258D-02 0.149D-02 0.100D+01
 Coeff:      0.160D-04-0.289D-03-0.433D-03-0.258D-02 0.149D-02 0.100D+01
 Gap=     0.445 Goal=   None    Shift=    0.000
 RMSDP=9.41D-09 MaxDP=6.04D-08 DE=-1.20D-10 OVMax= 1.09D-07

 SCF Done:  E(RB3LYP) =  -79.8304124089     A.U. after    6 cycles
            NFock=  6  Conv=0.94D-08     -V/T= 2.0109
 KE= 7.896901468224D+01 PE=-2.679573952974D+02 EE= 6.708051315163D+01
 Leave Link  502 at Wed Mar 25 15:22:26 2020, MaxMem=  2147483648 cpu:               4.9 elap:               0.3
 (Enter /n/sw/g16_nehalem/g16/l701.exe)
 ... and contract with generalized density number  0.
 Compute integral first derivatives.
 Leave Link  701 at Wed Mar 25 15:22:26 2020, MaxMem=  2147483648 cpu:               1.9 elap:               0.1
 (Enter /n/sw/g16_nehalem/g16/l702.exe)
 L702 exits ... SP integral derivatives will be done elsewhere.
 Leave Link  702 at Wed Mar 25 15:22:26 2020, MaxMem=  2147483648 cpu:               0.4 elap:               0.0
 (Enter /n/sw/g16_nehalem/g16/l703.exe)
 Integral derivatives from FoFJK, PRISM(SPDF).
 Compute integral first derivatives, UseDBF=F ICtDFT=           0.
 Calling FoFJK, ICntrl=      2127 FMM=F ISym2X=1 I1Cent= 0 IOpClX= 0 NMat=1 NMatS=1 NMatT=0.
 FoFJK:  IHMeth= 1 ICntrl=    2127 DoSepK=F KAlg= 0 I1Cent=           0 FoldK=F
 IRaf=         0 NMat=       1 IRICut=       1 DoRegI=T DoRafI=F ISym2E= 1 IDoP0=0 IntGTp=1.
 FoFCou: FMM=F IPFlag=           0 FMFlag=      100000 FMFlg1=         800
         NFxFlg=           0 DoJE=F BraDBF=F KetDBF=F FulRan=T
         wScrn=  0.000000 ICntrl=      2127 IOpCl=  0 I1Cent=           0 NGrid=           0
         NMat0=    1 NMatS0=      1 NMatT0=    0 NMatD0=    1 NMtDS0=    0 NMtDT0=    0
 Petite list used in FoFCou.
 Leave Link  703 at Wed Mar 25 15:22:26 2020, MaxMem=  2147483648 cpu:               3.5 elap:               0.2
 (Enter /n/sw/g16_nehalem/g16/l716.exe)
 Dipole        =-1.33226763D-15-1.33226763D-15-1.33226763D-15
 ***** Axes restored to original set *****
 -------------------------------------------------------------------
 Center     Atomic                   Forces (Hartrees/Bohr)
 Number     Number              X              Y              Z
 -------------------------------------------------------------------
      1        6           0.000526789    0.000744973    0.001290343
      2        1          -0.000238550    0.000222345   -0.000262613
      3        1          -0.000239722   -0.000337774    0.000061247
      4        1           0.000289142   -0.000152035   -0.000261899
      5        6          -0.000526789   -0.000744973   -0.001290343
      6        1           0.000239124   -0.000222143    0.000262262
      7        1           0.000239149    0.000338180   -0.000061248
      8        1          -0.000289142    0.000151427    0.000262251
 -------------------------------------------------------------------
 Cartesian Forces:  Max     0.001290343 RMS     0.000501946
 Leave Link  716 at Wed Mar 25 15:22:26 2020, MaxMem=  2147483648 cpu:               0.4 elap:               0.0
 (Enter /n/sw/g16_nehalem/g16/l103.exe)

 GradGradGradGradGradGradGradGradGradGradGradGradGradGradGradGradGradGrad
 Berny optimization.
 Using GEDIIS/GDIIS optimizer.
 FormGI is forming the generalized inverse of G from B-inverse, IUseBI=4.
 Internal  Forces:  Max     0.001012960 RMS     0.000308828
 Search for a local minimum.
 Step number   3 out of a maximum of   38
 All quantities printed in internal units (Hartrees-Bohrs-Radians)
 RMS Force = .30883D-03 SwitMx=.10000D-02 MixMth= 2
 Mixed Optimization -- En-DIIS/RFO-DIIS
 Update second derivatives using D2CorX and points    1    2    3
 DE= -1.26D-04 DEPred=-1.05D-04 R= 1.20D+00
 TightC=F SS=  1.41D+00  RLast= 3.16D-02 DXNew= 7.2865D-01 9.4817D-02
 Trust test= 1.20D+00 RLast= 3.16D-02 DXMaxT set to 4.33D-01
 ITU=  1  1  0
 Use linear search instead of GDIIS.
     Eigenvalues ---    0.00237   0.05400   0.05400   0.05400   0.05400
     Eigenvalues ---    0.11818   0.16000   0.16000   0.16000   0.16000
     Eigenvalues ---    0.16000   0.28460   0.37230   0.37230   0.37230
     Eigenvalues ---    0.37230   0.37230   0.40426
 RFO step:  Lambda=-7.89591470D-06 EMin= 2.36830371D-03
 Quartic linear search produced a step of  0.21343.
 Iteration  1 RMS(Cart)=  0.00175371 RMS(Int)=  0.00000557
 Iteration  2 RMS(Cart)=  0.00000475 RMS(Int)=  0.00000400
 Iteration  3 RMS(Cart)=  0.00000000 RMS(Int)=  0.00000400
 ITry= 1 IFail=0 DXMaxC= 3.10D-03 DCOld= 1.00D+10 DXMaxT= 4.33D-01 DXLimC= 3.00D+00 Rises=F
 ClnCor:  largest displacement from symmetrization is 3.42D-13 for atom     7.
 Variable       Old X    -DE/DX   Delta X   Delta X   Delta X     New X
                                 (Linear)    (Quad)   (Total)
    R1        2.07204  -0.00028   0.00074  -0.00113  -0.00039   2.07165
    R2        2.07204  -0.00028   0.00074  -0.00113  -0.00039   2.07165
    R3        2.07204  -0.00028   0.00074  -0.00113  -0.00039   2.07165
    R4        2.89747  -0.00101  -0.00510   0.00006  -0.00504   2.89244
    R5        2.07204  -0.00028   0.00074  -0.00113  -0.00039   2.07165
    R6        2.07204  -0.00028   0.00074  -0.00113  -0.00039   2.07165
    R7        2.07204  -0.00028   0.00074  -0.00113  -0.00039   2.07165
    A1        1.87950  -0.00032  -0.00116  -0.00168  -0.00284   1.87666
    A2        1.87950  -0.00032  -0.00116  -0.00168  -0.00284   1.87666
    A3        1.94082   0.00030   0.00110   0.00158   0.00267   1.94350
    A4        1.87950  -0.00032  -0.00116  -0.00168  -0.00284   1.87666
    A5        1.94082   0.00030   0.00110   0.00158   0.00267   1.94350
    A6        1.94082   0.00030   0.00110   0.00158   0.00267   1.94350
    A7        1.94082   0.00030   0.00110   0.00158   0.00267   1.94350
    A8        1.94082   0.00030   0.00110   0.00158   0.00267   1.94350
    A9        1.94082   0.00030   0.00110   0.00158   0.00267   1.94350
   A10        1.87950  -0.00032  -0.00116  -0.00168  -0.00284   1.87666
   A11        1.87950  -0.00032  -0.00116  -0.00168  -0.00284   1.87666
   A12        1.87950  -0.00032  -0.00116  -0.00168  -0.00284   1.87666
    D1       -3.14150   0.00000   0.00032  -0.00093  -0.00061   3.14107
    D2       -1.04711   0.00000   0.00032  -0.00093  -0.00061  -1.04772
    D3        1.04729   0.00000   0.00032  -0.00093  -0.00061   1.04668
    D4        1.04729   0.00000   0.00032  -0.00093  -0.00061   1.04668
    D5       -3.14150   0.00000   0.00032  -0.00093  -0.00061   3.14107
    D6       -1.04711   0.00000   0.00032  -0.00093  -0.00061  -1.04772
    D7       -1.04711   0.00000   0.00032  -0.00093  -0.00061  -1.04772
    D8        1.04729   0.00000   0.00032  -0.00093  -0.00061   1.04668
    D9       -3.14150   0.00000   0.00032  -0.00093  -0.00061   3.14107
         Item               Value     Threshold  Converged?
 Maximum Force            0.001013     0.000450     NO 
 RMS     Force            0.000309     0.000300     NO 
 Maximum Displacement     0.003102     0.001800     NO 
 RMS     Displacement     0.001753     0.001200     NO 
 Predicted change in Energy=-8.194175D-06
 Lowest energy point so far.  Saving SCF results.
 GradGradGradGradGradGradGradGradGradGradGradGradGradGradGradGradGradGrad

 Leave Link  103 at Wed Mar 25 15:22:26 2020, MaxMem=  2147483648 cpu:               0.8 elap:               0.1
 (Enter /n/sw/g16_nehalem/g16/l202.exe)
                          Input orientation:                          
 ---------------------------------------------------------------------
 Center     Atomic      Atomic             Coordinates (Angstroms)
 Number     Number       Type             X           Y           Z
 ---------------------------------------------------------------------
      1          6           0       -3.655033    2.092833    0.003833
      2          1           0       -3.307390    1.053603   -0.026999
      3          1           0       -3.306190    2.584905   -0.911579
      4          1           0       -4.750710    2.075463   -0.027722
      5          6           0       -3.144820    2.814363    1.253572
      6          1           0       -3.492027    3.853747    1.284138
      7          1           0       -3.494098    2.322599    2.168983
      8          1           0       -2.049144    2.831271    1.285394
 ---------------------------------------------------------------------
                    Distance matrix (angstroms):
                    1          2          3          4          5
     1  C    0.000000
     2  H    1.096269   0.000000
     3  H    1.096269   1.768437   0.000000
     4  H    1.096269   1.768437   1.768437   0.000000
     5  C    1.530611   2.183247   2.183247   2.183247   0.000000
     6  H    2.183247   3.097414   2.542767   2.543138   1.096269
     7  H    2.183247   2.543138   3.097414   2.542767   1.096269
     8  H    2.183247   2.542767   2.543138   3.097414   1.096269
                    6          7          8
     6  H    0.000000
     7  H    1.768437   0.000000
     8  H    1.768437   1.768437   0.000000
 Stoichiometry    C2H6
 Framework group  D3[C3(C.C),X(H6)]
 Deg. of freedom     4
 Full point group                 D3      NOp   6
 RotChk:  IX=0 Diff= 1.41D+00
 Largest Abelian subgroup         C2      NOp   2
 Largest concise Abelian subgroup C2      NOp   2
                         Standard orientation:                         
 ---------------------------------------------------------------------
 Center     Atomic      Atomic             Coordinates (Angstroms)
 Number     Number       Type             X           Y           Z
 ---------------------------------------------------------------------
      1          6           0        0.000000    0.000000    0.765306
      2          1           0       -0.510273    0.884352    1.164490
      3          1           0        1.021008   -0.000267    1.164490
      4          1           0       -0.510735   -0.884085    1.164490
      5          6           0        0.000000    0.000000   -0.765306
      6          1           0        0.510735   -0.884085   -1.164490
      7          1           0       -1.021008   -0.000267   -1.164490
      8          1           0        0.510273    0.884352   -1.164490
 ---------------------------------------------------------------------
 Rotational constants (GHZ):          80.1720198          19.8902656          19.8902656
 Leave Link  202 at Wed Mar 25 15:22:26 2020, MaxMem=  2147483648 cpu:               0.2 elap:               0.1
 (Enter /n/sw/g16_nehalem/g16/l301.exe)
 Standard basis: 6-31G(d) (6D, 7F)
 Ernie: Thresh=  0.10000D-02 Tol=  0.10000D-05 Strict=F.
 There are    21 symmetry adapted cartesian basis functions of A   symmetry.
 There are    21 symmetry adapted cartesian basis functions of B   symmetry.
 There are    21 symmetry adapted basis functions of A   symmetry.
 There are    21 symmetry adapted basis functions of B   symmetry.
    42 basis functions,    80 primitive gaussians,    42 cartesian basis functions
     9 alpha electrons        9 beta electrons
       nuclear repulsion energy        42.1059523782 Hartrees.
 IExCor=  402 DFT=T Ex+Corr=B3LYP ExCW=0 ScaHFX=  0.200000
 ScaDFX=  0.800000  0.720000  1.000000  0.810000 ScalE2=  1.000000  1.000000
 IRadAn=      5 IRanWt=     -1 IRanGd=            0 ICorTp=0 IEmpDi=  4
 NAtoms=    8 NActive=    8 NUniq=    2 SFac= 4.00D+00 NAtFMM=   60 NAOKFM=F Big=F
 Integral buffers will be    131072 words long.
 Raffenetti 2 integral format.
 Two-electron integral symmetry is turned on.
 Leave Link  301 at Wed Mar 25 15:22:27 2020, MaxMem=  2147483648 cpu:               1.0 elap:               0.1
 (Enter /n/sw/g16_nehalem/g16/l302.exe)
 NPDir=0 NMtPBC=     1 NCelOv=     1 NCel=       1 NClECP=     1 NCelD=      1
         NCelK=      1 NCelE2=     1 NClLst=     1 CellRange=     0.0.
 One-electron integrals computed using PRISM.
 One-electron integral symmetry used in STVInt
 NBasis=    42 RedAO= T EigKep=  8.49D-03  NBF=    21    21
 NBsUse=    42 1.00D-06 EigRej= -1.00D+00 NBFU=    21    21
 Precomputing XC quadrature grid using
 IXCGrd= 4 IRadAn=           5 IRanWt=          -1 IRanGd=           0 AccXCQ= 0.00D+00.
 Generated NRdTot=       0 NPtTot=           0 NUsed=           0 NTot=          32
 NSgBfM=    42    42    42    42    42 MxSgAt=     8 MxSgA2=     8.
 Leave Link  302 at Wed Mar 25 15:22:27 2020, MaxMem=  2147483648 cpu:               2.2 elap:               0.2
 (Enter /n/sw/g16_nehalem/g16/l303.exe)
 DipDrv:  MaxL=1.
 Leave Link  303 at Wed Mar 25 15:22:27 2020, MaxMem=  2147483648 cpu:               0.4 elap:               0.0
 (Enter /n/sw/g16_nehalem/g16/l401.exe)
 Initial guess from the checkpoint file:  "checkpoint.chk"
 B after Tr=     0.000000    0.000000    0.000000
         Rot=    0.866025    0.000000    0.000000   -0.500000 Ang= -60.00 deg.
 Guess basis will be translated and rotated to current coordinates.
 JPrj=2 DoOrth=T DoCkMO=T.
 Initial guess orbital symmetries:
       Occupied  (A1) (A2) (A1) (A2) (E) (E) (A1) (E) (E)
       Virtual   (A1) (A2) (E) (E) (E) (E) (A2) (A1) (E) (E) (E)
                 (E) (A2) (E) (E) (A1) (E) (E) (A2) (A1) (A2) (E)
                 (E) (A1) (E) (E) (E) (E) (E) (E) (A2) (A1) (A2)
 The electronic state of the initial guess is 1-A1.
 Leave Link  401 at Wed Mar 25 15:22:27 2020, MaxMem=  2147483648 cpu:               1.5 elap:               0.1
 (Enter /n/sw/g16_nehalem/g16/l502.exe)
 Keep R1 ints in memory in symmetry-blocked form, NReq=15947928.
 FoFCou: FMM=F IPFlag=           0 FMFlag=           0 FMFlg1=           0
         NFxFlg=           0 DoJE=F BraDBF=F KetDBF=F FulRan=T
         wScrn=  0.000000 ICntrl=       600 IOpCl=  0 I1Cent=           0 NGrid=           0
         NMat0=    1 NMatS0=    903 NMatT0=    0 NMatD0=    1 NMtDS0=    0 NMtDT0=    0
 Petite list used in FoFCou.
 Closed shell SCF:
 Using DIIS extrapolation, IDIIS=  1040.
 NGot=  2147483648 LenX=  2147271928 LenY=  2147269723
 Requested convergence on RMS density matrix=1.00D-08 within 128 cycles.
 Requested convergence on MAX density matrix=1.00D-06.
 Requested convergence on             energy=1.00D-06.
 No special actions if energy rises.
 An orbital has undefined symmetry, so N**3 symmetry is turned off.

 Cycle   1  Pass 1  IDiag  1:
 E= -79.8304173248217    
 DIIS: error= 3.52D-04 at cycle   1 NSaved=   1.
 NSaved= 1 IEnMin= 1 EnMin= -79.8304173248217     IErMin= 1 ErrMin= 3.52D-04
 ErrMax= 3.52D-04  0.00D+00 EMaxC= 1.00D-01 BMatC= 2.11D-06 BMatP= 2.11D-06
 IDIUse=3 WtCom= 9.96D-01 WtEn= 3.52D-03
 Coeff-Com:  0.100D+01
 Coeff-En:   0.100D+01
 Coeff:      0.100D+01
 Gap=     0.445 Goal=   None    Shift=    0.000
 RMSDP=4.81D-05 MaxDP=4.30D-04              OVMax= 7.59D-04

 Cycle   2  Pass 1  IDiag  1:
 E= -79.8304206299950     Delta-E=       -0.000003305173 Rises=F Damp=F
 DIIS: error= 6.29D-05 at cycle   2 NSaved=   2.
 NSaved= 2 IEnMin= 2 EnMin= -79.8304206299950     IErMin= 2 ErrMin= 6.29D-05
 ErrMax= 6.29D-05  0.00D+00 EMaxC= 1.00D-01 BMatC= 1.03D-07 BMatP= 2.11D-06
 IDIUse=1 WtCom= 1.00D+00 WtEn= 0.00D+00
 Coeff-Com:  0.672D-01 0.933D+00
 Coeff:      0.672D-01 0.933D+00
 Gap=     0.445 Goal=   None    Shift=    0.000
 RMSDP=1.34D-05 MaxDP=1.23D-04 DE=-3.31D-06 OVMax= 1.62D-04

 Cycle   3  Pass 1  IDiag  1:
 E= -79.8304206555113     Delta-E=       -0.000000025516 Rises=F Damp=F
 DIIS: error= 5.24D-05 at cycle   3 NSaved=   3.
 NSaved= 3 IEnMin= 3 EnMin= -79.8304206555113     IErMin= 3 ErrMin= 5.24D-05
 ErrMax= 5.24D-05  0.00D+00 EMaxC= 1.00D-01 BMatC= 8.56D-08 BMatP= 1.03D-07
 IDIUse=1 WtCom= 1.00D+00 WtEn= 0.00D+00
 Coeff-Com: -0.132D-01 0.476D+00 0.537D+00
 Coeff:     -0.132D-01 0.476D+00 0.537D+00
 Gap=     0.445 Goal=   None    Shift=    0.000
 RMSDP=6.50D-06 MaxDP=6.03D-05 DE=-2.55D-08 OVMax= 7.55D-05

 Cycle   4  Pass 1  IDiag  1:
 E= -79.8304207427880     Delta-E=       -0.000000087277 Rises=F Damp=F
 DIIS: error= 5.89D-06 at cycle   4 NSaved=   4.
 NSaved= 4 IEnMin= 4 EnMin= -79.8304207427880     IErMin= 4 ErrMin= 5.89D-06
 ErrMax= 5.89D-06  0.00D+00 EMaxC= 1.00D-01 BMatC= 1.20D-09 BMatP= 8.56D-08
 IDIUse=1 WtCom= 1.00D+00 WtEn= 0.00D+00
 Coeff-Com: -0.926D-02 0.115D+00 0.184D+00 0.711D+00
 Coeff:     -0.926D-02 0.115D+00 0.184D+00 0.711D+00
 Gap=     0.445 Goal=   None    Shift=    0.000
 RMSDP=6.51D-07 MaxDP=4.58D-06 DE=-8.73D-08 OVMax= 8.29D-06

 Cycle   5  Pass 1  IDiag  1:
 E= -79.8304207439384     Delta-E=       -0.000000001150 Rises=F Damp=F
 DIIS: error= 2.13D-07 at cycle   5 NSaved=   5.
 NSaved= 5 IEnMin= 5 EnMin= -79.8304207439384     IErMin= 5 ErrMin= 2.13D-07
 ErrMax= 2.13D-07  0.00D+00 EMaxC= 1.00D-01 BMatC= 1.23D-12 BMatP= 1.20D-09
 IDIUse=1 WtCom= 1.00D+00 WtEn= 0.00D+00
 Coeff-Com: -0.198D-03-0.514D-03 0.432D-02 0.221D-01 0.974D+00
 Coeff:     -0.198D-03-0.514D-03 0.432D-02 0.221D-01 0.974D+00
 Gap=     0.445 Goal=   None    Shift=    0.000
 RMSDP=3.91D-08 MaxDP=2.43D-07 DE=-1.15D-09 OVMax= 4.58D-07

 Cycle   6  Pass 1  IDiag  1:
 E= -79.8304207439397     Delta-E=       -0.000000000001 Rises=F Damp=F
 DIIS: error= 1.19D-08 at cycle   6 NSaved=   6.
 NSaved= 6 IEnMin= 6 EnMin= -79.8304207439397     IErMin= 6 ErrMin= 1.19D-08
 ErrMax= 1.19D-08  0.00D+00 EMaxC= 1.00D-01 BMatC= 5.06D-15 BMatP= 1.23D-12
 IDIUse=1 WtCom= 1.00D+00 WtEn= 0.00D+00
 Coeff-Com:  0.210D-04-0.276D-03-0.642D-03-0.126D-02-0.716D-02 0.101D+01
 Coeff:      0.210D-04-0.276D-03-0.642D-03-0.126D-02-0.716D-02 0.101D+01
 Gap=     0.445 Goal=   None    Shift=    0.000
 RMSDP=2.53D-09 MaxDP=1.59D-08 DE=-1.36D-12 OVMax= 2.58D-08

 SCF Done:  E(RB3LYP) =  -79.8304207439     A.U. after    6 cycles
            NFock=  6  Conv=0.25D-08     -V/T= 2.0108
 KE= 7.897404087330D+01 PE=-2.680171469470D+02 EE= 6.710673295150D+01
 Leave Link  502 at Wed Mar 25 15:22:27 2020, MaxMem=  2147483648 cpu:               4.9 elap:               0.3
 (Enter /n/sw/g16_nehalem/g16/l701.exe)
 ... and contract with generalized density number  0.
 Compute integral first derivatives.
 Leave Link  701 at Wed Mar 25 15:22:28 2020, MaxMem=  2147483648 cpu:               1.9 elap:               0.1
 (Enter /n/sw/g16_nehalem/g16/l702.exe)
 L702 exits ... SP integral derivatives will be done elsewhere.
 Leave Link  702 at Wed Mar 25 15:22:28 2020, MaxMem=  2147483648 cpu:               0.4 elap:               0.0
 (Enter /n/sw/g16_nehalem/g16/l703.exe)
 Integral derivatives from FoFJK, PRISM(SPDF).
 Compute integral first derivatives, UseDBF=F ICtDFT=           0.
 Calling FoFJK, ICntrl=      2127 FMM=F ISym2X=1 I1Cent= 0 IOpClX= 0 NMat=1 NMatS=1 NMatT=0.
[...]
                          Input orientation:                          
 ---------------------------------------------------------------------
 Center     Atomic      Atomic             Coordinates (Angstroms)
 Number     Number       Type             X           Y           Z
 ---------------------------------------------------------------------
      1          6           0       -3.656598    2.090620    0.000000
      2          1           0       -3.299943    1.081810    0.000000
      3          1           0       -3.299925    2.595018    0.873652
      4          1           0       -3.299925    2.595018   -0.873652
      5          1           0       -4.726598    2.090633    0.000000
 ---------------------------------------------------------------------
                    Distance matrix (angstroms):
                    1          2          3          4          5
     1  C    0.000000
     2  H    1.070000   0.000000
     3  H    1.070000   1.747302   0.000000
     4  H    1.070000   1.747302   1.747303   0.000000
     5  H    1.070000   1.747303   1.747303   1.747303   0.000000
 Stoichiometry    CH4
 Framework group  T[O(C),4C3(H)]
 Deg. of freedom     1
 Full point group                 T       NOp  12
 Largest Abelian subgroup         D2      NOp   4
 Largest concise Abelian subgroup D2      NOp   4
                         Standard orientation:                         
 ---------------------------------------------------------------------
 Center     Atomic      Atomic             Coordinates (Angstroms)
 Number     Number       Type             X           Y           Z
 ---------------------------------------------------------------------
      1          6           0        0.000000    0.000000    0.000000
      2          1           0        0.617765    0.617765    0.617765
      3          1           0       -0.617765   -0.617765    0.617765
      4          1           0       -0.617765    0.617765   -0.617765
      5          1           0        0.617765   -0.617765   -0.617765
 ---------------------------------------------------------------------
 Rotational constants (GHZ):         164.2463808         164.2463808         164.2463808
 Leave Link  202 at Wed Mar 25 15:22:37 2020, MaxMem=  2147483648 cpu:               0.5 elap:               0.0
 (Enter /n/sw/g16_nehalem/g16/l301.exe)
 Standard basis: 6-31G(d) (6D, 7F)
 Ernie: Thresh=  0.10000D-02 Tol=  0.10000D-05 Strict=F.
 There are     8 symmetry adapted cartesian basis functions of A   symmetry.
 There are     5 symmetry adapted cartesian basis functions of B1  symmetry.
 There are     5 symmetry adapted cartesian basis functions of B2  symmetry.
 There are     5 symmetry adapted cartesian basis functions of B3  symmetry.
 There are     8 symmetry adapted basis functions of A   symmetry.
 There are     5 symmetry adapted basis functions of B1  symmetry.
 There are     5 symmetry adapted basis functions of B2  symmetry.
 There are     5 symmetry adapted basis functions of B3  symmetry.
    23 basis functions,    44 primitive gaussians,    23 cartesian basis functions
     5 alpha electrons        5 beta electrons
       nuclear repulsion energy        13.6865186503 Hartrees.
 IExCor=  402 DFT=T Ex+Corr=B3LYP ExCW=0 ScaHFX=  0.200000
 ScaDFX=  0.800000  0.720000  1.000000  0.810000 ScalE2=  1.000000  1.000000
 IRadAn=      5 IRanWt=     -1 IRanGd=            0 ICorTp=0 IEmpDi=  4
 NAtoms=    5 NActive=    5 NUniq=    2 SFac= 4.00D+00 NAtFMM=   60 NAOKFM=F Big=F
 Integral buffers will be    131072 words long.
 Raffenetti 2 integral format.
 Two-electron integral symmetry is turned on.
 Leave Link  301 at Wed Mar 25 15:22:37 2020, MaxMem=  2147483648 cpu:               0.9 elap:               0.1
 (Enter /n/sw/g16_nehalem/g16/l302.exe)
 NPDir=0 NMtPBC=     1 NCelOv=     1 NCel=       1 NClECP=     1 NCelD=      1
         NCelK=      1 NCelE2=     1 NClLst=     1 CellRange=     0.0.
 One-electron integrals computed using PRISM.
 One-electron integral symmetry used in STVInt
 NBasis=    23 RedAO= T EigKep=  1.66D-02  NBF=     8     5     5     5
 NBsUse=    23 1.00D-06 EigRej= -1.00D+00 NBFU=     8     5     5     5
 Precomputing XC quadrature grid using
 IXCGrd= 4 IRadAn=           5 IRanWt=          -1 IRanGd=           0 AccXCQ= 0.00D+00.
 Generated NRdTot=       0 NPtTot=           0 NUsed=           0 NTot=          32
 NSgBfM=    23    23    23    23    23 MxSgAt=     5 MxSgA2=     5.
 Leave Link  302 at Wed Mar 25 15:22:37 2020, MaxMem=  2147483648 cpu:               2.1 elap:               0.1
 (Enter /n/sw/g16_nehalem/g16/l303.exe)
 DipDrv:  MaxL=1.
 Leave Link  303 at Wed Mar 25 15:22:37 2020, MaxMem=  2147483648 cpu:               0.4 elap:               0.0
 (Enter /n/sw/g16_nehalem/g16/l308.exe)
 Leave Link  308 at Wed Mar 25 15:22:37 2020, MaxMem=  2147483648 cpu:               0.3 elap:               0.0
 (Enter /n/sw/g16_nehalem/g16/l401.exe)
 ExpMin= 1.61D-01 ExpMax= 3.05D+03 ExpMxC= 4.57D+02 IAcc=3 IRadAn=         5 AccDes= 0.00D+00
 Harris functional with IExCor=  402 and IRadAn=       5 diagonalized for initial guess.
 HarFok:  IExCor=  402 AccDes= 0.00D+00 IRadAn=         5 IDoV= 1 UseB2=F ITyADJ=14
 ICtDFT=  3500011 ScaDFX=  1.000000  1.000000  1.000000  1.000000
 FoFCou: FMM=F IPFlag=           0 FMFlag=      100000 FMFlg1=           0
         NFxFlg=           0 DoJE=T BraDBF=F KetDBF=T FulRan=T
         wScrn=  0.000000 ICntrl=       500 IOpCl=  0 I1Cent=   200000004 NGrid=           0
         NMat0=    1 NMatS0=      1 NMatT0=    0 NMatD0=    1 NMtDS0=    0 NMtDT0=    0
 Petite list used in FoFCou.
 Harris En= -40.5679853174197    
 JPrj=0 DoOrth=F DoCkMO=F.
 Initial guess orbital symmetries:
       Occupied  (A) (A) (T) (T) (T)
       Virtual   (A) (T) (T) (T) (T) (T) (T) (T) (T) (T) (A) (A)
                 (E) (E) (T) (T) (T) (A)
 The electronic state of the initial guess is 1-A.
 Leave Link  401 at Wed Mar 25 15:22:38 2020, MaxMem=  2147483648 cpu:               2.6 elap:               0.2
 (Enter /n/sw/g16_nehalem/g16/l502.exe)
 Keep R1 ints in memory in symmetry-blocked form, NReq=15555009.
 FoFCou: FMM=F IPFlag=           0 FMFlag=           0 FMFlg1=           0
         NFxFlg=           0 DoJE=F BraDBF=F KetDBF=F FulRan=T
         wScrn=  0.000000 ICntrl=       600 IOpCl=  0 I1Cent=           0 NGrid=           0
         NMat0=    1 NMatS0=    276 NMatT0=    0 NMatD0=    1 NMtDS0=    0 NMtDT0=    0
 Petite list used in FoFCou.
 Closed shell SCF:
 Using DIIS extrapolation, IDIIS=  1040.
 NGot=  2147483648 LenX=  2147470473 LenY=  2147469503
 Requested convergence on RMS density matrix=1.00D-08 within 128 cycles.
 Requested convergence on MAX density matrix=1.00D-06.
 Requested convergence on             energy=1.00D-06.
 No special actions if energy rises.
 Integral accuracy reduced to 1.0D-05 until final iterations.

 Cycle   1  Pass 0  IDiag  1:
 E= -40.4196456668142    
 DIIS: error= 7.47D-02 at cycle   1 NSaved=   1.
 NSaved= 1 IEnMin= 1 EnMin= -40.4196456668142     IErMin= 1 ErrMin= 7.47D-02
 ErrMax= 7.47D-02  0.00D+00 EMaxC= 1.00D-01 BMatC= 9.05D-02 BMatP= 9.05D-02
 IDIUse=3 WtCom= 2.53D-01 WtEn= 7.47D-01
 Coeff-Com:  0.100D+01
 Coeff-En:   0.100D+01
 Coeff:      0.100D+01
 Gap=     0.433 Goal=   None    Shift=    0.000
 GapD=    0.433 DampG=2.000 DampE=0.500 DampFc=1.0000 IDamp=-1.
 RMSDP=2.31D-02 MaxDP=1.61D-01              OVMax= 1.94D-01

 Cycle   2  Pass 0  IDiag  1:
 E= -40.4020293237479     Delta-E=        0.017616343066 Rises=F Damp=F
 DIIS: error= 7.86D-02 at cycle   2 NSaved=   2.
 NSaved= 2 IEnMin= 1 EnMin= -40.4196456668142     IErMin= 1 ErrMin= 7.47D-02
 ErrMax= 7.86D-02  0.00D+00 EMaxC= 1.00D-01 BMatC= 1.06D-01 BMatP= 9.05D-02
 IDIUse=2 WtCom= 0.00D+00 WtEn= 1.00D+00
 Coeff-En:   0.540D+00 0.460D+00
 Coeff:      0.540D+00 0.460D+00
 Gap=     0.507 Goal=   None    Shift=    0.000
 RMSDP=1.17D-02 MaxDP=7.32D-02 DE= 1.76D-02 OVMax= 9.67D-02

 Cycle   3  Pass 0  IDiag  1:
 E= -40.5167867097800     Delta-E=       -0.114757386032 Rises=F Damp=F
 DIIS: error= 3.08D-03 at cycle   3 NSaved=   3.
 NSaved= 3 IEnMin= 3 EnMin= -40.5167867097800     IErMin= 3 ErrMin= 3.08D-03
 ErrMax= 3.08D-03  0.00D+00 EMaxC= 1.00D-01 BMatC= 1.74D-04 BMatP= 9.05D-02
 IDIUse=3 WtCom= 9.69D-01 WtEn= 3.08D-02
 Coeff-Com:  0.122D-01-0.298D-01 0.102D+01
 Coeff-En:   0.000D+00 0.000D+00 0.100D+01
 Coeff:      0.119D-01-0.289D-01 0.102D+01
 Gap=     0.516 Goal=   None    Shift=    0.000
 RMSDP=3.99D-04 MaxDP=3.35D-03 DE=-1.15D-01 OVMax= 3.49D-03

 Cycle   4  Pass 0  IDiag  1:
 E= -40.5169539846197     Delta-E=       -0.000167274840 Rises=F Damp=F
 DIIS: error= 6.24D-05 at cycle   4 NSaved=   4.
 NSaved= 4 IEnMin= 4 EnMin= -40.5169539846197     IErMin= 4 ErrMin= 6.24D-05
 ErrMax= 6.24D-05  0.00D+00 EMaxC= 1.00D-01 BMatC= 6.97D-08 BMatP= 1.74D-04
 IDIUse=1 WtCom= 1.00D+00 WtEn= 0.00D+00
 Coeff-Com:  0.134D-02-0.831D-03 0.335D-01 0.966D+00
 Coeff:      0.134D-02-0.831D-03 0.335D-01 0.966D+00
 Gap=     0.516 Goal=   None    Shift=    0.000
 RMSDP=8.72D-06 MaxDP=5.28D-05 DE=-1.67D-04 OVMax= 7.56D-05

 Initial convergence to 1.0D-05 achieved.  Increase integral accuracy.
 Cycle   5  Pass 1  IDiag  1:
 E= -40.5169484073835     Delta-E=        0.000005577236 Rises=F Damp=F
 DIIS: error= 5.95D-06 at cycle   1 NSaved=   1.
 NSaved= 1 IEnMin= 1 EnMin= -40.5169484073835     IErMin= 1 ErrMin= 5.95D-06
 ErrMax= 5.95D-06  0.00D+00 EMaxC= 1.00D-01 BMatC= 8.59D-10 BMatP= 8.59D-10
 IDIUse=1 WtCom= 1.00D+00 WtEn= 0.00D+00
 Coeff-Com:  0.100D+01
 Coeff:      0.100D+01
 Gap=     0.516 Goal=   None    Shift=    0.000
 RMSDP=8.72D-06 MaxDP=5.28D-05 DE= 5.58D-06 OVMax= 1.34D-05

 Cycle   6  Pass 1  IDiag  1:
 E= -40.5169484075277     Delta-E=       -0.000000000144 Rises=F Damp=F
 DIIS: error= 6.19D-06 at cycle   2 NSaved=   2.
 NSaved= 2 IEnMin= 2 EnMin= -40.5169484075277     IErMin= 1 ErrMin= 5.95D-06
 ErrMax= 6.19D-06  0.00D+00 EMaxC= 1.00D-01 BMatC= 6.61D-10 BMatP= 8.59D-10
 IDIUse=1 WtCom= 1.00D+00 WtEn= 0.00D+00
 Coeff-Com:  0.466D+00 0.534D+00
 Coeff:      0.466D+00 0.534D+00
 Gap=     0.516 Goal=   None    Shift=    0.000
 RMSDP=1.01D-06 MaxDP=7.49D-06 DE=-1.44D-10 OVMax= 8.72D-06

 Cycle   7  Pass 1  IDiag  1:
 E= -40.5169484081838     Delta-E=       -0.000000000656 Rises=F Damp=F
 DIIS: error= 8.65D-07 at cycle   3 NSaved=   3.
 NSaved= 3 IEnMin= 3 EnMin= -40.5169484081838     IErMin= 3 ErrMin= 8.65D-07
 ErrMax= 8.65D-07  0.00D+00 EMaxC= 1.00D-01 BMatC= 1.39D-11 BMatP= 6.61D-10
 IDIUse=1 WtCom= 1.00D+00 WtEn= 0.00D+00
 Coeff-Com: -0.420D-01 0.920D-01 0.950D+00
 Coeff:     -0.420D-01 0.920D-01 0.950D+00
 Gap=     0.516 Goal=   None    Shift=    0.000
 RMSDP=1.11D-07 MaxDP=9.41D-07 DE=-6.56D-10 OVMax= 9.64D-07

 Cycle   8  Pass 1  IDiag  1:
 E= -40.5169484081971     Delta-E=       -0.000000000013 Rises=F Damp=F
 DIIS: error= 1.59D-08 at cycle   4 NSaved=   4.
 NSaved= 4 IEnMin= 4 EnMin= -40.5169484081971     IErMin= 4 ErrMin= 1.59D-08
 ErrMax= 1.59D-08  0.00D+00 EMaxC= 1.00D-01 BMatC= 3.86D-15 BMatP= 1.39D-11
 IDIUse=1 WtCom= 1.00D+00 WtEn= 0.00D+00
 Coeff-Com: -0.146D-02-0.220D-03 0.251D-01 0.977D+00
 Coeff:     -0.146D-02-0.220D-03 0.251D-01 0.977D+00
 Gap=     0.516 Goal=   None    Shift=    0.000
 RMSDP=2.76D-09 MaxDP=1.73D-08 DE=-1.33D-11 OVMax= 2.26D-08

 SCF Done:  E(RB3LYP) =  -40.5169484082     A.U. after    8 cycles
            NFock=  8  Conv=0.28D-08     -V/T= 2.0080
 KE= 4.019408405214D+01 PE=-1.204955915878D+02 EE= 2.609804047715D+01
 Leave Link  502 at Wed Mar 25 15:22:38 2020, MaxMem=  2147483648 cpu:               4.3 elap:               0.3
 (Enter /n/sw/g16_nehalem/g16/l801.exe)
 DoSCS=F DFT=T ScalE2(SS,OS)=  1.000000  1.000000
 Range of M.O.s used for correlation:     1    23
 NBasis=    23 NAE=     5 NBE=     5 NFC=     0 NFV=     0
 NROrb=     23 NOA=     5 NOB=     5 NVA=    18 NVB=    18
 Leave Link  801 at Wed Mar 25 15:22:38 2020, MaxMem=  2147483648 cpu:               0.4 elap:               0.1
 (Enter /n/sw/g16_nehalem/g16/l1002.exe)
 Minotr:  Closed shell wavefunction.
          Direct CPHF calculation.
          Differentiating once with respect to magnetic field using GIAOs.
          Electric field/nuclear overlap derivatives assumed to be zero.
          Using symmetry in CPHF.
          Requested convergence is 1.0D-08 RMS, and 1.0D-07 maximum.
          Secondary convergence is 1.0D-12 RMS, and 1.0D-12 maximum.
          NewPWx=T KeepS1=F KeepF1=F KeepIn=T MapXYZ=F SortEE=F KeepMc=T.
         1449 words used for storage of precomputed grid.
 Keep R3 ints in memory in symmetry-blocked form, NReq=17534642.
 FoFCou: FMM=F IPFlag=           0 FMFlag=           0 FMFlg1=           0
         NFxFlg=           0 DoJE=F BraDBF=F KetDBF=F FulRan=T
         wScrn=  0.000000 ICntrl=       600 IOpCl=  0 I1Cent=           0 NGrid=           0
         NMat0=    1 NMatS0=    276 NMatT0=    0 NMatD0=    1 NMtDS0=    0 NMtDT0=    0
 Petite list used in FoFCou.
 Two-electron integral symmetry used by symmetrizing perturbed Fock matrices.
          MDV=    2147483648 using IRadAn=       1.
          Solving linear equations simultaneously, MaxMat=       0.
 FoFJK:  IHMeth= 1 ICntrl=    6127 DoSepK=F KAlg= 0 I1Cent=           0 FoldK=F
 IRaf=         1 NMat=       1 IRICut=       1 DoRegI=T DoRafI=F ISym2E= 0 IDoP0=0 IntGTp=1.
          There are     3 degrees of freedom in the 1st order CPHF.  IDoFFX=0 NUNeed=     3.
      3 vectors produced by pass  0 Test12= 3.00D-15 3.33D-08 XBig12= 1.19D-01 2.19D-01.
 AX will form     3 AO Fock derivatives at one time.
      3 vectors produced by pass  1 Test12= 3.00D-15 3.33D-08 XBig12= 2.84D-05 3.04D-03.
      3 vectors produced by pass  2 Test12= 3.00D-15 3.33D-08 XBig12= 6.77D-10 1.38D-05.
      3 vectors produced by pass  3 Test12= 3.00D-15 3.33D-08 XBig12= 3.09D-13 2.64D-07.
 InvSVY:  IOpt=1 It=  1 EMax= 2.73D-18
 Solved reduced A of dimension    12 with     3 vectors.
 Calculating GIAO nuclear magnetic shielding tensors.
 SCF GIAO Magnetic shielding tensor (ppm):
      1  C    Isotropic =   198.2259   Anisotropy =     0.0000
   XX=   198.2259   YX=     0.0000   ZX=     0.0000
   XY=     0.0000   YY=   198.2259   ZY=     0.0000
   XZ=     0.0000   YZ=     0.0000   ZZ=   198.2259
   Eigenvalues:   198.2259   198.2259   198.2259
      2  H    Isotropic =    32.6869   Anisotropy =     9.0574
   XX=    32.6869   YX=     3.0191   ZX=     3.0191
   XY=     3.0191   YY=    32.6869   ZY=     3.0191
   XZ=     3.0191   YZ=     3.0191   ZZ=    32.6869
   Eigenvalues:    29.6677    29.6677    38.7251
      3  H    Isotropic =    32.6869   Anisotropy =     9.0574
   XX=    32.6869   YX=     3.0191   ZX=    -3.0191
   XY=     3.0191   YY=    32.6869   ZY=    -3.0191
   XZ=    -3.0191   YZ=    -3.0191   ZZ=    32.6869
   Eigenvalues:    29.6677    29.6677    38.7251
      4  H    Isotropic =    32.6869   Anisotropy =     9.0574
   XX=    32.6869   YX=    -3.0191   ZX=     3.0191
   XY=    -3.0191   YY=    32.6869   ZY=    -3.0191
   XZ=     3.0191   YZ=    -3.0191   ZZ=    32.6869
   Eigenvalues:    29.6677    29.6677    38.7251
      5  H    Isotropic =    32.6869   Anisotropy =     9.0574
   XX=    32.6869   YX=    -3.0191   ZX=    -3.0191
   XY=    -3.0191   YY=    32.6869   ZY=     3.0191
   XZ=    -3.0191   YZ=     3.0191   ZZ=    32.6869
   Eigenvalues:    29.6677    29.6677    38.7251
 End of Minotr F.D. properties file   721 does not exist.
 End of Minotr F.D. properties file   722 does not exist.
 End of Minotr F.D. properties file   788 does not exist.
 Leave Link 1002 at Wed Mar 25 15:22:38 2020, MaxMem=  2147483648 cpu:               3.2 elap:               0.3
 (Enter /n/sw/g16_nehalem/g16/l601.exe)
 Copying SCF densities to generalized density rwf, IOpCl= 0 IROHF=0.

 **********************************************************************

            Population analysis using the SCF density.

 **********************************************************************

 Orbital symmetries:
       Occupied  (A) (A) (T) (T) (T)
       Virtual   (A) (T) (T) (T) (T) (T) (T) (T) (T) (T) (A) (A)
                 (E) (E) (T) (T) (T) (A)
 The electronic state is 1-A.
 Alpha  occ. eigenvalues --  -10.15714  -0.69750  -0.39299  -0.39299  -0.39299
 Alpha virt. eigenvalues --    0.12339   0.18377   0.18377   0.18377   0.52636
 Alpha virt. eigenvalues --    0.52636   0.52636   0.91615   0.91615   0.91615
 Alpha virt. eigenvalues --    0.98351   1.10679   1.65175   1.65175   2.27536
 Alpha virt. eigenvalues --    2.27536   2.27536   4.19621
          Condensed to atoms (all electrons):
               1          2          3          4          5
     1  C    5.085250   0.388118   0.388118   0.388118   0.388118
     2  H    0.388118   0.534407  -0.027319  -0.027319  -0.027319
     3  H    0.388118  -0.027319   0.534407  -0.027319  -0.027319
     4  H    0.388118  -0.027319  -0.027319   0.534407  -0.027319
     5  H    0.388118  -0.027319  -0.027319  -0.027319   0.534407
 Mulliken charges:
               1
     1  C   -0.637723
     2  H    0.159431
     3  H    0.159431
     4  H    0.159431
     5  H    0.159431
 Sum of Mulliken charges =   0.00000
 Mulliken charges with hydrogens summed into heavy atoms:
               1
     1  C    0.000000
 Electronic spatial extent (au):  <R**2>=             34.6160
 Charge=              0.0000 electrons
 Dipole moment (field-independent basis, Debye):
    X=              0.0000    Y=              0.0000    Z=              0.0000  Tot=              0.0000
 Quadrupole moment (field-independent basis, Debye-Ang):
   XX=             -8.1876   YY=             -8.1876   ZZ=             -8.1876
   XY=              0.0000   XZ=              0.0000   YZ=              0.0000
 Traceless Quadrupole moment (field-independent basis, Debye-Ang):
   XX=              0.0000   YY=              0.0000   ZZ=              0.0000
   XY=              0.0000   XZ=              0.0000   YZ=              0.0000
 Octapole moment (field-independent basis, Debye-Ang**2):
  XXX=              0.0000  YYY=              0.0000  ZZZ=              0.0000  XYY=              0.0000
  XXY=              0.0000  XXZ=              0.0000  XZZ=              0.0000  YZZ=              0.0000
  YYZ=              0.0000  XYZ=              0.6157
 Hexadecapole moment (field-independent basis, Debye-Ang**3):
 XXXX=            -15.2018 YYYY=            -15.2018 ZZZZ=            -15.2018 XXXY=              0.0000
 XXXZ=              0.0000 YYYX=              0.0000 YYYZ=              0.0000 ZZZX=              0.0000
 ZZZY=              0.0000 XXYY=             -4.6610 XXZZ=             -4.6610 YYZZ=             -4.6610
 XXYZ=              0.0000 YYXZ=              0.0000 ZZXY=              0.0000
 N-N= 1.368651865031D+01 E-N=-1.204955912324D+02  KE= 4.019408405214D+01
 Symmetry A    KE= 3.431335146540D+01
 Symmetry B1   KE= 1.960244195581D+00
 Symmetry B2   KE= 1.960244195581D+00
 Symmetry B3   KE= 1.960244195581D+00
 Calculating spin-rotation constants.
 Leave Link  601 at Wed Mar 25 15:22:39 2020, MaxMem=  2147483648 cpu:               2.2 elap:               0.4
 (Enter /n/sw/g16_nehalem/g16/l9999.exe)
 1\1\GINC-HOLY2C14401\SP\RB3LYP\6-31G(d)\C1H4\EKWAN\25-Mar-2020\0\\#p b
 3lyp 6-31g* NMR\\Title Card Required\\0,1\C,0,-3.6565977,2.09062,0.\H,
 0,-3.29994328,1.08181,0.\H,0,-3.29992486,2.59501819,0.8736515\H,0,-3.2
 9992486,2.59501819,-0.8736515\H,0,-4.7265977,2.09063318,0.\\Version=ES
 64L-G16RevA.03\State=1-A\HF=-40.5169484\RMSD=2.756e-09\Dipole=0.,0.,0.
 \Quadrupole=0.,0.,0.,0.,0.,0.\PG=T [O(C1),4C3(H1)]\\@


 SOME THINGS ARE EASY, THEY ARE ONLY HARD TO DO.
            -- A. EINSTEIN TO J. O. HIRSCHFELDER
 THE ONLY TROUBLE WITH A SURE THING IS THE UNCERTAINTY.
     -- FROM A TEABAG (BELONGING TO W.H.?)
 Job cpu time:       0 days  0 hours  0 minutes 20.7 seconds.
 Elapsed time:       0 days  0 hours  0 minutes  1.8 seconds.
 File lengths (MBytes):  RWF=      6 Int=      0 D2E=      0 Chk=      2 Scr=      1
 Normal termination of Gaussian 16 at Wed Mar 25 15:22:39 2020.
