 Entering Gaussian System, Link 0=g16
 Input=ex_crest_c00001.gjf
 Output=ex_crest_c00001.out
 Initial command:
 /n/sw/g16_nehalem/g16/l1.exe "/n/holyscratch01/jacobsen_lab/cwagen_ex_crest_c00001/Gau-19486.inp" -scrdir="/n/holyscratch01/jacobsen_lab/cwagen_ex_crest_c00001/"
 Entering Link 1 = /n/sw/g16_nehalem/g16/l1.exe PID=     19487.
  
 Copyright (c) 1988,1990,1992,1993,1995,1998,2003,2009,2016,
            Gaussian, Inc.  All Rights Reserved.
  
 This is part of the Gaussian(R) 16 program.  It is based on
 the Gaussian(R) 09 system (copyright 2009, Gaussian, Inc.),
 the Gaussian(R) 03 system (copyright 2003, Gaussian, Inc.),
 the Gaussian(R) 98 system (copyright 1998, Gaussian, Inc.),
 the Gaussian(R) 94 system (copyright 1995, Gaussian, Inc.),
 the Gaussian 92(TM) system (copyright 1992, Gaussian, Inc.),
 the Gaussian 90(TM) system (copyright 1990, Gaussian, Inc.),
 the Gaussian 88(TM) system (copyright 1988, Gaussian, Inc.),
 the Gaussian 86(TM) system (copyright 1986, Carnegie Mellon
 University), and the Gaussian 82(TM) system (copyright 1983,
 Carnegie Mellon University). Gaussian is a federally registered
 trademark of Gaussian, Inc.
  
 This software contains proprietary and confidential information,
 including trade secrets, belonging to Gaussian, Inc.
  
 This software is provided under written license and may be
 used, copied, transmitted, or stored only in accord with that
 written license.
  
 The following legend is applicable only to US Government
 contracts under FAR:
  
                    RESTRICTED RIGHTS LEGEND
  
 Use, reproduction and disclosure by the US Government is
 subject to restrictions as set forth in subparagraphs (a)
 and (c) of the Commercial Computer Software - Restricted
 Rights clause in FAR 52.227-19.
  
 Gaussian, Inc.
 340 Quinnipiac St., Bldg. 40, Wallingford CT 06492
  
  
 ---------------------------------------------------------------
 Warning -- This program may not be used in any manner that
 competes with the business of Gaussian, Inc. or will provide
 assistance to any competitor of Gaussian, Inc.  The licensee
 of this program is prohibited from giving any competitor of
 Gaussian, Inc. access to this program.  By using this program,
 the user acknowledges that Gaussian, Inc. is engaged in the
 business of creating and licensing software in the field of
 computational chemistry and represents and warrants to the
 licensee that it is not a competitor of Gaussian, Inc. and that
 it will not use this program in any manner prohibited above.
 ---------------------------------------------------------------
  

 Cite this work as:
 Gaussian 16, Revision A.03,
 M. J. Frisch, G. W. Trucks, H. B. Schlegel, G. E. Scuseria, 
 M. A. Robb, J. R. Cheeseman, G. Scalmani, V. Barone, 
 G. A. Petersson, H. Nakatsuji, X. Li, M. Caricato, A. V. Marenich, 
 J. Bloino, B. G. Janesko, R. Gomperts, B. Mennucci, H. P. Hratchian, 
 J. V. Ortiz, A. F. Izmaylov, J. L. Sonnenberg, D. Williams-Young, 
 F. Ding, F. Lipparini, F. Egidi, J. Goings, B. Peng, A. Petrone, 
 T. Henderson, D. Ranasinghe, V. G. Zakrzewski, J. Gao, N. Rega, 
 G. Zheng, W. Liang, M. Hada, M. Ehara, K. Toyota, R. Fukuda, 
 J. Hasegawa, M. Ishida, T. Nakajima, Y. Honda, O. Kitao, H. Nakai, 
 T. Vreven, K. Throssell, J. A. Montgomery, Jr., J. E. Peralta, 
 F. Ogliaro, M. J. Bearpark, J. J. Heyd, E. N. Brothers, K. N. Kudin, 
 V. N. Staroverov, T. A. Keith, R. Kobayashi, J. Normand, 
 K. Raghavachari, A. P. Rendell, J. C. Burant, S. S. Iyengar, 
 J. Tomasi, M. Cossi, J. M. Millam, M. Klene, C. Adamo, R. Cammi, 
 J. W. Ochterski, R. L. Martin, K. Morokuma, O. Farkas, 
 J. B. Foresman, and D. J. Fox, Gaussian, Inc., Wallingford CT, 2016.
 
 ******************************************
 Gaussian 16:  ES64L-G16RevA.03 25-Dec-2016
                24-Dec-2022 
 ******************************************
 %mem=32GB
 %nprocshared=16
 Will use up to   16 processors via shared memory.
 ---------------------------------------
 #p opt freq=noraman nmr wb97xd/6-31g(d)
 ---------------------------------------
 1/18=20,19=15,26=3,38=1/1,3;
 2/9=110,12=2,17=6,18=5,40=1/2;
 3/5=1,6=6,7=1,11=2,25=1,30=1,71=1,74=-58/1,2,3;
 4//1;
 5/5=2,38=5/2;
 6/7=2,8=2,9=2,10=2,28=1/1;
 7//1,2,3,16;
 1/18=20,19=15,26=3/3(2);
 2/9=110/2;
 99//99;
 2/9=110/2;
 3/5=1,6=6,7=1,11=2,25=1,30=1,71=1,74=-58/1,2,3;
 4/5=5,16=3,69=1/1;
 5/5=2,38=5/2;
 7//1,2,3,16;
 1/18=20,19=15,26=3/3(-5);
 2/9=110/2;
 6/7=2,8=2,9=2,10=2,19=2,28=1/1;
 99/9=1/99;
 Leave Link    1 at Sat Dec 24 13:32:53 2022, MaxMem=  4294967296 cpu:               1.3 elap:               0.1
 (Enter /n/sw/g16_nehalem/g16/l101.exe)
 -----
 title
 -----
 Symbolic Z-matrix:
 Charge =  0 Multiplicity = 1
 6                     0.05144   0.82535   0.26092 
 1                     0.04764   0.72199   1.35869 
 6                     1.50296   0.95423  -0.20752 
 1                     1.50907   1.04273  -1.29716 
 1                     1.9264    1.88857   0.17451 
 6                    -0.63792  -0.40358  -0.33981 
 1                    -0.05302  -1.29983  -0.10499 
 1                    -0.63409  -0.31139  -1.43014 
 6                     2.33017  -0.21344   0.19424 
 8                     2.03016  -1.34949  -0.01844 
 1                     3.27693  -0.05626   0.6962 
 6                    -2.03     -0.56857   0.13831 
 6                    -2.7028   -1.69396   0.01411 
 1                    -2.50603   0.29797   0.56809 
 1                    -3.71618  -1.78761   0.35187 
 1                    -2.2529   -2.5582   -0.43172 
 9                    -0.64269   1.94127  -0.01647 
 
 ITRead=  0  0  0  0  0  0  0  0  0  0  0  0  0  0  0  0  0
 MicOpt= -1 -1 -1 -1 -1 -1 -1 -1 -1 -1 -1 -1 -1 -1 -1 -1 -1
 NAtoms=     17 NQM=       17 NQMF=       0 NMMI=      0 NMMIF=      0
                NMic=       0 NMicF=      0.
                    Isotopes and Nuclear Properties:
 (Nuclear quadrupole moments (NQMom) in fm**2, nuclear magnetic moments (NMagM)
  in nuclear magnetons)

  Atom         1           2           3           4           5           6           7           8           9          10
 IAtWgt=          12           1          12           1           1          12           1           1          12          16
 AtmWgt=  12.0000000   1.0078250  12.0000000   1.0078250   1.0078250  12.0000000   1.0078250   1.0078250  12.0000000  15.9949146
 NucSpn=           0           1           0           1           1           0           1           1           0           0
 AtZEff=   0.0000000   0.0000000   0.0000000   0.0000000   0.0000000   0.0000000   0.0000000   0.0000000   0.0000000   0.0000000
 NQMom=    0.0000000   0.0000000   0.0000000   0.0000000   0.0000000   0.0000000   0.0000000   0.0000000   0.0000000   0.0000000
 NMagM=    0.0000000   2.7928460   0.0000000   2.7928460   2.7928460   0.0000000   2.7928460   2.7928460   0.0000000   0.0000000
 AtZNuc=   6.0000000   1.0000000   6.0000000   1.0000000   1.0000000   6.0000000   1.0000000   1.0000000   6.0000000   8.0000000

  Atom        11          12          13          14          15          16          17
 IAtWgt=           1          12          12           1           1           1          19
 AtmWgt=   1.0078250  12.0000000  12.0000000   1.0078250   1.0078250   1.0078250  18.9984033
 NucSpn=           1           0           0           1           1           1           1
 AtZEff=   0.0000000   0.0000000   0.0000000   0.0000000   0.0000000   0.0000000   0.0000000
 NQMom=    0.0000000   0.0000000   0.0000000   0.0000000   0.0000000   0.0000000   0.0000000
 NMagM=    2.7928460   0.0000000   0.0000000   2.7928460   2.7928460   2.7928460   2.6288670
 AtZNuc=   1.0000000   6.0000000   6.0000000   1.0000000   1.0000000   1.0000000   9.0000000
 Leave Link  101 at Sat Dec 24 13:32:53 2022, MaxMem=  4294967296 cpu:               6.0 elap:               0.4
 (Enter /n/sw/g16_nehalem/g16/l103.exe)

 GradGradGradGradGradGradGradGradGradGradGradGradGradGradGradGradGradGrad
 Berny optimization.
 Initialization pass.
                           ----------------------------
                           !    Initial Parameters    !
                           ! (Angstroms and Degrees)  !
 --------------------------                            --------------------------
 ! Name  Definition              Value          Derivative Info.                !
 --------------------------------------------------------------------------------
 ! R1    R(1,2)                  1.1026         estimate D2E/DX2                !
 ! R2    R(1,3)                  1.5307         estimate D2E/DX2                !
 ! R3    R(1,6)                  1.5318         estimate D2E/DX2                !
 ! R4    R(1,17)                 1.3431         estimate D2E/DX2                !
 ! R5    R(3,4)                  1.0933         estimate D2E/DX2                !
 ! R6    R(3,5)                  1.0946         estimate D2E/DX2                !
 ! R7    R(3,9)                  1.4863         estimate D2E/DX2                !
 ! R8    R(6,7)                  1.0957         estimate D2E/DX2                !
 ! R9    R(6,8)                  1.0942         estimate D2E/DX2                !
 ! R10   R(6,12)                 1.4811         estimate D2E/DX2                !
 ! R11   R(9,10)                 1.1941         estimate D2E/DX2                !
 ! R12   R(9,11)                 1.0831         estimate D2E/DX2                !
 ! R13   R(12,13)                1.317          estimate D2E/DX2                !
 ! R14   R(12,14)                1.078          estimate D2E/DX2                !
 ! R15   R(13,15)                1.0723         estimate D2E/DX2                !
 ! R16   R(13,16)                1.0715         estimate D2E/DX2                !
 ! A1    A(2,1,3)              108.4116         estimate D2E/DX2                !
 ! A2    A(2,1,6)              108.2818         estimate D2E/DX2                !
 ! A3    A(2,1,17)             106.3624         estimate D2E/DX2                !
 ! A4    A(3,1,6)              111.9808         estimate D2E/DX2                !
 ! A5    A(3,1,17)             110.9112         estimate D2E/DX2                !
 ! A6    A(6,1,17)             110.6702         estimate D2E/DX2                !
 ! A7    A(1,3,4)              108.4897         estimate D2E/DX2                !
 ! A8    A(1,3,5)              109.383          estimate D2E/DX2                !
 ! A9    A(1,3,9)              112.2659         estimate D2E/DX2                !
 ! A10   A(4,3,5)              106.0565         estimate D2E/DX2                !
 ! A11   A(4,3,9)              109.263          estimate D2E/DX2                !
 ! A12   A(5,3,9)              111.1584         estimate D2E/DX2                !
 ! A13   A(1,6,7)              109.3883         estimate D2E/DX2                !
 ! A14   A(1,6,8)              108.7603         estimate D2E/DX2                !
 ! A15   A(1,6,12)             112.6906         estimate D2E/DX2                !
 ! A16   A(7,6,8)              106.2964         estimate D2E/DX2                !
 ! A17   A(7,6,12)             109.9641         estimate D2E/DX2                !
 ! A18   A(8,6,12)             109.5318         estimate D2E/DX2                !
 ! A19   A(3,9,10)             124.0181         estimate D2E/DX2                !
 ! A20   A(3,9,11)             119.8527         estimate D2E/DX2                !
 ! A21   A(10,9,11)            116.1196         estimate D2E/DX2                !
 ! A22   A(6,12,13)            123.0161         estimate D2E/DX2                !
 ! A23   A(6,12,14)            117.0116         estimate D2E/DX2                !
 ! A24   A(13,12,14)           119.9248         estimate D2E/DX2                !
 ! A25   A(12,13,15)           121.8506         estimate D2E/DX2                !
 ! A26   A(12,13,16)           120.9278         estimate D2E/DX2                !
 ! A27   A(15,13,16)           117.2216         estimate D2E/DX2                !
 ! D1    D(2,1,3,4)            179.2187         estimate D2E/DX2                !
 ! D2    D(2,1,3,5)            -65.5159         estimate D2E/DX2                !
 ! D3    D(2,1,3,9)             58.368          estimate D2E/DX2                !
 ! D4    D(6,1,3,4)             59.8193         estimate D2E/DX2                !
 ! D5    D(6,1,3,5)            175.0846         estimate D2E/DX2                !
 ! D6    D(6,1,3,9)            -61.0314         estimate D2E/DX2                !
 ! D7    D(17,1,3,4)           -64.3557         estimate D2E/DX2                !
 ! D8    D(17,1,3,5)            50.9096         estimate D2E/DX2                !
 ! D9    D(17,1,3,9)           174.7935         estimate D2E/DX2                !
 ! D10   D(2,1,6,7)            -64.0208         estimate D2E/DX2                !
 ! D11   D(2,1,6,8)           -179.7235         estimate D2E/DX2                !
 ! D12   D(2,1,6,12)            58.6268         estimate D2E/DX2                !
 ! D13   D(3,1,6,7)             55.4549         estimate D2E/DX2                !
 ! D14   D(3,1,6,8)            -60.2478         estimate D2E/DX2                !
 ! D15   D(3,1,6,12)           178.1025         estimate D2E/DX2                !
 ! D16   D(17,1,6,7)           179.7643         estimate D2E/DX2                !
 ! D17   D(17,1,6,8)            64.0617         estimate D2E/DX2                !
 ! D18   D(17,1,6,12)          -57.5881         estimate D2E/DX2                !
 ! D19   D(1,3,9,10)            51.6601         estimate D2E/DX2                !
 ! D20   D(1,3,9,11)          -129.5168         estimate D2E/DX2                !
 ! D21   D(4,3,9,10)           -68.7441         estimate D2E/DX2                !
 ! D22   D(4,3,9,11)           110.079          estimate D2E/DX2                !
 ! D23   D(5,3,9,10)           174.5491         estimate D2E/DX2                !
 ! D24   D(5,3,9,11)            -6.6278         estimate D2E/DX2                !
 ! D25   D(1,6,12,13)         -163.6245         estimate D2E/DX2                !
 ! D26   D(1,6,12,14)           18.8866         estimate D2E/DX2                !
 ! D27   D(7,6,12,13)          -41.3002         estimate D2E/DX2                !
 ! D28   D(7,6,12,14)          141.2108         estimate D2E/DX2                !
 ! D29   D(8,6,12,13)           75.1641         estimate D2E/DX2                !
 ! D30   D(8,6,12,14)         -102.3249         estimate D2E/DX2                !
 ! D31   D(6,12,13,15)        -178.9205         estimate D2E/DX2                !
 ! D32   D(6,12,13,16)           1.1338         estimate D2E/DX2                !
 ! D33   D(14,12,13,15)         -1.5018         estimate D2E/DX2                !
 ! D34   D(14,12,13,16)        178.5525         estimate D2E/DX2                !
 --------------------------------------------------------------------------------
 Trust Radius=3.00D-01 FncErr=1.00D-07 GrdErr=1.00D-06 EigMax=2.50D+02 EigMin=1.00D-04
 Number of steps in this run=     87 maximum allowed number of steps=    102.
 GradGradGradGradGradGradGradGradGradGradGradGradGradGradGradGradGradGrad

 Leave Link  103 at Sat Dec 24 13:32:53 2022, MaxMem=  4294967296 cpu:               0.7 elap:               0.1
 (Enter /n/sw/g16_nehalem/g16/l202.exe)
                          Input orientation:                          
 ---------------------------------------------------------------------
 Center     Atomic      Atomic             Coordinates (Angstroms)
 Number     Number       Type             X           Y           Z
 ---------------------------------------------------------------------
      1          6           0        0.051443    0.825352    0.260916
      2          1           0        0.047645    0.721994    1.358690
      3          6           0        1.502961    0.954226   -0.207517
      4          1           0        1.509067    1.042732   -1.297165
      5          1           0        1.926396    1.888575    0.174513
      6          6           0       -0.637918   -0.403581   -0.339812
      7          1           0       -0.053022   -1.299829   -0.104988
      8          1           0       -0.634092   -0.311390   -1.430138
      9          6           0        2.330168   -0.213439    0.194239
     10          8           0        2.030163   -1.349488   -0.018443
     11          1           0        3.276926   -0.056258    0.696203
     12          6           0       -2.030005   -0.568565    0.138306
     13          6           0       -2.702800   -1.693958    0.014114
     14          1           0       -2.506025    0.297968    0.568089
     15          1           0       -3.716177   -1.787608    0.351867
     16          1           0       -2.252900   -2.558203   -0.431716
     17          9           0       -0.642690    1.941269   -0.016474
 ---------------------------------------------------------------------
                    Distance matrix (angstroms):
                    1          2          3          4          5
     1  C    0.000000
     2  H    1.102635   0.000000
     3  C    1.530668   2.150554   0.000000
     4  H    2.144654   3.048309   1.093253   0.000000
     5  H    2.157165   2.508564   1.094647   1.747984   0.000000
     6  C    1.531786   2.149842   2.538603   2.760052   3.477674
     7  H    2.158979   2.498050   2.740868   3.057613   3.763261
     8  H    2.149838   3.051263   2.768318   2.538594   3.737760
     9  C    2.505219   2.727800   1.486311   2.115764   2.140533
    10  O    2.953524   3.180866   2.370820   2.762134   3.245466
    11  H    3.372010   3.387155   2.232652   2.882120   2.424554
    12  C    2.508079   2.733405   3.862685   4.145103   4.657462
    13  C    3.740813   3.899955   4.974980   5.191218   5.855743
    14  H    2.629284   2.706673   4.135724   4.489411   4.725600
    15  H    4.585934   4.634452   5.921990   6.167115   6.736795
    16  H    4.151888   4.388365   5.147224   5.279027   6.132525
    17  F    1.343144   1.963229   2.369509   2.660375   2.576714
                    6          7          8          9         10
     6  C    0.000000
     7  H    1.095677   0.000000
     8  H    1.094223   1.752335   0.000000
     9  C    3.021739   2.636167   3.381573   0.000000
    10  O    2.848978   2.085573   3.188853   1.194087   0.000000
    11  H    4.064476   3.643752   4.458977   1.083062   1.933282
    12  C    1.481121   2.121886   2.115355   4.374969   4.137556
    13  C    2.460502   2.681576   2.876962   5.249300   4.745593
    14  H    2.192323   3.003867   2.805060   4.877507   4.861598
    15  H    3.445232   3.723621   3.854090   6.249892   5.774903
    16  H    2.694255   2.555332   2.943731   5.185967   4.469498
    17  F    2.367042   3.295490   2.659509   3.677642   4.239484
                   11         12         13         14         15
    11  H    0.000000
    12  C    5.360711   0.000000
    13  C    6.237341   1.317037   0.000000
    14  H    5.795206   1.078049   2.076867   0.000000
    15  H    7.212463   2.091614   1.072278   2.420918   0.000000
    16  H    6.173403   2.081649   1.071491   3.036674   1.830026
    17  F    4.456614   2.871910   4.178500   2.552287   4.846289
                   16         17
    16  H    0.000000
    17  F    4.796920   0.000000
 Stoichiometry    C6H9FO
 Framework group  C1[X(C6H9FO)]
 Deg. of freedom    45
 Full point group                 C1      NOp   1
 Largest Abelian subgroup         C1      NOp   1
 Largest concise Abelian subgroup C1      NOp   1
                         Standard orientation:                         
 ---------------------------------------------------------------------
 Center     Atomic      Atomic             Coordinates (Angstroms)
 Number     Number       Type             X           Y           Z
 ---------------------------------------------------------------------
      1          6           0       -0.263470    0.822084   -0.250276
      2          1           0       -0.237111    0.737306   -1.349331
      3          6           0       -1.704516    0.603186    0.217071
      4          1           0       -1.729672    0.673093    1.307797
      5          1           0       -2.334305    1.418380   -0.153167
      6          6           0        0.693792   -0.220630    0.335187
      7          1           0        0.333298   -1.225149    0.087212
      8          1           0        0.669996   -0.146617    1.426645
      9          6           0       -2.237695   -0.719416   -0.201935
     10          8           0       -1.681207   -1.757191   -0.003977
     11          1           0       -3.195670   -0.780164   -0.703549
     12          6           0        2.085433   -0.050551   -0.142442
     13          6           0        3.001876   -0.989989   -0.032111
     14          1           0        2.346115    0.908718   -0.559622
     15          1           0        4.008784   -0.840596   -0.369154
     16          1           0        2.766085   -1.941169    0.401193
     17          9           0        0.152179    2.065069    0.043425
 ---------------------------------------------------------------------
 Rotational constants (GHZ):           2.7828252           1.3768872           0.9566787
 Leave Link  202 at Sat Dec 24 13:32:53 2022, MaxMem=  4294967296 cpu:               0.6 elap:               0.1
 (Enter /n/sw/g16_nehalem/g16/l301.exe)
 Standard basis: 6-31G(d) (6D, 7F)
 Ernie: Thresh=  0.10000D-02 Tol=  0.10000D-05 Strict=F.
 There are   138 symmetry adapted cartesian basis functions of A   symmetry.
 There are   138 symmetry adapted basis functions of A   symmetry.
   138 basis functions,   260 primitive gaussians,   138 cartesian basis functions
    31 alpha electrons       31 beta electrons
       nuclear repulsion energy       370.2554740354 Hartrees.
 IExCor= 4639 DFT=T Ex+Corr=wB97XD ExCW=0 ScaHFX=  1.000000
 ScaDFX=  1.000000  1.000000  1.000000  1.000000 ScalE2=  1.000000  1.000000
 IRadAn=      5 IRanWt=     -1 IRanGd=            0 ICorTp=0 IEmpDi=121
 HFx  wShort=  0.000000 wLong=  0.200000 cFull=  0.222036 cShort=  0.000000 cLong=  0.777964
 DFx  wShort=  0.000000 wLong=  0.200000 cFull=  0.000000 cShort=  0.000000 cLong=  1.000000
 NAtoms=   17 NActive=   17 NUniq=   17 SFac= 1.00D+00 NAtFMM=   60 NAOKFM=F Big=F
 Integral buffers will be    131072 words long.
 Raffenetti 2 integral format.
 Two-electron integral symmetry is turned on.
 R6Disp:  Grimme-D2 Dispersion energy=       -0.0088685702 Hartrees.
 Nuclear repulsion after empirical dispersion term =      370.2466054652 Hartrees.
 Leave Link  301 at Sat Dec 24 13:32:53 2022, MaxMem=  4294967296 cpu:               1.1 elap:               0.1
 (Enter /n/sw/g16_nehalem/g16/l302.exe)
 NPDir=0 NMtPBC=     1 NCelOv=     1 NCel=       1 NClECP=     1 NCelD=      1
         NCelK=      1 NCelE2=     1 NClLst=     1 CellRange=     0.0.
 One-electron integrals computed using PRISM.
 One-electron integral symmetry used in STVInt
 NBasis=   138 RedAO= T EigKep=  2.39D-03  NBF=   138
 NBsUse=   138 1.00D-06 EigRej= -1.00D+00 NBFU=   138
 Precomputing XC quadrature grid using
 IXCGrd= 4 IRadAn=           5 IRanWt=          -1 IRanGd=           0 AccXCQ= 0.00D+00.
 Generated NRdTot=       0 NPtTot=           0 NUsed=           0 NTot=          32
 NSgBfM=   138   138   138   138   138 MxSgAt=    17 MxSgA2=    17.
 Leave Link  302 at Sat Dec 24 13:32:54 2022, MaxMem=  4294967296 cpu:               3.9 elap:               0.3
 (Enter /n/sw/g16_nehalem/g16/l303.exe)
 DipDrv:  MaxL=1.
 Leave Link  303 at Sat Dec 24 13:32:54 2022, MaxMem=  4294967296 cpu:               1.1 elap:               0.1
 (Enter /n/sw/g16_nehalem/g16/l401.exe)
 ExpMin= 1.61D-01 ExpMax= 7.00D+03 ExpMxC= 1.05D+03 IAcc=3 IRadAn=         5 AccDes= 0.00D+00
 Harris functional with IExCor= 4639 and IRadAn=       5 diagonalized for initial guess.
 HarFok:  IExCor= 4639 AccDes= 0.00D+00 IRadAn=         5 IDoV= 1 UseB2=F ITyADJ=14
 ICtDFT=  3500011 ScaDFX=  1.000000  1.000000  1.000000  1.000000
 FoFCou: FMM=F IPFlag=           0 FMFlag=      100000 FMFlg1=           0
         NFxFlg=           0 DoJE=T BraDBF=F KetDBF=T FulRan=T
         wScrn=  0.000000 ICntrl=       500 IOpCl=  0 I1Cent=   200000004 NGrid=           0
         NMat0=    1 NMatS0=      1 NMatT0=    0 NMatD0=    1 NMtDS0=    0 NMtDT0=    0
 Petite list used in FoFCou.
 Harris En= -392.166561916830    
 JPrj=0 DoOrth=F DoCkMO=F.
 Leave Link  401 at Sat Dec 24 13:32:54 2022, MaxMem=  4294967296 cpu:              10.0 elap:               0.7
 (Enter /n/sw/g16_nehalem/g16/l502.exe)
 Integral symmetry usage will be decided dynamically.
 Closed shell SCF:
 Using DIIS extrapolation, IDIIS=  1040.
 NGot=  4294967296 LenX=  4294925285 LenY=  4294905800
 Requested convergence on RMS density matrix=1.00D-08 within 128 cycles.
 Requested convergence on MAX density matrix=1.00D-06.
 Requested convergence on             energy=1.00D-06.
 No special actions if energy rises.
 Fock matrices will be formed incrementally for  20 cycles.
 Integral accuracy reduced to 1.0D-05 until final iterations.

 Cycle   1  Pass 0  IDiag  1:
 FoFJK:  IHMeth= 1 ICntrl=       0 DoSepK=T KAlg= 0 I1Cent=           0 FoldK=F
 IRaf=         1 NMat=       1 IRICut=       1 DoRegI=T DoRafI=F ISym2E= 0 IDoP0=0 IntGTp=1.
 FoFCou: FMM=F IPFlag=           0 FMFlag=      100000 FMFlg1=           0
         NFxFlg=           0 DoJE=T BraDBF=F KetDBF=F FulRan=T
         wScrn=  0.000000 ICntrl=       500 IOpCl=  0 I1Cent=           0 NGrid=           0
         NMat0=    1 NMatS0=      1 NMatT0=    0 NMatD0=    1 NMtDS0=    0 NMtDT0=    0
 Symmetry not used in FoFCou.
 E= -408.804082858642    
 DIIS: error= 6.33D-02 at cycle   1 NSaved=   1.
 NSaved= 1 IEnMin= 1 EnMin= -408.804082858642     IErMin= 1 ErrMin= 6.33D-02
 ErrMax= 6.33D-02  0.00D+00 EMaxC= 1.00D-01 BMatC= 4.12D-01 BMatP= 4.12D-01
 IDIUse=3 WtCom= 3.67D-01 WtEn= 6.33D-01
 Coeff-Com:  0.100D+01
 Coeff-En:   0.100D+01
 Coeff:      0.100D+01
 Gap=     0.495 Goal=   None    Shift=    0.000
 GapD=    0.495 DampG=2.000 DampE=0.500 DampFc=1.0000 IDamp=-1.
 RMSDP=5.17D-03 MaxDP=1.14D-01              OVMax= 8.91D-02

 Cycle   2  Pass 0  IDiag  1:
 RMSU=  5.14D-03    CP:  9.80D-01
 E= -408.854599668820     Delta-E=       -0.050516810178 Rises=F Damp=F
 DIIS: error= 3.06D-02 at cycle   2 NSaved=   2.
 NSaved= 2 IEnMin= 2 EnMin= -408.854599668820     IErMin= 2 ErrMin= 3.06D-02
 ErrMax= 3.06D-02  0.00D+00 EMaxC= 1.00D-01 BMatC= 1.39D-01 BMatP= 4.12D-01
 IDIUse=3 WtCom= 6.94D-01 WtEn= 3.06D-01
 Coeff-Com:  0.335D+00 0.665D+00
 Coeff-En:   0.357D+00 0.643D+00
 Coeff:      0.342D+00 0.658D+00
 Gap=     0.371 Goal=   None    Shift=    0.000
 RMSDP=2.51D-03 MaxDP=8.34D-02 DE=-5.05D-02 OVMax= 6.80D-02

 Cycle   3  Pass 0  IDiag  1:
 RMSU=  1.38D-03    CP:  9.93D-01  5.99D-01
 E= -408.930257388855     Delta-E=       -0.075657720034 Rises=F Damp=F
 DIIS: error= 1.08D-02 at cycle   3 NSaved=   3.
 NSaved= 3 IEnMin= 3 EnMin= -408.930257388855     IErMin= 3 ErrMin= 1.08D-02
 ErrMax= 1.08D-02  0.00D+00 EMaxC= 1.00D-01 BMatC= 2.04D-02 BMatP= 1.39D-01
 IDIUse=3 WtCom= 8.92D-01 WtEn= 1.08D-01
 Coeff-Com:  0.193D-01 0.279D+00 0.702D+00
 Coeff-En:   0.000D+00 0.514D-01 0.949D+00
 Coeff:      0.172D-01 0.255D+00 0.728D+00
 Gap=     0.377 Goal=   None    Shift=    0.000
 RMSDP=9.58D-04 MaxDP=2.39D-02 DE=-7.57D-02 OVMax= 2.28D-02

 Cycle   4  Pass 0  IDiag  1:
 RMSU=  4.79D-04    CP:  9.87D-01  7.35D-01  7.01D-01
 E= -408.941849123853     Delta-E=       -0.011591734998 Rises=F Damp=F
 DIIS: error= 2.51D-03 at cycle   4 NSaved=   4.
 NSaved= 4 IEnMin= 4 EnMin= -408.941849123853     IErMin= 4 ErrMin= 2.51D-03
 ErrMax= 2.51D-03  0.00D+00 EMaxC= 1.00D-01 BMatC= 1.80D-03 BMatP= 2.04D-02
 IDIUse=3 WtCom= 9.75D-01 WtEn= 2.51D-02
 Coeff-Com:  0.198D-02 0.114D+00 0.383D+00 0.500D+00
 Coeff-En:   0.000D+00 0.000D+00 0.000D+00 0.100D+01
 Coeff:      0.193D-02 0.111D+00 0.374D+00 0.513D+00
 Gap=     0.367 Goal=   None    Shift=    0.000
 RMSDP=2.23D-04 MaxDP=8.47D-03 DE=-1.16D-02 OVMax= 9.72D-03

 Cycle   5  Pass 0  IDiag  1:
 RMSU=  1.20D-04    CP:  9.87D-01  7.31D-01  7.69D-01  6.65D-01
 E= -408.943146463875     Delta-E=       -0.001297340022 Rises=F Damp=F
 DIIS: error= 4.64D-04 at cycle   5 NSaved=   5.
 NSaved= 5 IEnMin= 5 EnMin= -408.943146463875     IErMin= 5 ErrMin= 4.64D-04
 ErrMax= 4.64D-04  0.00D+00 EMaxC= 1.00D-01 BMatC= 5.69D-05 BMatP= 1.80D-03
 IDIUse=3 WtCom= 9.95D-01 WtEn= 4.64D-03
 Coeff-Com: -0.503D-03 0.274D-01 0.112D+00 0.221D+00 0.640D+00
 Coeff-En:   0.000D+00 0.000D+00 0.000D+00 0.000D+00 0.100D+01
 Coeff:     -0.500D-03 0.273D-01 0.111D+00 0.220D+00 0.642D+00
 Gap=     0.366 Goal=   None    Shift=    0.000
 RMSDP=5.80D-05 MaxDP=1.65D-03 DE=-1.30D-03 OVMax= 1.85D-03

 Cycle   6  Pass 0  IDiag  1:
 RMSU=  4.43D-05    CP:  9.87D-01  7.34D-01  7.74D-01  7.22D-01  8.55D-01
 E= -408.943185320780     Delta-E=       -0.000038856906 Rises=F Damp=F
 DIIS: error= 9.72D-05 at cycle   6 NSaved=   6.
 NSaved= 6 IEnMin= 6 EnMin= -408.943185320780     IErMin= 6 ErrMin= 9.72D-05
 ErrMax= 9.72D-05  0.00D+00 EMaxC= 1.00D-01 BMatC= 4.47D-06 BMatP= 5.69D-05
 IDIUse=1 WtCom= 1.00D+00 WtEn= 0.00D+00
 Coeff-Com: -0.434D-03-0.112D-01-0.286D-01-0.102D-01 0.219D+00 0.831D+00
 Coeff:     -0.434D-03-0.112D-01-0.286D-01-0.102D-01 0.219D+00 0.831D+00
 Gap=     0.366 Goal=   None    Shift=    0.000
 RMSDP=2.26D-05 MaxDP=4.58D-04 DE=-3.89D-05 OVMax= 5.44D-04

 Cycle   7  Pass 0  IDiag  1:
 RMSU=  1.00D-05    CP:  9.87D-01  7.35D-01  7.79D-01  7.46D-01  9.63D-01
                    CP:  9.65D-01
 E= -408.943190096874     Delta-E=       -0.000004776094 Rises=F Damp=F
 DIIS: error= 2.01D-05 at cycle   7 NSaved=   7.
 NSaved= 7 IEnMin= 7 EnMin= -408.943190096874     IErMin= 7 ErrMin= 2.01D-05
 ErrMax= 2.01D-05  0.00D+00 EMaxC= 1.00D-01 BMatC= 1.44D-07 BMatP= 4.47D-06
 IDIUse=1 WtCom= 1.00D+00 WtEn= 0.00D+00
 Coeff-Com: -0.751D-04-0.391D-02-0.114D-01-0.954D-02 0.242D-01 0.206D+00
 Coeff-Com:  0.795D+00
 Coeff:     -0.751D-04-0.391D-02-0.114D-01-0.954D-02 0.242D-01 0.206D+00
 Coeff:      0.795D+00
 Gap=     0.367 Goal=   None    Shift=    0.000
 RMSDP=4.97D-06 MaxDP=7.69D-05 DE=-4.78D-06 OVMax= 1.48D-04

 Initial convergence to 1.0D-05 achieved.  Increase integral accuracy.
 Cycle   8  Pass 1  IDiag  1:
 E= -408.943194197599     Delta-E=       -0.000004100725 Rises=F Damp=F
 DIIS: error= 1.61D-05 at cycle   1 NSaved=   1.
 NSaved= 1 IEnMin= 1 EnMin= -408.943194197599     IErMin= 1 ErrMin= 1.61D-05
 ErrMax= 1.61D-05  0.00D+00 EMaxC= 1.00D-01 BMatC= 1.34D-07 BMatP= 1.34D-07
 IDIUse=1 WtCom= 1.00D+00 WtEn= 0.00D+00
 Coeff-Com:  0.100D+01
 Coeff:      0.100D+01
 Gap=     0.367 Goal=   None    Shift=    0.000
 RMSDP=4.97D-06 MaxDP=7.69D-05 DE=-4.10D-06 OVMax= 1.07D-04

 Cycle   9  Pass 1  IDiag  1:
 RMSU=  3.99D-06    CP:  1.00D+00
 E= -408.943194330025     Delta-E=       -0.000000132426 Rises=F Damp=F
 DIIS: error= 5.34D-06 at cycle   2 NSaved=   2.
 NSaved= 2 IEnMin= 2 EnMin= -408.943194330025     IErMin= 2 ErrMin= 5.34D-06
 ErrMax= 5.34D-06  0.00D+00 EMaxC= 1.00D-01 BMatC= 1.05D-08 BMatP= 1.34D-07
 IDIUse=1 WtCom= 1.00D+00 WtEn= 0.00D+00
 Coeff-Com:  0.544D-01 0.946D+00
 Coeff:      0.544D-01 0.946D+00
 Gap=     0.367 Goal=   None    Shift=    0.000
 RMSDP=1.31D-06 MaxDP=2.50D-05 DE=-1.32D-07 OVMax= 5.97D-05

 Cycle  10  Pass 1  IDiag  1:
 RMSU=  1.28D-06    CP:  1.00D+00  1.07D+00
 E= -408.943194339274     Delta-E=       -0.000000009249 Rises=F Damp=F
 DIIS: error= 3.87D-06 at cycle   3 NSaved=   3.
 NSaved= 3 IEnMin= 3 EnMin= -408.943194339274     IErMin= 3 ErrMin= 3.87D-06
 ErrMax= 3.87D-06  0.00D+00 EMaxC= 1.00D-01 BMatC= 6.32D-09 BMatP= 1.05D-08
 IDIUse=1 WtCom= 1.00D+00 WtEn= 0.00D+00
 Coeff-Com: -0.550D-01 0.436D+00 0.619D+00
 Coeff:     -0.550D-01 0.436D+00 0.619D+00
 Gap=     0.367 Goal=   None    Shift=    0.000
 RMSDP=6.04D-07 MaxDP=1.30D-05 DE=-9.25D-09 OVMax= 2.72D-05

 Cycle  11  Pass 1  IDiag  1:
 RMSU=  4.37D-07    CP:  1.00D+00  1.15D+00  7.91D-01
 E= -408.943194345807     Delta-E=       -0.000000006532 Rises=F Damp=F
 DIIS: error= 9.33D-07 at cycle   4 NSaved=   4.
 NSaved= 4 IEnMin= 4 EnMin= -408.943194345807     IErMin= 4 ErrMin= 9.33D-07
 ErrMax= 9.33D-07  0.00D+00 EMaxC= 1.00D-01 BMatC= 2.07D-10 BMatP= 6.32D-09
 IDIUse=1 WtCom= 1.00D+00 WtEn= 0.00D+00
 Coeff-Com: -0.158D-01 0.633D-01 0.142D+00 0.810D+00
 Coeff:     -0.158D-01 0.633D-01 0.142D+00 0.810D+00
 Gap=     0.367 Goal=   None    Shift=    0.000
 RMSDP=2.21D-07 MaxDP=4.15D-06 DE=-6.53D-09 OVMax= 1.49D-05

 Cycle  12  Pass 1  IDiag  1:
 RMSU=  1.46D-07    CP:  1.00D+00  1.18D+00  8.65D-01  1.20D+00
 E= -408.943194346348     Delta-E=       -0.000000000541 Rises=F Damp=F
 DIIS: error= 7.23D-07 at cycle   5 NSaved=   5.
 NSaved= 5 IEnMin= 5 EnMin= -408.943194346348     IErMin= 5 ErrMin= 7.23D-07
 ErrMax= 7.23D-07  0.00D+00 EMaxC= 1.00D-01 BMatC= 6.28D-11 BMatP= 2.07D-10
 IDIUse=1 WtCom= 1.00D+00 WtEn= 0.00D+00
 Coeff-Com:  0.101D-01-0.974D-01-0.131D+00 0.255D+00 0.964D+00
 Coeff:      0.101D-01-0.974D-01-0.131D+00 0.255D+00 0.964D+00
 Gap=     0.367 Goal=   None    Shift=    0.000
 RMSDP=1.76D-07 MaxDP=4.09D-06 DE=-5.41D-10 OVMax= 1.43D-05

 Cycle  13  Pass 1  IDiag  1:
 RMSU=  6.79D-08    CP:  1.00D+00  1.19D+00  9.20D-01  1.49D+00  1.23D+00
 E= -408.943194346598     Delta-E=       -0.000000000250 Rises=F Damp=F
 DIIS: error= 2.67D-07 at cycle   6 NSaved=   6.
 NSaved= 6 IEnMin= 6 EnMin= -408.943194346598     IErMin= 6 ErrMin= 2.67D-07
 ErrMax= 2.67D-07  0.00D+00 EMaxC= 1.00D-01 BMatC= 5.72D-12 BMatP= 6.28D-11
 IDIUse=1 WtCom= 1.00D+00 WtEn= 0.00D+00
 Coeff-Com:  0.228D-02-0.110D-01-0.236D-01-0.901D-01 0.314D-01 0.109D+01
 Coeff:      0.228D-02-0.110D-01-0.236D-01-0.901D-01 0.314D-01 0.109D+01
 Gap=     0.367 Goal=   None    Shift=    0.000
 RMSDP=7.26D-08 MaxDP=1.76D-06 DE=-2.50D-10 OVMax= 6.74D-06

 Cycle  14  Pass 1  IDiag  1:
 RMSU=  2.39D-08    CP:  1.00D+00  1.20D+00  9.36D-01  1.58D+00  1.46D+00
                    CP:  1.52D+00
 E= -408.943194346638     Delta-E=       -0.000000000041 Rises=F Damp=F
 DIIS: error= 1.20D-07 at cycle   7 NSaved=   7.
 NSaved= 7 IEnMin= 7 EnMin= -408.943194346638     IErMin= 7 ErrMin= 1.20D-07
 ErrMax= 1.20D-07  0.00D+00 EMaxC= 1.00D-01 BMatC= 1.25D-12 BMatP= 5.72D-12
 IDIUse=1 WtCom= 1.00D+00 WtEn= 0.00D+00
 Coeff-Com: -0.161D-02 0.185D-01 0.235D-01-0.776D-01-0.193D+00 0.257D+00
 Coeff-Com:  0.973D+00
 Coeff:     -0.161D-02 0.185D-01 0.235D-01-0.776D-01-0.193D+00 0.257D+00
 Coeff:      0.973D+00
 Gap=     0.367 Goal=   None    Shift=    0.000
 RMSDP=3.25D-08 MaxDP=7.07D-07 DE=-4.06D-11 OVMax= 3.05D-06

 Cycle  15  Pass 1  IDiag  1:
 RMSU=  8.45D-09    CP:  1.00D+00  1.20D+00  9.41D-01  1.61D+00  1.55D+00
                    CP:  1.86D+00  1.23D+00
 E= -408.943194346642     Delta-E=       -0.000000000004 Rises=F Damp=F
 DIIS: error= 2.66D-08 at cycle   8 NSaved=   8.
 NSaved= 8 IEnMin= 8 EnMin= -408.943194346642     IErMin= 8 ErrMin= 2.66D-08
 ErrMax= 2.66D-08  0.00D+00 EMaxC= 1.00D-01 BMatC= 1.35D-13 BMatP= 1.25D-12
 IDIUse=1 WtCom= 1.00D+00 WtEn= 0.00D+00
 Coeff-Com: -0.569D-03 0.489D-02 0.791D-02-0.397D-02-0.386D-01-0.968D-01
 Coeff-Com:  0.179D+00 0.949D+00
 Coeff:     -0.569D-03 0.489D-02 0.791D-02-0.397D-02-0.386D-01-0.968D-01
 Coeff:      0.179D+00 0.949D+00
 Gap=     0.367 Goal=   None    Shift=    0.000
 RMSDP=9.70D-09 MaxDP=1.86D-07 DE=-3.64D-12 OVMax= 8.13D-07

 SCF Done:  E(RwB97XD) =  -408.943194347     A.U. after   15 cycles
            NFock= 15  Conv=0.97D-08     -V/T= 2.0075
 KE= 4.059102597589D+02 PE=-1.697611004763D+03 EE= 5.125109451920D+02
 Leave Link  502 at Sat Dec 24 13:33:04 2022, MaxMem=  4294967296 cpu:             150.3 elap:               9.4
 (Enter /n/sw/g16_nehalem/g16/l601.exe)
 Copying SCF densities to generalized density rwf, IOpCl= 0 IROHF=0.

 **********************************************************************

            Population analysis using the SCF density.

 **********************************************************************

 Orbital symmetries:
       Occupied  (A) (A) (A) (A) (A) (A) (A) (A) (A) (A) (A) (A)
                 (A) (A) (A) (A) (A) (A) (A) (A) (A) (A) (A) (A)
                 (A) (A) (A) (A) (A) (A) (A)
       Virtual   (A) (A) (A) (A) (A) (A) (A) (A) (A) (A) (A) (A)
                 (A) (A) (A) (A) (A) (A) (A) (A) (A) (A) (A) (A)
                 (A) (A) (A) (A) (A) (A) (A) (A) (A) (A) (A) (A)
                 (A) (A) (A) (A) (A) (A) (A) (A) (A) (A) (A) (A)
                 (A) (A) (A) (A) (A) (A) (A) (A) (A) (A) (A) (A)
                 (A) (A) (A) (A) (A) (A) (A) (A) (A) (A) (A) (A)
                 (A) (A) (A) (A) (A) (A) (A) (A) (A) (A) (A) (A)
                 (A) (A) (A) (A) (A) (A) (A) (A) (A) (A) (A) (A)
                 (A) (A) (A) (A) (A) (A) (A) (A) (A) (A) (A)
 The electronic state is 1-A.
 Alpha  occ. eigenvalues --  -24.81481 -19.28345 -10.39940 -10.38408 -10.31655
 Alpha  occ. eigenvalues --  -10.29002 -10.28851 -10.27653  -1.31333  -1.17286
 Alpha  occ. eigenvalues --   -0.91756  -0.87949  -0.80559  -0.72531  -0.68281
 Alpha  occ. eigenvalues --   -0.64631  -0.61736  -0.59585  -0.56732  -0.56114
 Alpha  occ. eigenvalues --   -0.53390  -0.51616  -0.51049  -0.48665  -0.48551
 Alpha  occ. eigenvalues --   -0.46878  -0.42767  -0.40710  -0.40314  -0.34719
 Alpha  occ. eigenvalues --   -0.32676
 Alpha virt. eigenvalues --    0.03983   0.10115   0.18151   0.19777   0.20315
 Alpha virt. eigenvalues --    0.22006   0.23080   0.25143   0.25366   0.26573
 Alpha virt. eigenvalues --    0.29628   0.30606   0.31728   0.34844   0.35743
 Alpha virt. eigenvalues --    0.38793   0.41964   0.44064   0.57367   0.61044
 Alpha virt. eigenvalues --    0.62782   0.63627   0.64303   0.66879   0.69304
 Alpha virt. eigenvalues --    0.71294   0.74142   0.75101   0.75594   0.77827
 Alpha virt. eigenvalues --    0.78843   0.80001   0.82788   0.86110   0.92200
 Alpha virt. eigenvalues --    0.94338   0.94419   0.95915   0.97141   0.98300
 Alpha virt. eigenvalues --    1.00558   1.02475   1.03223   1.04319   1.07226
 Alpha virt. eigenvalues --    1.10408   1.12556   1.16727   1.22827   1.24874
 Alpha virt. eigenvalues --    1.26318   1.33216   1.36359   1.41092   1.44098
 Alpha virt. eigenvalues --    1.49025   1.51036   1.53725   1.56688   1.60897
 Alpha virt. eigenvalues --    1.63628   1.68401   1.73874   1.76535   1.81778
 Alpha virt. eigenvalues --    1.85255   1.87118   1.90598   1.91902   1.93381
 Alpha virt. eigenvalues --    1.95986   2.02489   2.03844   2.05383   2.10173
 Alpha virt. eigenvalues --    2.11225   2.16713   2.20219   2.21979   2.23503
 Alpha virt. eigenvalues --    2.27110   2.31449   2.33638   2.36759   2.38520
 Alpha virt. eigenvalues --    2.43902   2.54277   2.60052   2.61741   2.63820
 Alpha virt. eigenvalues --    2.68310   2.74800   2.77873   2.86753   2.93476
 Alpha virt. eigenvalues --    2.98825   3.04889   3.10071   3.18718   3.99781
 Alpha virt. eigenvalues --    4.19354   4.24191   4.32680   4.41428   4.52348
 Alpha virt. eigenvalues --    4.67991   4.76370
          Condensed to atoms (all electrons):
               1          2          3          4          5          6
     1  C    4.622713   0.386781   0.334967  -0.019429  -0.029773   0.353118
     2  H    0.386781   0.634347  -0.068416   0.005691  -0.005238  -0.063209
     3  C    0.334967  -0.068416   5.507327   0.353560   0.351277  -0.051988
     4  H   -0.019429   0.005691   0.353560   0.500093  -0.029201  -0.009777
     5  H   -0.029773  -0.005238   0.351277  -0.029201   0.530482   0.005893
     6  C    0.353118  -0.063209  -0.051988  -0.009777   0.005893   5.280192
     7  H   -0.019031   0.001387  -0.004896   0.000807  -0.000137   0.349404
     8  H   -0.035260   0.005990  -0.007055   0.005482  -0.000078   0.368581
     9  C   -0.016558   0.003188   0.235777  -0.019859  -0.017085  -0.002056
    10  O   -0.005359   0.000103  -0.080901  -0.002054   0.003232  -0.012994
    11  H    0.001459   0.000084  -0.099369   0.003192   0.002167   0.000007
    12  C   -0.032041  -0.003915   0.006348   0.000030  -0.000074   0.338247
    13  C    0.002361   0.000407  -0.000114  -0.000003   0.000002  -0.045377
    14  H   -0.004084   0.000155   0.000497   0.000003  -0.000006  -0.058022
    15  H   -0.000112  -0.000005   0.000002   0.000000   0.000000   0.004352
    16  H    0.000183   0.000000   0.000002   0.000000   0.000000  -0.008935
    17  F    0.254086  -0.038541  -0.030383   0.000598   0.001341  -0.047304
               7          8          9         10         11         12
     1  C   -0.019031  -0.035260  -0.016558  -0.005359   0.001459  -0.032041
     2  H    0.001387   0.005990   0.003188   0.000103   0.000084  -0.003915
     3  C   -0.004896  -0.007055   0.235777  -0.080901  -0.099369   0.006348
     4  H    0.000807   0.005482  -0.019859  -0.002054   0.003192   0.000030
     5  H   -0.000137  -0.000078  -0.017085   0.003232   0.002167  -0.000074
     6  C    0.349404   0.368581  -0.002056  -0.012994   0.000007   0.338247
     7  H    0.478563  -0.021757  -0.001457   0.020032   0.000690  -0.031394
     8  H   -0.021757   0.549462   0.000010  -0.000011  -0.000020  -0.038668
     9  C   -0.001457   0.000010   4.667010   0.544988   0.378340  -0.000328
    10  O    0.020032  -0.000011   0.544988   7.963659  -0.055331   0.001079
    11  H    0.000690  -0.000020   0.378340  -0.055331   0.619897   0.000025
    12  C   -0.031394  -0.038668  -0.000328   0.001079   0.000025   4.865910
    13  C   -0.003826  -0.006462  -0.000011  -0.000019   0.000000   0.661040
    14  H    0.003418   0.002476  -0.000029  -0.000006   0.000000   0.382571
    15  H    0.000066  -0.000135   0.000000   0.000000   0.000000  -0.026311
    16  H    0.002896   0.000921  -0.000001  -0.000009   0.000000  -0.040050
    17  F    0.001823   0.000362   0.001577  -0.000001  -0.000030   0.003952
              13         14         15         16         17
     1  C    0.002361  -0.004084  -0.000112   0.000183   0.254086
     2  H    0.000407   0.000155  -0.000005   0.000000  -0.038541
     3  C   -0.000114   0.000497   0.000002   0.000002  -0.030383
     4  H   -0.000003   0.000003   0.000000   0.000000   0.000598
     5  H    0.000002  -0.000006   0.000000   0.000000   0.001341
     6  C   -0.045377  -0.058022   0.004352  -0.008935  -0.047304
     7  H   -0.003826   0.003418   0.000066   0.002896   0.001823
     8  H   -0.006462   0.002476  -0.000135   0.000921   0.000362
     9  C   -0.000011  -0.000029   0.000000  -0.000001   0.001577
    10  O   -0.000019  -0.000006   0.000000  -0.000009  -0.000001
    11  H    0.000000   0.000000   0.000000   0.000000  -0.000030
    12  C    0.661040   0.382571  -0.026311  -0.040050   0.003952
    13  C    5.065688  -0.040228   0.377718   0.382884   0.000410
    14  H   -0.040228   0.540914  -0.006100   0.004971   0.006912
    15  H    0.377718  -0.006100   0.522169  -0.035784   0.000000
    16  H    0.382884   0.004971  -0.035784   0.531913  -0.000001
    17  F    0.000410   0.006912   0.000000  -0.000001   9.153026
 Mulliken charges:
               1
     1  C    0.205978
     2  H    0.141191
     3  C   -0.446636
     4  H    0.210867
     5  H    0.187200
     6  C   -0.400132
     7  H    0.223409
     8  H    0.176162
     9  C    0.226493
    10  O   -0.376409
    11  H    0.148887
    12  C   -0.086420
    13  C   -0.394468
    14  H    0.166557
    15  H    0.164140
    16  H    0.161009
    17  F   -0.307829
 Sum of Mulliken charges =   0.00000
 Mulliken charges with hydrogens summed into heavy atoms:
               1
     1  C    0.347169
     3  C   -0.048570
     6  C   -0.000560
     9  C    0.375381
    10  O   -0.376409
    12  C    0.080137
    13  C   -0.069319
    17  F   -0.307829
 Electronic spatial extent (au):  <R**2>=           1175.9000
 Charge=              0.0000 electrons
 Dipole moment (field-independent basis, Debye):
    X=             -1.6584    Y=              0.8761    Z=             -0.2978  Tot=              1.8991
 Quadrupole moment (field-independent basis, Debye-Ang):
   XX=            -41.9138   YY=            -53.9474   ZZ=            -46.0705
   XY=             -3.6873   XZ=              0.0901   YZ=             -0.7983
 Traceless Quadrupole moment (field-independent basis, Debye-Ang):
   XX=              5.3968   YY=             -6.6368   ZZ=              1.2401
   XY=             -3.6873   XZ=              0.0901   YZ=             -0.7983
 Octapole moment (field-independent basis, Debye-Ang**2):
  XXX=            -18.1757  YYY=             10.4706  ZZZ=              2.0438  XYY=              5.5584
  XXY=              6.5380  XXZ=             -4.8081  XZZ=             -7.1784  YZZ=              4.5236
  YYZ=              0.3627  XYZ=             -2.6008
 Hexadecapole moment (field-independent basis, Debye-Ang**3):
 XXXX=           -928.8609 YYYY=           -416.4330 ZZZZ=            -78.1479 XXXY=              8.4058
 XXXZ=             -8.0810 YYYX=             -9.0164 YYYZ=             -3.2566 ZZZX=              0.0896
 ZZZY=              0.5788 XXYY=           -235.8114 XXZZ=           -185.4850 YYZZ=            -77.7583
 XXYZ=             -2.4636 YYXZ=              2.7776 ZZXY=              7.5281
 N-N= 3.702466054652D+02 E-N=-1.697611003564D+03  KE= 4.059102597589D+02
 No NMR shielding tensors so no spin-rotation constants.
 Leave Link  601 at Sat Dec 24 13:33:04 2022, MaxMem=  4294967296 cpu:               2.2 elap:               0.2
 (Enter /n/sw/g16_nehalem/g16/l701.exe)
 ... and contract with generalized density number  0.
 Compute integral first derivatives.
 R6Disp: Adding Grimme-D2 dispersion energy 1st derivatives to the gradient.
 Leave Link  701 at Sat Dec 24 13:33:04 2022, MaxMem=  4294967296 cpu:               4.2 elap:               0.3
 (Enter /n/sw/g16_nehalem/g16/l702.exe)
 L702 exits ... SP integral derivatives will be done elsewhere.
 Leave Link  702 at Sat Dec 24 13:33:05 2022, MaxMem=  4294967296 cpu:               0.9 elap:               0.1
 (Enter /n/sw/g16_nehalem/g16/l703.exe)
 Integral derivatives from FoFJK, PRISM(SPDF).
 Compute integral first derivatives, UseDBF=F ICtDFT=           0.
 Calling FoFJK, ICntrl=      2127 FMM=F ISym2X=0 I1Cent= 0 IOpClX= 0 NMat=1 NMatS=1 NMatT=0.
 FoFJK:  IHMeth= 1 ICntrl=    2127 DoSepK=T KAlg= 0 I1Cent=           0 FoldK=F
 IRaf=         1 NMat=       1 IRICut=       1 DoRegI=T DoRafI=F ISym2E= 0 IDoP0=0 IntGTp=1.
 FoFCou: FMM=F IPFlag=           0 FMFlag=      100000 FMFlg1=         800
         NFxFlg=           0 DoJE=F BraDBF=F KetDBF=F FulRan=T
         wScrn=  0.000000 ICntrl=      2527 IOpCl=  0 I1Cent=           0 NGrid=           0
         NMat0=    1 NMatS0=      1 NMatT0=    0 NMatD0=    1 NMtDS0=    0 NMtDT0=    0
 Symmetry not used in FoFCou.
 Leave Link  703 at Sat Dec 24 13:33:06 2022, MaxMem=  4294967296 cpu:              27.4 elap:               1.7
 (Enter /n/sw/g16_nehalem/g16/l716.exe)
 Dipole        =-6.52467385D-01 3.44692499D-01-1.17175705D-01
 ***** Axes restored to original set *****
 -------------------------------------------------------------------
 Center     Atomic                   Forces (Hartrees/Bohr)
 Number     Number              X              Y              Z
 -------------------------------------------------------------------
      1        6           0.012899840   -0.039052311    0.015020082
      2        1           0.000848947   -0.000910861   -0.000752707
      3        6          -0.008406895    0.019882961   -0.001589031
      4        1           0.000412218   -0.002174965   -0.003902877
      5        1           0.000865226   -0.000660331    0.001818075
      6        6           0.007744706    0.004050570   -0.000641523
      7        1          -0.001549052    0.004577803   -0.001974575
      8        1           0.001736385    0.002449388   -0.003561021
      9        6           0.009803852    0.006196588    0.000867584
     10        8          -0.006490446   -0.032307876   -0.006546972
     11        1           0.013671204    0.012997649    0.008129185
     12        6          -0.003887430    0.006392366    0.000794606
     13        6          -0.005258438   -0.003054407    0.002947263
     14        1          -0.004345155    0.006056634    0.003366232
     15        1          -0.009604689   -0.001168976    0.002527254
     16        1           0.004194680   -0.010712131   -0.004412271
     17        9          -0.012634952    0.027437902   -0.012089304
 -------------------------------------------------------------------
 Cartesian Forces:  Max     0.039052311 RMS     0.010575321
 Leave Link  716 at Sat Dec 24 13:33:06 2022, MaxMem=  4294967296 cpu:               0.7 elap:               0.1
 (Enter /n/sw/g16_nehalem/g16/l103.exe)

 GradGradGradGradGradGradGradGradGradGradGradGradGradGradGradGradGradGrad
 Berny optimization.
 FormGI is forming the generalized inverse of G from B-inverse, IUseBI=4.
 Internal  Forces:  Max     0.033534356 RMS     0.009144122
 Search for a local minimum.
 Step number   1 out of a maximum of   87
 All quantities printed in internal units (Hartrees-Bohrs-Radians)
 RMS Force = .91441D-02 SwitMx=.10000D-02 MixMth= 1
 Mixed Optimization -- RFO/linear search
 Second derivative matrix not updated -- first step.
 ITU=  0
     Eigenvalues ---    0.00345   0.00360   0.00947   0.00948   0.01016
     Eigenvalues ---    0.01916   0.03186   0.03186   0.04174   0.04185
     Eigenvalues ---    0.04354   0.04920   0.05502   0.05525   0.09137
     Eigenvalues ---    0.09391   0.09489   0.12864   0.12909   0.15990
     Eigenvalues ---    0.16000   0.16000   0.16000   0.17014   0.21913
     Eigenvalues ---    0.21932   0.22000   0.22002   0.23374   0.29259
     Eigenvalues ---    0.29362   0.33392   0.33857   0.34165   0.34281
     Eigenvalues ---    0.34329   0.34439   0.34442   0.35627   0.36231
     Eigenvalues ---    0.36944   0.37042   0.56506   0.62676   1.07851
 RFO step:  Lambda=-2.08302453D-02 EMin= 3.45481200D-03
 Linear search not attempted -- first point.
 Iteration  1 RMS(Cart)=  0.17494129 RMS(Int)=  0.00949448
 Iteration  2 RMS(Cart)=  0.02056474 RMS(Int)=  0.00083548
 Iteration  3 RMS(Cart)=  0.00034435 RMS(Int)=  0.00081754
 Iteration  4 RMS(Cart)=  0.00000035 RMS(Int)=  0.00081754
 ITry= 1 IFail=0 DXMaxC= 9.46D-01 DCOld= 1.00D+10 DXMaxT= 3.00D-01 DXLimC= 3.00D+00 Rises=F
 Variable       Old X    -DE/DX   Delta X   Delta X   Delta X     New X
                                 (Linear)    (Quad)   (Total)
    R1        2.08368  -0.00067   0.00000  -0.00188  -0.00188   2.08180
    R2        2.89254   0.01005   0.00000   0.03197   0.03197   2.92451
    R3        2.89466  -0.00158   0.00000  -0.00505  -0.00505   2.88961
    R4        2.53817   0.03182   0.00000   0.05431   0.05431   2.59249
    R5        2.06595   0.00372   0.00000   0.01018   0.01018   2.07612
    R6        2.06858   0.00041   0.00000   0.00112   0.00112   2.06970
    R7        2.80872   0.02042   0.00000   0.05681   0.05681   2.86553
    R8        2.07053  -0.00499   0.00000  -0.01378  -0.01378   2.05675
    R9        2.06778   0.00376   0.00000   0.01033   0.01033   2.07811
   R10        2.79891   0.01973   0.00000   0.05401   0.05401   2.85293
   R11        2.25650   0.03353   0.00000   0.03050   0.03050   2.28700
   R12        2.04669   0.01760   0.00000   0.04668   0.04668   2.09337
   R13        2.48884   0.01811   0.00000   0.02797   0.02797   2.51681
   R14        2.03722   0.00813   0.00000   0.02122   0.02122   2.05843
   R15        2.02631   0.00998   0.00000   0.02556   0.02556   2.05187
   R16        2.02482   0.01224   0.00000   0.03128   0.03128   2.05610
    A1        1.89214  -0.00499   0.00000   0.00437   0.00095   1.89309
    A2        1.88987  -0.00401   0.00000   0.01916   0.01666   1.90653
    A3        1.85637   0.00584   0.00000   0.01440   0.01439   1.87077
    A4        1.95443   0.02365   0.00000   0.08936   0.08842   2.04286
    A5        1.93577  -0.01274   0.00000  -0.07641  -0.07504   1.86072
    A6        1.93156  -0.00846   0.00000  -0.05114  -0.04902   1.88254
    A7        1.89350  -0.00551   0.00000  -0.00251  -0.00448   1.88902
    A8        1.90909  -0.00778   0.00000  -0.04126  -0.03943   1.86967
    A9        1.95941   0.02473   0.00000   0.10672   0.10639   2.06580
   A10        1.85103   0.00430   0.00000   0.00458   0.00381   1.85484
   A11        1.90700  -0.00612   0.00000  -0.00626  -0.00880   1.89820
   A12        1.94008  -0.01074   0.00000  -0.06572  -0.06450   1.87558
   A13        1.90919  -0.00051   0.00000  -0.00404  -0.00404   1.90514
   A14        1.89823  -0.00144   0.00000  -0.01569  -0.01570   1.88252
   A15        1.96682  -0.00108   0.00000  -0.00447  -0.00447   1.96236
   A16        1.85522  -0.00001   0.00000   0.00004  -0.00011   1.85511
   A17        1.91924   0.00174   0.00000   0.01657   0.01655   1.93578
   A18        1.91169   0.00133   0.00000   0.00749   0.00739   1.91908
   A19        2.16452   0.00946   0.00000   0.03919   0.03912   2.20364
   A20        2.09182  -0.01555   0.00000  -0.07960  -0.07967   2.01215
   A21        2.02667   0.00608   0.00000   0.04005   0.03998   2.06665
   A22        2.14704   0.00483   0.00000   0.02016   0.02012   2.16716
   A23        2.04224  -0.00152   0.00000  -0.00494  -0.00497   2.03727
   A24        2.09308  -0.00328   0.00000  -0.01465  -0.01468   2.07840
   A25        2.12669  -0.00025   0.00000  -0.00140  -0.00140   2.12529
   A26        2.11059   0.00147   0.00000   0.00812   0.00812   2.11871
   A27        2.04590  -0.00122   0.00000  -0.00672  -0.00672   2.03918
    D1        3.12796   0.00333   0.00000  -0.01634  -0.01580   3.11216
    D2       -1.14347   0.00126   0.00000  -0.03437  -0.03405  -1.17752
    D3        1.01871  -0.00095   0.00000  -0.07447  -0.07489   0.94383
    D4        1.04404  -0.00287   0.00000  -0.09738  -0.09766   0.94638
    D5        3.05580  -0.00494   0.00000  -0.11542  -0.11591   2.93989
    D6       -1.06520  -0.00715   0.00000  -0.15551  -0.15675  -1.22195
    D7       -1.12322   0.00029   0.00000  -0.03927  -0.03836  -1.16157
    D8        0.88854  -0.00178   0.00000  -0.05730  -0.05661   0.83193
    D9        3.05072  -0.00400   0.00000  -0.09740  -0.09744   2.95328
   D10       -1.11737  -0.00226   0.00000  -0.01887  -0.01960  -1.13697
   D11       -3.13677  -0.00117   0.00000  -0.00803  -0.00877   3.13765
   D12        1.02323  -0.00114   0.00000  -0.00359  -0.00437   1.01886
   D13        0.96787   0.00333   0.00000   0.05329   0.05410   1.02197
   D14       -1.05152   0.00441   0.00000   0.06414   0.06493  -0.98659
   D15        3.10847   0.00445   0.00000   0.06857   0.06933  -3.10538
   D16        3.13748  -0.00227   0.00000  -0.01904  -0.01907   3.11841
   D17        1.11809  -0.00118   0.00000  -0.00820  -0.00824   1.10985
   D18       -1.00510  -0.00115   0.00000  -0.00377  -0.00384  -1.00894
   D19        0.90164   0.00257   0.00000   0.05916   0.06003   0.96167
   D20       -2.26050   0.00193   0.00000   0.03742   0.03829  -2.22220
   D21       -1.19981  -0.00230   0.00000  -0.00231  -0.00232  -1.20213
   D22        1.92124  -0.00294   0.00000  -0.02405  -0.02406   1.89719
   D23        3.04646   0.00247   0.00000   0.03441   0.03355   3.08001
   D24       -0.11568   0.00182   0.00000   0.01267   0.01181  -0.10386
   D25       -2.85579   0.00061   0.00000   0.02621   0.02621  -2.82958
   D26        0.32963   0.00002   0.00000   0.01143   0.01140   0.34103
   D27       -0.72082   0.00046   0.00000   0.02992   0.02989  -0.69093
   D28        2.46459  -0.00013   0.00000   0.01515   0.01508   2.47968
   D29        1.31186   0.00223   0.00000   0.04389   0.04397   1.35583
   D30       -1.78591   0.00164   0.00000   0.02912   0.02916  -1.75674
   D31       -3.12275   0.00012   0.00000   0.00082   0.00085  -3.12191
   D32        0.01979   0.00015   0.00000   0.00134   0.00137   0.02116
   D33       -0.02621   0.00078   0.00000   0.01627   0.01624  -0.00997
   D34        3.11633   0.00080   0.00000   0.01679   0.01677   3.13310
         Item               Value     Threshold  Converged?
 Maximum Force            0.033534     0.000450     NO 
 RMS     Force            0.009144     0.000300     NO 
 Maximum Displacement     0.946366     0.001800     NO 
 RMS     Displacement     0.189252     0.001200     NO 
 Predicted change in Energy=-1.212218D-02
 Lowest energy point so far.  Saving SCF results.
 GradGradGradGradGradGradGradGradGradGradGradGradGradGradGradGradGradGrad

 Leave Link  103 at Sat Dec 24 13:33:07 2022, MaxMem=  4294967296 cpu:               1.1 elap:               0.1
 (Enter /n/sw/g16_nehalem/g16/l202.exe)
                          Input orientation:                          
 ---------------------------------------------------------------------
 Center     Atomic      Atomic             Coordinates (Angstroms)
 Number     Number       Type             X           Y           Z
 ---------------------------------------------------------------------
      1          6           0        0.069246    0.683873    0.272735
      2          1           0        0.066932    0.562039    1.367614
      3          6           0        1.528597    0.904123   -0.192879
      4          1           0        1.530115    0.994765   -1.287770
      5          1           0        1.847857    1.876919    0.196077
      6          6           0       -0.696484   -0.476013   -0.364848
      7          1           0       -0.161389   -1.404543   -0.174882
      8          1           0       -0.683652   -0.330029   -1.454728
      9          6           0        2.575876   -0.114403    0.213568
     10          8           0        2.530958   -1.306820    0.011629
     11          1           0        3.475442    0.303042    0.707194
     12          6           0       -2.121273   -0.564960    0.126344
     13          6           0       -2.887431   -1.647796    0.006935
     14          1           0       -2.539666    0.332187    0.580874
     15          1           0       -3.914572   -1.662983    0.358674
     16          1           0       -2.510505   -2.561409   -0.448117
     17          9           0       -0.610909    1.841801   -0.007737
 ---------------------------------------------------------------------
                    Distance matrix (angstroms):
                    1          2          3          4          5
     1  C    0.000000
     2  H    1.101640   0.000000
     3  C    1.547583   2.165324   0.000000
     4  H    2.160085   3.062552   1.098638   0.000000
     5  H    2.143057   2.504616   1.095237   1.755265   0.000000
     6  C    1.529114   2.159116   2.623993   2.823600   3.510641
     7  H    2.148264   2.509756   2.861175   3.139489   3.865576
     8  H    2.139856   3.053650   2.830096   2.585289   3.742234
     9  C    2.631338   2.843273   1.516373   2.139600   2.120302
    10  O    3.176643   3.376797   2.436149   2.826202   3.261417
    11  H    3.454846   3.481548   2.227473   2.871003   2.321070
    12  C    2.525745   2.756650   3.947362   4.214867   4.660647
    13  C    3.774820   3.932312   5.104265   5.307928   5.906127
    14  H    2.650482   2.732425   4.180499   4.527025   4.667400
    15  H    4.624492   4.671302   6.043372   6.278457   6.764831
    16  H    4.207922   4.438017   5.328172   5.447753   6.253724
    17  F    1.371886   1.997211   2.343289   2.634376   2.467449
                    6          7          8          9         10
     6  C    0.000000
     7  H    1.088385   0.000000
     8  H    1.099689   1.750813   0.000000
     9  C    3.342704   3.050898   3.668001   0.000000
    10  O    3.353857   2.700569   3.665794   1.210229   0.000000
    11  H    4.377347   4.113448   4.729984   1.107766   1.991862
    12  C    1.509704   2.153319   2.149823   4.719515   4.712406
    13  C    2.512279   2.742906   2.954592   5.678179   5.429109
    14  H    2.223712   3.040329   2.833195   5.148119   5.359255
    15  H    3.505492   3.799718   3.937517   6.674210   6.464685
    16  H    2.765228   2.632744   3.054459   5.683040   5.215526
    17  F    2.346724   3.281579   2.610732   3.745839   4.448092
                   11         12         13         14         15
    11  H    0.000000
    12  C    5.693333   0.000000
    13  C    6.691957   1.331837   0.000000
    14  H    6.016505   1.089276   2.090617   0.000000
    15  H    7.655001   2.115550   1.085804   2.433197   0.000000
    16  H    6.735829   2.113603   1.088042   3.071250   1.851887
    17  F    4.424610   2.844588   4.166540   2.519028   4.830317
                   16         17
    16  H    0.000000
    17  F    4.815669   0.000000
 Stoichiometry    C6H9FO
 Framework group  C1[X(C6H9FO)]
 Deg. of freedom    45
 Full point group                 C1      NOp   1
 RotChk:  IX=0 Diff= 8.65D-02
 Largest Abelian subgroup         C1      NOp   1
 Largest concise Abelian subgroup C1      NOp   1
                         Standard orientation:                         
 ---------------------------------------------------------------------
 Center     Atomic      Atomic             Coordinates (Angstroms)
 Number     Number       Type             X           Y           Z
 ---------------------------------------------------------------------
      1          6           0       -0.155639    0.722482   -0.253737
      2          1           0       -0.142634    0.623704   -1.350862
      3          6           0       -1.626563    0.676880    0.225131
      4          1           0       -1.633367    0.745085    1.321629
      5          1           0       -2.113577    1.586591   -0.142004
      6          6           0        0.805898   -0.298562    0.355448
      7          1           0        0.438375   -1.302183    0.149891
      8          1           0        0.778295   -0.177739    1.448130
      9          6           0       -2.484902   -0.500256   -0.195573
     10          8           0       -2.231696   -1.670335   -0.018210
     11          1           0       -3.447948   -0.236211   -0.675122
     12          6           0        2.219744   -0.129200   -0.146111
     13          6           0        3.163387   -1.064474   -0.053419
     14          1           0        2.471653    0.835469   -0.584834
     15          1           0        4.174165   -0.894243   -0.411636
     16          1           0        2.955177   -2.038160    0.385238
     17          9           0        0.315765    1.975461    0.046090
 ---------------------------------------------------------------------
 Rotational constants (GHZ):           2.9856415           1.1530396           0.8617569
 Leave Link  202 at Sat Dec 24 13:33:07 2022, MaxMem=  4294967296 cpu:               0.7 elap:               0.1
 (Enter /n/sw/g16_nehalem/g16/l301.exe)
 Standard basis: 6-31G(d) (6D, 7F)
 Ernie: Thresh=  0.10000D-02 Tol=  0.10000D-05 Strict=F.
 There are   138 symmetry adapted cartesian basis functions of A   symmetry.
 There are   138 symmetry adapted basis functions of A   symmetry.
   138 basis functions,   260 primitive gaussians,   138 cartesian basis functions
    31 alpha electrons       31 beta electrons
       nuclear repulsion energy       360.3730313116 Hartrees.
 IExCor= 4639 DFT=T Ex+Corr=wB97XD ExCW=0 ScaHFX=  1.000000
 ScaDFX=  1.000000  1.000000  1.000000  1.000000 ScalE2=  1.000000  1.000000
 IRadAn=      5 IRanWt=     -1 IRanGd=            0 ICorTp=0 IEmpDi=121
 HFx  wShort=  0.000000 wLong=  0.200000 cFull=  0.222036 cShort=  0.000000 cLong=  0.777964
 DFx  wShort=  0.000000 wLong=  0.200000 cFull=  0.000000 cShort=  0.000000 cLong=  1.000000
 NAtoms=   17 NActive=   17 NUniq=   17 SFac= 1.00D+00 NAtFMM=   60 NAOKFM=F Big=F
 Integral buffers will be    131072 words long.
 Raffenetti 2 integral format.
 Two-electron integral symmetry is turned on.
 R6Disp:  Grimme-D2 Dispersion energy=       -0.0087313940 Hartrees.
 Nuclear repulsion after empirical dispersion term =      360.3642999176 Hartrees.
 Leave Link  301 at Sat Dec 24 13:33:07 2022, MaxMem=  4294967296 cpu:               1.3 elap:               0.1
 (Enter /n/sw/g16_nehalem/g16/l302.exe)
 NPDir=0 NMtPBC=     1 NCelOv=     1 NCel=       1 NClECP=     1 NCelD=      1
         NCelK=      1 NCelE2=     1 NClLst=     1 CellRange=     0.0.
 One-electron integrals computed using PRISM.
 One-electron integral symmetry used in STVInt
 NBasis=   138 RedAO= T EigKep=  2.66D-03  NBF=   138
 NBsUse=   138 1.00D-06 EigRej= -1.00D+00 NBFU=   138
 Precomputing XC quadrature grid using
 IXCGrd= 4 IRadAn=           5 IRanWt=          -1 IRanGd=           0 AccXCQ= 0.00D+00.
 Generated NRdTot=       0 NPtTot=           0 NUsed=           0 NTot=          32
 NSgBfM=   138   138   138   138   138 MxSgAt=    17 MxSgA2=    17.
 Leave Link  302 at Sat Dec 24 13:33:07 2022, MaxMem=  4294967296 cpu:               3.2 elap:               0.2
 (Enter /n/sw/g16_nehalem/g16/l303.exe)
 DipDrv:  MaxL=1.
 Leave Link  303 at Sat Dec 24 13:33:07 2022, MaxMem=  4294967296 cpu:               0.8 elap:               0.1
 (Enter /n/sw/g16_nehalem/g16/l401.exe)
 Initial guess from the checkpoint file:  "/n/holyscratch01/jacobsen_lab/cwagen_ex_crest_c00001/Gau-19487.chk"
 B after Tr=     0.000000    0.000000    0.000000
         Rot=    0.999339   -0.003324   -0.002952    0.036090 Ang=  -4.17 deg.
 Guess basis will be translated and rotated to current coordinates.
 JPrj=2 DoOrth=T DoCkMO=T.
 Generating alternative initial guess.
 ExpMin= 1.61D-01 ExpMax= 7.00D+03 ExpMxC= 1.05D+03 IAcc=2 IRadAn=         4 AccDes= 0.00D+00
 Harris functional with IExCor= 4639 and IRadAn=       4 diagonalized for initial guess.
 HarFok:  IExCor= 4639 AccDes= 0.00D+00 IRadAn=         4 IDoV= 1 UseB2=F ITyADJ=14
 ICtDFT=  3500011 ScaDFX=  1.000000  1.000000  1.000000  1.000000
 FoFCou: FMM=F IPFlag=           0 FMFlag=      100000 FMFlg1=           0
         NFxFlg=           0 DoJE=T BraDBF=F KetDBF=T FulRan=T
         wScrn=  0.000000 ICntrl=       500 IOpCl=  0 I1Cent=   200000004 NGrid=           0
         NMat0=    1 NMatS0=      1 NMatT0=    0 NMatD0=    1 NMtDS0=    0 NMtDT0=    0
 Petite list used in FoFCou.
 Harris En= -392.187789708235    
 Leave Link  401 at Sat Dec 24 13:33:07 2022, MaxMem=  4294967296 cpu:               6.0 elap:               0.4
 (Enter /n/sw/g16_nehalem/g16/l502.exe)
 Integral symmetry usage will be decided dynamically.
 Closed shell SCF:
 Using DIIS extrapolation, IDIIS=  1040.
 NGot=  4294967296 LenX=  4294925285 LenY=  4294905800
 Requested convergence on RMS density matrix=1.00D-08 within 128 cycles.
 Requested convergence on MAX density matrix=1.00D-06.
 Requested convergence on             energy=1.00D-06.
 No special actions if energy rises.
 Fock matrices will be formed incrementally for  20 cycles.
 Integral accuracy reduced to 1.0D-05 until final iterations.

 Cycle   1  Pass 0  IDiag  1:
 FoFJK:  IHMeth= 1 ICntrl=       0 DoSepK=T KAlg= 0 I1Cent=           0 FoldK=F
 IRaf=         1 NMat=       1 IRICut=       1 DoRegI=T DoRafI=F ISym2E= 0 IDoP0=0 IntGTp=1.
 FoFCou: FMM=F IPFlag=           0 FMFlag=      100000 FMFlg1=           0
         NFxFlg=           0 DoJE=T BraDBF=F KetDBF=F FulRan=T
         wScrn=  0.000000 ICntrl=       500 IOpCl=  0 I1Cent=           0 NGrid=           0
         NMat0=    1 NMatS0=      1 NMatT0=    0 NMatD0=    1 NMtDS0=    0 NMtDT0=    0
 Symmetry not used in FoFCou.
 E= -408.905238583172    
 DIIS: error= 1.09D-02 at cycle   1 NSaved=   1.
 NSaved= 1 IEnMin= 1 EnMin= -408.905238583172     IErMin= 1 ErrMin= 1.09D-02
 ErrMax= 1.09D-02  0.00D+00 EMaxC= 1.00D-01 BMatC= 2.69D-02 BMatP= 2.69D-02
 IDIUse=3 WtCom= 8.91D-01 WtEn= 1.09D-01
 Coeff-Com:  0.100D+01
 Coeff-En:   0.100D+01
 Coeff:      0.100D+01
 Recover alternate guess density for next cycle.
 RMSDP=4.28D-03 MaxDP=5.36D-02              OVMax= 0.00D+00

 Cycle   2  Pass 0  IDiag  1:
 RMSU=  4.27D-03    CP:  9.89D-01
 E= -408.815369039785     Delta-E=        0.089869543387 Rises=F Damp=F
 Switch densities from cycles 1 and 2 for lowest energy.
 DIIS: error= 6.41D-02 at cycle   2 NSaved=   2.
 NSaved= 2 IEnMin= 1 EnMin= -408.905238583172     IErMin= 1 ErrMin= 1.09D-02
 ErrMax= 6.41D-02  0.00D+00 EMaxC= 1.00D+00 BMatC= 4.10D-01 BMatP= 2.69D-02
 IDIUse=1 WtCom= 1.00D+00 WtEn= 0.00D+00
 Coeff-Com:  0.933D+00 0.669D-01
 Coeff:      0.933D+00 0.669D-01
 Gap=     0.423 Goal=   None    Shift=    0.000
 RMSDP=1.58D-03 MaxDP=4.03D-02 DE= 8.99D-02 OVMax= 6.18D-02

 Cycle   3  Pass 0  IDiag  1:
 RMSU=  1.43D-03    CP:  9.96D-01  1.57D-01
 E= -408.946742137903     Delta-E=       -0.131373098118 Rises=F Damp=F
 DIIS: error= 2.09D-03 at cycle   3 NSaved=   3.
 NSaved= 3 IEnMin= 3 EnMin= -408.946742137903     IErMin= 3 ErrMin= 2.09D-03
 ErrMax= 2.09D-03  0.00D+00 EMaxC= 1.00D+00 BMatC= 1.64D-03 BMatP= 2.69D-02
 IDIUse=1 WtCom= 1.00D+00 WtEn= 0.00D+00
 Coeff-Com: -0.981D-01 0.143D-01 0.108D+01
 Coeff:     -0.981D-01 0.143D-01 0.108D+01
 Gap=     0.370 Goal=   None    Shift=    0.000
 RMSDP=5.16D-04 MaxDP=1.18D-02 DE=-1.31D-01 OVMax= 1.34D-02

 Cycle   4  Pass 0  IDiag  1:
 RMSU=  4.24D-04    CP:  9.96D-01  2.08D-01  1.14D+00
 E= -408.948023478081     Delta-E=       -0.001281340178 Rises=F Damp=F
 DIIS: error= 2.74D-03 at cycle   4 NSaved=   4.
 NSaved= 4 IEnMin= 4 EnMin= -408.948023478081     IErMin= 3 ErrMin= 2.09D-03
 ErrMax= 2.74D-03  0.00D+00 EMaxC= 1.00D+00 BMatC= 1.54D-03 BMatP= 1.64D-03
 IDIUse=1 WtCom= 1.00D+00 WtEn= 0.00D+00
 Coeff-Com: -0.101D+00 0.302D-02 0.591D+00 0.507D+00
 Coeff:     -0.101D+00 0.302D-02 0.591D+00 0.507D+00
 Gap=     0.371 Goal=   None    Shift=    0.000
 RMSDP=2.25D-04 MaxDP=8.48D-03 DE=-1.28D-03 OVMax= 9.64D-03

 Cycle   5  Pass 0  IDiag  1:
 RMSU=  1.48D-04    CP:  9.96D-01  2.10D-01  1.19D+00  6.38D-01
 E= -408.949104367108     Delta-E=       -0.001080889027 Rises=F Damp=F
 DIIS: error= 4.72D-04 at cycle   5 NSaved=   5.
 NSaved= 5 IEnMin= 5 EnMin= -408.949104367108     IErMin= 5 ErrMin= 4.72D-04
 ErrMax= 4.72D-04  0.00D+00 EMaxC= 1.00D+00 BMatC= 4.75D-05 BMatP= 1.54D-03
 IDIUse=1 WtCom= 1.00D+00 WtEn= 0.00D+00
 Coeff-Com: -0.296D-01-0.104D-02 0.153D+00 0.194D+00 0.684D+00
 Coeff:     -0.296D-01-0.104D-02 0.153D+00 0.194D+00 0.684D+00
 Gap=     0.371 Goal=   None    Shift=    0.000
 RMSDP=5.15D-05 MaxDP=1.22D-03 DE=-1.08D-03 OVMax= 1.77D-03

 Cycle   6  Pass 0  IDiag  1:
 RMSU=  4.37D-05    CP:  9.96D-01  2.08D-01  1.20D+00  6.84D-01  9.87D-01
 E= -408.949148354627     Delta-E=       -0.000043987519 Rises=F Damp=F
 DIIS: error= 1.60D-04 at cycle   6 NSaved=   6.
 NSaved= 6 IEnMin= 6 EnMin= -408.949148354627     IErMin= 6 ErrMin= 1.60D-04
 ErrMax= 1.60D-04  0.00D+00 EMaxC= 1.00D+00 BMatC= 5.98D-06 BMatP= 4.75D-05
 IDIUse=1 WtCom= 1.00D+00 WtEn= 0.00D+00
 Coeff-Com:  0.832D-02 0.180D-03-0.633D-01-0.369D-01 0.216D+00 0.876D+00
 Coeff:      0.832D-02 0.180D-03-0.633D-01-0.369D-01 0.216D+00 0.876D+00
 Gap=     0.371 Goal=   None    Shift=    0.000
 RMSDP=2.88D-05 MaxDP=4.46D-04 DE=-4.40D-05 OVMax= 1.35D-03

 Cycle   7  Pass 0  IDiag  1:
 RMSU=  1.30D-05    CP:  9.96D-01  2.11D-01  1.20D+00  7.06D-01  1.13D+00
                    CP:  1.01D+00
 E= -408.949157261228     Delta-E=       -0.000008906601 Rises=F Damp=F
 DIIS: error= 4.15D-05 at cycle   7 NSaved=   7.
 NSaved= 7 IEnMin= 7 EnMin= -408.949157261228     IErMin= 7 ErrMin= 4.15D-05
 ErrMax= 4.15D-05  0.00D+00 EMaxC= 1.00D+00 BMatC= 4.14D-07 BMatP= 5.98D-06
 IDIUse=1 WtCom= 1.00D+00 WtEn= 0.00D+00
 Coeff-Com:  0.448D-02-0.435D-04-0.290D-01-0.224D-01 0.302D-01 0.255D+00
 Coeff-Com:  0.762D+00
 Coeff:      0.448D-02-0.435D-04-0.290D-01-0.224D-01 0.302D-01 0.255D+00
 Coeff:      0.762D+00
 Gap=     0.371 Goal=   None    Shift=    0.000
 RMSDP=7.76D-06 MaxDP=1.40D-04 DE=-8.91D-06 OVMax= 5.54D-04

 Initial convergence to 1.0D-05 achieved.  Increase integral accuracy.
 Cycle   8  Pass 1  IDiag  1:
 E= -408.949127728646     Delta-E=        0.000029532582 Rises=F Damp=F
 DIIS: error= 2.73D-05 at cycle   1 NSaved=   1.
 NSaved= 1 IEnMin= 1 EnMin= -408.949127728646     IErMin= 1 ErrMin= 2.73D-05
 ErrMax= 2.73D-05  0.00D+00 EMaxC= 1.00D+00 BMatC= 1.98D-07 BMatP= 1.98D-07
 IDIUse=1 WtCom= 1.00D+00 WtEn= 0.00D+00
 Coeff-Com:  0.100D+01
 Coeff:      0.100D+01
 Gap=     0.371 Goal=   None    Shift=    0.000
 RMSDP=7.76D-06 MaxDP=1.40D-04 DE= 2.95D-05 OVMax= 4.08D-04

 Cycle   9  Pass 1  IDiag  1:
 RMSU=  5.88D-06    CP:  1.00D+00
 E= -408.949128068180     Delta-E=       -0.000000339534 Rises=F Damp=F
 DIIS: error= 1.87D-05 at cycle   2 NSaved=   2.
 NSaved= 2 IEnMin= 2 EnMin= -408.949128068180     IErMin= 2 ErrMin= 1.87D-05
 ErrMax= 1.87D-05  0.00D+00 EMaxC= 1.00D+00 BMatC= 7.23D-08 BMatP= 1.98D-07
 IDIUse=1 WtCom= 1.00D+00 WtEn= 0.00D+00
 Coeff-Com:  0.299D+00 0.701D+00
 Coeff:      0.299D+00 0.701D+00
 Gap=     0.371 Goal=   None    Shift=    0.000
 RMSDP=2.61D-06 MaxDP=6.69D-05 DE=-3.40D-07 OVMax= 1.65D-04

 Cycle  10  Pass 1  IDiag  1:
 RMSU=  2.55D-06    CP:  1.00D+00  1.09D+00
 E= -408.949128168231     Delta-E=       -0.000000100050 Rises=F Damp=F
 DIIS: error= 1.11D-05 at cycle   3 NSaved=   3.
 NSaved= 3 IEnMin= 3 EnMin= -408.949128168231     IErMin= 3 ErrMin= 1.11D-05
 ErrMax= 1.11D-05  0.00D+00 EMaxC= 1.00D+00 BMatC= 2.14D-08 BMatP= 7.23D-08
 IDIUse=1 WtCom= 1.00D+00 WtEn= 0.00D+00
 Coeff-Com: -0.108D+00 0.299D+00 0.809D+00
 Coeff:     -0.108D+00 0.299D+00 0.809D+00
 Gap=     0.371 Goal=   None    Shift=    0.000
 RMSDP=1.89D-06 MaxDP=5.19D-05 DE=-1.00D-07 OVMax= 1.73D-04

 Cycle  11  Pass 1  IDiag  1:
 RMSU=  1.04D-06    CP:  1.00D+00  1.35D+00  1.12D+00
 E= -408.949128220529     Delta-E=       -0.000000052298 Rises=F Damp=F
 DIIS: error= 7.82D-06 at cycle   4 NSaved=   4.
 NSaved= 4 IEnMin= 4 EnMin= -408.949128220529     IErMin= 4 ErrMin= 7.82D-06
 ErrMax= 7.82D-06  0.00D+00 EMaxC= 1.00D+00 BMatC= 2.60D-09 BMatP= 2.14D-08
 IDIUse=1 WtCom= 1.00D+00 WtEn= 0.00D+00
 Coeff-Com: -0.511D-01-0.274D-01 0.128D+00 0.951D+00
 Coeff:     -0.511D-01-0.274D-01 0.128D+00 0.951D+00
 Gap=     0.371 Goal=   None    Shift=    0.000
 RMSDP=1.12D-06 MaxDP=3.26D-05 DE=-5.23D-08 OVMax= 1.08D-04

 Cycle  12  Pass 1  IDiag  1:
 RMSU=  4.58D-07    CP:  1.00D+00  1.48D+00  1.35D+00  1.36D+00
 E= -408.949128233308     Delta-E=       -0.000000012780 Rises=F Damp=F
 DIIS: error= 3.48D-06 at cycle   5 NSaved=   5.
 NSaved= 5 IEnMin= 5 EnMin= -408.949128233308     IErMin= 5 ErrMin= 3.48D-06
 ErrMax= 3.48D-06  0.00D+00 EMaxC= 1.00D+00 BMatC= 1.48D-09 BMatP= 2.60D-09
 IDIUse=1 WtCom= 1.00D+00 WtEn= 0.00D+00
 Coeff-Com:  0.207D-01-0.150D+00-0.296D+00 0.571D+00 0.855D+00
 Coeff:      0.207D-01-0.150D+00-0.296D+00 0.571D+00 0.855D+00
 Gap=     0.371 Goal=   None    Shift=    0.000
 RMSDP=8.92D-07 MaxDP=2.63D-05 DE=-1.28D-08 OVMax= 8.88D-05

 Cycle  13  Pass 1  IDiag  1:
 RMSU=  1.88D-07    CP:  1.00D+00  1.58D+00  1.52D+00  1.80D+00  1.01D+00
 E= -408.949128238282     Delta-E=       -0.000000004974 Rises=F Damp=F
 DIIS: error= 1.11D-06 at cycle   6 NSaved=   6.
 NSaved= 6 IEnMin= 6 EnMin= -408.949128238282     IErMin= 6 ErrMin= 1.11D-06
 ErrMax= 1.11D-06  0.00D+00 EMaxC= 1.00D+00 BMatC= 1.43D-10 BMatP= 1.48D-09
 IDIUse=1 WtCom= 1.00D+00 WtEn= 0.00D+00
 Coeff-Com:  0.147D-01-0.659D-01-0.148D+00 0.155D+00 0.378D+00 0.666D+00
 Coeff:      0.147D-01-0.659D-01-0.148D+00 0.155D+00 0.378D+00 0.666D+00
 Gap=     0.371 Goal=   None    Shift=    0.000
 RMSDP=1.87D-07 MaxDP=5.48D-06 DE=-4.97D-09 OVMax= 1.74D-05

 Cycle  14  Pass 1  IDiag  1:
 RMSU=  7.60D-08    CP:  1.00D+00  1.60D+00  1.55D+00  1.89D+00  1.11D+00
                    CP:  9.46D-01
 E= -408.949128238587     Delta-E=       -0.000000000305 Rises=F Damp=F
 DIIS: error= 3.86D-07 at cycle   7 NSaved=   7.
 NSaved= 7 IEnMin= 7 EnMin= -408.949128238587     IErMin= 7 ErrMin= 3.86D-07
 ErrMax= 3.86D-07  0.00D+00 EMaxC= 1.00D+00 BMatC= 9.59D-12 BMatP= 1.43D-10
 IDIUse=1 WtCom= 1.00D+00 WtEn= 0.00D+00
 Coeff-Com: -0.187D-02 0.189D-01 0.358D-01-0.805D-01-0.113D+00 0.683D-01
 Coeff-Com:  0.107D+01
 Coeff:     -0.187D-02 0.189D-01 0.358D-01-0.805D-01-0.113D+00 0.683D-01
 Coeff:      0.107D+01
 Gap=     0.371 Goal=   None    Shift=    0.000
 RMSDP=7.36D-08 MaxDP=1.93D-06 DE=-3.05D-10 OVMax= 6.51D-06

 Cycle  15  Pass 1  IDiag  1:
 RMSU=  1.83D-08    CP:  1.00D+00  1.61D+00  1.56D+00  1.91D+00  1.16D+00
                    CP:  1.16D+00  1.22D+00
 E= -408.949128238629     Delta-E=       -0.000000000042 Rises=F Damp=F
 DIIS: error= 9.98D-08 at cycle   8 NSaved=   8.
 NSaved= 8 IEnMin= 8 EnMin= -408.949128238629     IErMin= 8 ErrMin= 9.98D-08
 ErrMax= 9.98D-08  0.00D+00 EMaxC= 1.00D+00 BMatC= 8.53D-13 BMatP= 9.59D-12
 IDIUse=1 WtCom= 1.00D+00 WtEn= 0.00D+00
 Coeff-Com: -0.172D-02 0.953D-02 0.204D-01-0.297D-01-0.554D-01-0.454D-01
 Coeff-Com:  0.203D+00 0.900D+00
 Coeff:     -0.172D-02 0.953D-02 0.204D-01-0.297D-01-0.554D-01-0.454D-01
 Coeff:      0.203D+00 0.900D+00
 Gap=     0.371 Goal=   None    Shift=    0.000
 RMSDP=1.61D-08 MaxDP=3.59D-07 DE=-4.21D-11 OVMax= 1.09D-06

 Cycle  16  Pass 1  IDiag  1:
 RMSU=  7.42D-09    CP:  1.00D+00  1.61D+00  1.56D+00  1.92D+00  1.17D+00
                    CP:  1.20D+00  1.32D+00  1.10D+00
 E= -408.949128238631     Delta-E=       -0.000000000002 Rises=F Damp=F
 DIIS: error= 3.18D-08 at cycle   9 NSaved=   9.
 NSaved= 9 IEnMin= 9 EnMin= -408.949128238631     IErMin= 9 ErrMin= 3.18D-08
 ErrMax= 3.18D-08  0.00D+00 EMaxC= 1.00D+00 BMatC= 1.99D-13 BMatP= 8.53D-13
 IDIUse=1 WtCom= 1.00D+00 WtEn= 0.00D+00
 Coeff-Com: -0.404D-03 0.139D-02 0.346D-02-0.178D-02-0.767D-02-0.257D-01
 Coeff-Com: -0.514D-01 0.352D+00 0.730D+00
 Coeff:     -0.404D-03 0.139D-02 0.346D-02-0.178D-02-0.767D-02-0.257D-01
 Coeff:     -0.514D-01 0.352D+00 0.730D+00
 Gap=     0.371 Goal=   None    Shift=    0.000
 RMSDP=4.47D-09 MaxDP=7.95D-08 DE=-1.82D-12 OVMax= 2.03D-07

 SCF Done:  E(RwB97XD) =  -408.949128239     A.U. after   16 cycles
            NFock= 16  Conv=0.45D-08     -V/T= 2.0086
 KE= 4.054695874553D+02 PE=-1.677455663569D+03 EE= 5.026726479574D+02
 Leave Link  502 at Sat Dec 24 13:33:18 2022, MaxMem=  4294967296 cpu:             160.9 elap:              10.1
 (Enter /n/sw/g16_nehalem/g16/l701.exe)
 ... and contract with generalized density number  0.
 Compute integral first derivatives.
 R6Disp: Adding Grimme-D2 dispersion energy 1st derivatives to the gradient.
 Leave Link  701 at Sat Dec 24 13:33:18 2022, MaxMem=  4294967296 cpu:               2.3 elap:               0.2
 (Enter /n/sw/g16_nehalem/g16/l702.exe)
 L702 exits ... SP integral derivatives will be done elsewhere.
 Leave Link  702 at Sat Dec 24 13:33:18 2022, MaxMem=  4294967296 cpu:               0.7 elap:               0.1
 (Enter /n/sw/g16_nehalem/g16/l703.exe)
 Integral derivatives from FoFJK, PRISM(SPDF).
 Compute integral first derivatives, UseDBF=F ICtDFT=           0.
 Calling FoFJK, ICntrl=      2127 FMM=F ISym2X=0 I1Cent= 0 IOpClX= 0 NMat=1 NMatS=1 NMatT=0.
 FoFJK:  IHMeth= 1 ICntrl=    2127 DoSepK=T KAlg= 0 I1Cent=           0 FoldK=F
 IRaf=         1 NMat=       1 IRICut=       1 DoRegI=T DoRafI=F ISym2E= 0 IDoP0=0 IntGTp=1.
 FoFCou: FMM=F IPFlag=           0 FMFlag=      100000 FMFlg1=         800
         NFxFlg=           0 DoJE=F BraDBF=F KetDBF=F FulRan=T
         wScrn=  0.000000 ICntrl=      2527 IOpCl=  0 I1Cent=           0 NGrid=           0
         NMat0=    1 NMatS0=      1 NMatT0=    0 NMatD0=    1 NMtDS0=    0 NMtDT0=    0
 Symmetry not used in FoFCou.
 Leave Link  703 at Sat Dec 24 13:33:20 2022, MaxMem=  4294967296 cpu:              30.3 elap:               1.9
 (Enter /n/sw/g16_nehalem/g16/l716.exe)
 Dipole        =-3.23538899D-01 4.53316376D-01-1.12824259D-01
 ***** Axes restored to original set *****
 -------------------------------------------------------------------
 Center     Atomic                   Forces (Hartrees/Bohr)
 Number     Number              X              Y              Z
 -------------------------------------------------------------------
      1        6           0.009453544   -0.016504877    0.007527367
      2        1          -0.000670113    0.000319713   -0.001561172
      3        6          -0.006130074    0.002638361   -0.001079841
      4        1           0.000814959   -0.002238919   -0.000254632
[...]
 0.0340812,0.0167922,0.0784458,-0.037403,-0.0078036,0.0292167,0.0236737
 ,0.0652811,-0.0221826,-0.0761396,0.0414729,-0.0304015,0.0283334,0.0893
 337,0.0296169,0.0576534,-0.1132398,1.0037877,-0.1277778,-0.0796609,-0.
 0906428,0.9421761,-0.3128968,-0.1211281,-0.2942776,0.2813956,-0.606024
 6,-0.0420431,0.0481596,-0.0164951,-0.8132452,0.2171823,0.0255923,0.227
 1727,-0.3927828,-0.3021323,-0.0154952,0.0643188,-0.0162392,0.0046586,0
 .0237333,0.084582,0.0231827,0.0301255,0.2025179,0.0645861,-0.0927685,-
 0.0572113,0.0977414,-0.06257,-0.1432543,-0.0916858,-0.1569199,-0.02364
 49,-0.1210532,-0.0814447,-0.0995309,-0.0119938,-0.0248037,-0.0696884,-
 0.0327179,-0.279886,-0.0164471,0.0491887,0.0268192,0.0848162,-0.041732
 8,0.017973,0.0477704,0.025999,0.1121163,-0.1010611,-0.0303205,0.064326
 9,-0.0077727,0.0440189,0.0148924,0.0733049,0.0311131,0.1303794,0.00023
 69,0.1037718,0.0211495,0.0530258,-0.0388545,0.0165519,0.0288269,0.0058
 528,0.1289694,-0.5413522,0.2235149,-0.0012318,0.2175034,-0.7700995,-0.
 0568897,-0.0110852,-0.0360949,-0.2532379\Polar=73.6034217,9.5599144,70
 .5638456,-4.9362182,-7.2869641,45.6092082\AAT=0.0392892,0.0612417,-0.5
 349226,-0.0874966,-0.1851452,-0.145963,0.3215119,-0.0075988,0.0820934,
 -0.0456461,0.0987402,0.0323277,-0.0226383,0.0398084,0.0012752,-0.02718
 55,0.0294841,-0.0061464,-0.0855982,-0.0517412,0.6353584,-0.2778556,-0.
 480449,-0.2497881,-0.6808402,-0.8677537,0.5647635,-0.0512353,-0.292998
 2,0.0471369,0.253383,0.0978236,0.0238654,-0.0136343,0.0626258,0.001302
 2,0.0490362,0.2592024,-0.1868914,-0.1845719,-0.0417654,0.1550326,0.152
 3055,-0.0219281,-0.0790824,0.037129,0.2551078,-0.06601,-0.1492337,0.05
 96995,-0.0811925,-0.0082781,0.462866,-0.0985065,0.0089354,0.0363787,0.
 2232686,-0.0461378,-0.0206608,0.1469365,-0.111859,-0.0099638,0.0250268
 ,0.0188253,-0.1670676,-0.0100316,0.1228291,0.0154478,-0.0523464,0.1164
 692,-0.0331705,-0.0246334,-0.0656586,0.1923709,-0.0632977,-0.2668045,0
 .5358263,1.3357285,-0.5520267,-0.0582686,-0.4599037,0.1103382,-0.36818
 62,-0.6786799,0.4920189,-0.4004635,-1.0480845,1.112987,0.1538496,0.290
 4728,0.0485069,0.1239237,-0.0128286,0.0787974,0.3251491,-0.1887276,0.1
 915022,0.8717062,-0.357057,-0.0787721,-0.1650237,-0.0450635,-0.0028448
 ,-0.0086425,0.0722534,-0.2483605,-0.1651119,0.1088193,0.1525301,-0.116
 8774,0.1333663,0.1131513,-0.0599178,-0.0237773,0.6226986,-0.5963613,-0
 .085979,-0.0562392,-0.0038296,-0.1869838,-0.056414,-0.0251341,-0.03140
 8,-0.1771385,-0.0097192,0.0797213,-0.063952,0.0322332,-0.0813358,-0.04
 07672,-0.0170676,-0.1396374,-0.0846716,0.0049638,0.0713766,0.0352328,0
 .0714621,-0.0547865,0.037764,0.0684874,0.2145243,0.0124948,0.2737412,-
 0.0819272,-0.0413631,-0.0387488,0.7771434,0.0934641,0.0720562,0.124226
 5,-0.5466732,-0.2165422,-0.0211761\GPTens=-6.0800212,16.7475336,4.9786
 729,-10.8963746,4.8366131,14.2180403,1.1714657,4.4084,2.6899316\OptRot
 =1.2690596,-1.0602955,-2.9279264,-1.0602955,-0.8351727,-1.3258512,-2.9
 279264,-1.3258512,1.0126365\DQPolar=-24.2621229,-4.5748361,28.8369591,
 -54.055336,2.8042803,10.373694,-5.9036073,-35.5804439,41.4840512,-53.0
 392929,3.8363316,9.2341286,16.7918866,20.0017813,-36.7936679,13.813182
 4,7.0185736,4.4554566\Quadrupole=2.9568378,-3.0374192,0.0805814,4.6561
 725,-1.8444456,0.5219724\PG=C01 [X(C6H9F1O1)]\NImag=0\\0.50605238,0.01
 801416,0.49210133,-0.00372854,-0.04089051,0.62367125,-0.05630624,-0.00
 869710,0.01720869,0.06230167,-0.00584854,-0.07062921,0.06666201,0.0012
 6506,0.08969136,0.01358025,0.07264027,-0.29689533,-0.01204690,-0.08101
 095,0.31434413,-0.18008989,-0.02543324,0.02987172,-0.00222435,-0.00327
 499,0.00115156,0.51806882,-0.04217515,-0.08753398,0.01274364,-0.008518
 99,0.00119386,0.00117786,0.02467727,0.53893733,0.03660854,0.01009932,-
 0.10266703,0.03129256,0.00624470,-0.00683925,-0.00383944,0.00128483,0.
 55815823,-0.00146595,-0.00998522,0.03429249,-0.00612178,-0.00059929,0.
 00117878,-0.05220729,-0.00001252,0.00777889,0.05330316,0.00045438,-0.0
 0203424,0.00615236,-0.00104788,0.00016938,0.00039507,-0.00143305,-0.05
 681746,0.06485155,0.00347486,0.06352294,0.00004024,0.00319466,-0.00918
 433,0.00159815,0.00004973,0.00076472,0.01160510,0.06025208,-0.29227843
 ,-0.01278565,-0.06772057,0.31831417,-0.01187499,-0.02726847,-0.0180723
 4,0.00095242,0.00052929,0.00029600,-0.07892270,-0.06686018,-0.04075536
 ,0.00010312,-0.00008159,0.00031144,0.08457956,-0.00098457,-0.00527312,
 -0.00369236,-0.00024392,0.00005897,0.00017993,-0.07307793,-0.21347503,
 -0.10992534,0.00235715,0.00734210,0.00484031,0.07756376,0.23257078,0.0
 0388324,0.00852756,0.00523361,-0.00042556,0.00019087,0.00044795,-0.042
 70197,-0.10577448,-0.10905295,-0.00992619,-0.02719096,-0.01657460,0.04
 740179,0.11514994,0.11886821,-0.11271844,-0.03775377,-0.03661271,0.001
 13896,-0.00130764,0.00061188,-0.01659554,-0.02294466,-0.02029423,0.001
 73396,0.00028826,-0.00088579,-0.00620836,-0.00046228,0.00096191,0.5284
 9072,-0.03295747,-0.11117281,-0.03726849,0.00256075,0.00795032,0.00465
 719,-0.00719005,-0.00089281,-0.00205355,0.00060097,-0.00004090,-0.0007
 5893,0.00097704,0.00045802,-0.00030900,-0.05471340,0.57950191,-0.04069
 078,-0.04765816,-0.13248981,-0.01662426,-0.02171157,-0.01859674,0.0037
 8356,0.00656528,0.00616919,0.00145213,0.00089556,0.00104585,0.00319648
 ,0.00105243,-0.00014122,-0.01232222,-0.04304182,0.54131412,0.00865714,
 -0.01172128,0.00393073,0.00023494,0.00067122,0.00003906,0.00013282,0.0
 0090616,0.00064267,-0.00001042,0.00000437,0.00007958,0.00013176,0.0002
 1276,-0.00002136,-0.11136946,0.11326393,-0.00453299,0.12495627,0.01279
 544,-0.01723314,0.00474602,-0.00007160,0.00074823,-0.00035450,-0.00054
 909,0.00060789,0.00010630,-0.00005466,-0.00012608,0.00000266,0.0001154
 9,0.00008272,0.00000874,0.11190712,-0.25857091,0.00697864,-0.12148232,
 0.28033230,0.01205440,-0.01542326,0.00194231,0.00036089,0.00083792,-0.
 00000935,0.00014265,0.00079959,0.00061956,-0.00014663,0.00012115,-0.00
 003803,0.00012226,0.00011799,-0.00016800,-0.00567528,0.01002726,-0.052
 37562,0.00348253,-0.00834897,0.05012141,-0.00063696,0.00689009,-0.0174
 7887,-0.00107825,-0.00280400,-0.00181118,0.00104233,0.00081573,-0.0013
 8015,-0.00051597,-0.00050767,0.00032891,0.00017025,-0.00000764,0.00028
 368,-0.04965191,-0.00198228,0.01304104,0.00062487,0.00378786,-0.014808
 09,0.05632281,-0.00124210,0.00536359,-0.02457217,-0.00209059,-0.002587
 97,-0.00268594,0.00120329,0.00071228,-0.00041818,-0.00014116,0.0000637
 4,0.00046973,0.00024257,0.00005442,0.00004078,0.00057285,-0.08122196,0
 .08611150,-0.00286999,-0.00790933,0.02724030,0.00725626,0.08440109,-0.
 00130071,0.00878234,-0.02516443,-0.00215712,-0.00338502,-0.00133663,0.
 00145769,0.00034282,0.00087536,-0.00106442,-0.00036946,0.00057063,0.00
 011916,-0.00003779,0.00036552,0.00941543,0.08387413,-0.27208095,-0.000
 32394,-0.00056027,0.00106859,-0.01030273,-0.09194903,0.29869325,-0.022
 05565,0.02853844,-0.00693903,0.00057956,0.00017694,0.00040793,-0.16722
 717,0.05593340,-0.00648277,0.00433910,-0.00458028,0.00175487,0.0114485
 0,-0.01296145,0.00264755,0.00033597,-0.00062484,-0.00058562,-0.0015542
 8,-0.00116304,-0.00048152,0.00001631,-0.00005924,0.00006886,0.60991357
 ,0.00999548,0.01288691,-0.00955766,-0.00201342,-0.00031118,0.00228491,
 0.05015357,-0.13334291,0.00676652,0.00046598,-0.00781057,0.00099633,0.
 01571563,-0.02333061,0.00828553,-0.00176316,0.00261983,0.00140974,-0.0
 0202391,-0.00213271,-0.00141664,0.00070047,-0.00029039,0.00057095,0.11
 285088,0.85882344,-0.00020571,-0.01227928,0.00376485,0.00137928,0.0001
 8908,-0.00105077,-0.00484221,0.00787806,-0.09078903,-0.02248494,0.0291
 9514,-0.00450672,0.01362435,-0.01289799,0.00299186,0.00017767,-0.00097
 043,-0.00079135,-0.00016545,0.00063140,0.00084972,-0.00029835,0.000305
 51,-0.00012791,-0.12325577,-0.27964614,0.35033006,0.00043865,-0.004581
 19,0.00189623,0.00031035,0.00042519,-0.00127817,0.02652246,0.01640409,
 -0.00655227,-0.00127754,0.00347749,-0.00142180,-0.00232367,0.00496996,
 -0.00145706,-0.00083875,-0.00156125,-0.00111974,-0.00146593,0.00222777
 ,0.00014930,-0.00056545,0.00059962,-0.00025706,-0.16417329,-0.16598794
 ,0.08616538,0.14498463,-0.00738130,-0.00263291,0.00155531,0.00157588,-
 0.00005129,-0.00079932,-0.00054334,-0.04425142,0.02842971,0.00375559,-
 0.00437793,-0.00056441,0.00197107,-0.00140791,0.00094926,0.00107455,-0
 .00181277,-0.00068009,0.00103259,0.00108669,0.00093374,-0.00032830,0.0
 0025783,-0.00035036,-0.16511396,-0.64527360,0.26512814,0.18572339,0.71
 082145,0.00236642,0.00084199,-0.00399866,-0.00095619,-0.00021132,0.001
 26571,0.00062846,0.02407087,0.01566667,0.00180363,-0.00262078,0.000060
 48,-0.00377186,0.00262343,-0.00186051,-0.00134896,-0.00045610,0.000303
 17,-0.00019006,0.00054518,-0.00019964,0.00014641,0.00011404,0.00016757
 ,0.08545913,0.26628160,-0.18823452,-0.09684916,-0.31292254,0.16727621,
 0.00284575,0.00405948,-0.00175558,0.00006448,-0.00022745,0.00003476,-0
 .01737621,-0.00454709,0.00818790,-0.00014636,-0.00001908,-0.00072705,-
 0.00061696,0.00132926,0.00035692,0.00011929,-0.00001262,0.00017737,-0.
 00001130,-0.00004490,0.00013694,-0.00006270,0.00005236,-0.00004176,-0.
 26586466,-0.01007237,0.04369880,-0.00292734,-0.02407384,0.01413429,0.2
 8676796,-0.00016371,-0.00381449,0.00291680,-0.00000104,-0.00001817,-0.
 00034315,0.02486222,0.00904373,-0.00152004,-0.00029467,-0.00008258,0.0
 0065458,-0.00206726,0.00159193,-0.00074145,0.00021298,-0.00010318,-0.0
 0029623,0.00013238,0.00021583,0.00026525,-0.00003165,0.00004642,-0.000
 02863,-0.01428610,-0.06179365,0.00254980,-0.04315568,-0.01442173,0.022
 18269,0.03261715,0.07010256,0.00025749,0.00185950,0.00211056,-0.000208
 44,-0.00002178,-0.00004898,-0.00288610,0.00378671,0.01638305,0.0025753
 7,-0.00289841,0.00051315,-0.00138411,0.00209265,-0.00039041,0.00028109
 ,0.00028293,-0.00001693,-0.00037521,-0.00021063,-0.00034358,-0.0000037
 0,-0.00008370,-0.00002580,0.04507966,0.00156167,-0.07201753,0.02191181
 ,0.01881673,0.00868974,-0.06459515,-0.02521204,0.04524743,-0.02106414,
 -0.01429524,-0.00123887,0.00119192,0.00141048,0.00134986,0.00005123,-0
 .00099885,-0.00034223,-0.00006654,-0.00013317,-0.00007284,0.00004926,0
 .00014716,0.00024565,-0.21608092,-0.00391924,0.04065819,-0.01743856,-0
 .00249939,0.00476008,-0.00202984,-0.00198809,0.00175241,-0.00033034,0.
 00039069,-0.00002457,0.00030409,-0.00023986,0.00000666,0.00013936,-0.0
 0004214,0.00000649,0.59197927,-0.02730249,-0.00425153,0.00753204,0.001
 21218,0.00104562,0.00078468,-0.00218605,-0.00347967,-0.00318593,0.0001
 5961,-0.00000278,-0.00014378,-0.00167999,-0.00009360,0.00015931,-0.009
 35587,-0.09207298,0.00574959,0.02956216,0.00520837,-0.00889291,-0.0149
 2048,-0.00271410,0.00426591,0.00015615,-0.00190441,0.00044719,0.000809
 97,0.00117327,0.00026870,-0.00011018,0.00017951,-0.00010085,0.06425711
 ,0.85292941,-0.02048337,0.00253466,0.00900259,-0.00098626,-0.00019112,
 0.00060544,-0.00105208,-0.00349988,-0.00294948,-0.00028476,-0.00027334
 ,0.00024745,-0.00144208,-0.00032778,0.00057295,0.04125977,0.00422073,-
 0.08872447,-0.00074132,-0.00013613,-0.00003380,0.03198415,0.00380864,-
 0.00616012,0.00065927,-0.00053928,0.00012637,-0.00032897,0.00038169,-0
 .00026998,-0.00021254,0.00011737,0.00007079,-0.12246518,-0.13823862,0.
 21245588,-0.00351803,0.00242693,0.00410042,0.00010310,0.00007287,-0.00
 044938,-0.00046648,-0.00096155,-0.00128075,0.00011241,0.00010633,-0.00
 004927,-0.00065255,-0.00011432,0.00000375,-0.01476463,-0.03126113,0.01
 061160,0.00171904,-0.00160427,-0.00034026,-0.00387644,-0.00102631,0.00
 106854,0.00051209,-0.00067931,0.00017257,-0.00011340,0.00046135,-0.000
 15429,-0.00012725,0.00008154,0.00002046,-0.18852385,-0.16557176,0.0647
 7839,0.66762271,0.00249145,0.00065220,0.00073357,-0.00023851,-0.000207
 48,-0.00028823,0.00021383,0.00034904,-0.00001931,0.00003937,-0.0000136
 8,-0.00000806,0.00015217,0.00002302,0.00000479,-0.00570125,-0.00096014
 ,0.00324649,0.00111264,0.00155674,-0.00072749,0.00110009,0.00089502,-0
 .00128485,-0.00008822,0.00030956,-0.00006288,-0.00009765,-0.00029649,0
 .00001391,-0.00001092,-0.00002857,0.00002955,-0.16550960,-0.48997239,0
 .12140948,0.06504838,0.82376571,0.00060948,-0.00188734,-0.00210372,0.0
 0045007,0.00050246,0.00057906,0.00004346,0.00017913,0.00072110,-0.0001
 5260,-0.00007441,0.00002552,0.00020152,0.00002232,-0.00003357,0.007293
 94,0.01017460,0.00341303,-0.00078719,0.00003338,-0.00032363,0.00052357
 ,0.00018887,-0.00007640,-0.00001127,0.00023724,-0.00014507,-0.00006215
 ,-0.00014121,0.00019511,-0.00000841,-0.00004243,-0.00000880,0.06512499
 ,0.12166593,-0.08909670,-0.15704587,-0.14460312,0.17714484,-0.00097795
 ,0.00386630,0.00068928,-0.00001343,-0.00023328,-0.00022387,0.00025420,
 -0.00040874,-0.00005298,0.00004696,0.00010547,0.00000096,-0.00012346,-
 0.00007064,-0.00003765,-0.01456661,0.02456647,-0.00061481,-0.00491295,
 -0.00162839,0.00198219,0.00063566,-0.00026277,0.00047030,0.00031450,0.
 00056790,-0.00019890,-0.00041483,-0.00036992,-0.00013760,0.00001041,-0
 .00005423,0.00007740,-0.14784132,0.13384823,0.00466079,0.01087408,-0.0
 1321390,0.00111578,0.15380417,0.00048986,0.00012570,-0.00059473,0.0000
 9501,-0.00008487,0.00000153,0.00012549,0.00006454,0.00016896,-0.000010
 40,-0.00000110,0.00000112,0.00007333,0.00000028,-0.00001580,-0.0035050
 1,0.00533305,0.00063679,-0.00152664,0.00038914,0.00025032,0.00066349,0
 .00028370,-0.00007136,-0.00001866,0.00008865,-0.00001923,-0.00000815,-
 0.00002419,-0.00002980,0.00003148,-0.00001349,0.00000356,0.13112268,-0
 .24810573,0.00243167,0.01809591,-0.02020242,0.00004626,-0.14165076,0.2
 6526955,0.00040513,-0.00011707,0.00016978,-0.00003767,-0.00000525,-0.0
 0008680,-0.00002254,0.00006384,0.00006675,0.00004354,0.00000359,-0.000
 02935,0.00004274,0.00002465,-0.00001343,0.00551823,-0.00707490,0.00307
 593,0.00197951,0.00055200,0.00088883,-0.00094879,-0.00022928,0.0002431
 5,-0.00014985,-0.00003747,0.00001909,0.00016345,0.00002929,0.00004618,
 0.00004744,-0.00000170,-0.00002405,0.00520964,0.00099741,-0.04387042,-
 0.00445121,0.00853663,0.00597630,-0.00898241,-0.00461768,0.03025581,0.
 00041886,0.00026786,0.00036353,-0.00000335,-0.00001676,-0.00008130,-0.
 00002063,0.00002487,-0.00006318,0.00003584,0.00003174,-0.00001587,-0.0
 0003057,-0.00000878,-0.00002127,0.00179298,-0.00119370,0.00334432,0.00
 057452,-0.00003408,-0.00018342,-0.00101152,-0.00052301,0.00018526,0.00
 013234,0.00002232,-0.00001416,-0.00012457,-0.00004045,-0.00003485,-0.0
 0004110,-0.00000152,0.00002066,-0.00813607,0.00262013,0.00260484,-0.32
 602572,-0.01751021,0.07899295,0.00049789,-0.00072812,-0.00212491,0.342
 36742,-0.00025643,0.00043854,0.00050571,-0.00000673,-0.00004559,-0.000
 10738,-0.00009240,-0.00014793,-0.00021859,0.00003772,0.00003377,-0.000
 02090,-0.00012084,-0.00001800,-0.00001369,0.00055156,-0.00341528,0.002
 90244,-0.00010653,0.00010477,-0.00001827,-0.00114544,-0.00020472,0.000
 32066,0.00010955,-0.00019081,0.00005338,-0.00001157,0.00014450,-0.0000
 5628,-0.00002293,0.00002360,0.00000069,-0.02993764,0.00179024,0.008110
 90,-0.01275590,-0.05975167,0.00775688,-0.00045115,0.00066448,-0.001489
 61,0.02060182,0.05578780,0.00256197,-0.00003435,-0.00138794,0.00004138
 ,-0.00005640,-0.00013131,0.00014125,0.00054148,0.00055620,0.00003231,0
 .00002332,-0.00005402,0.00026102,0.00005007,-0.00007336,0.00294103,0.0
 0329257,0.01293315,-0.00015578,-0.00006801,-0.00008993,-0.00217643,-0.
 00070522,0.00029985,-0.00011581,0.00015639,-0.00004301,0.00004216,-0.0
 0009572,0.00002516,0.00004786,-0.00002775,-0.00000420,0.00837017,0.000
 04822,0.00148752,0.07811107,0.00875656,-0.05766070,-0.00217611,-0.0013
 8735,-0.00725462,-0.08676993,-0.01106249,0.04895696,-0.00026136,-0.000
 25688,0.00006881,0.00000058,0.00001931,0.00001770,-0.00001969,0.000003
 46,-0.00002199,-0.00000587,-0.00001048,0.00000250,0.00000412,0.0000078
 7,0.00000859,0.00118723,-0.00201097,-0.00219857,-0.00007374,0.00037356
 ,0.00004332,0.00029659,0.00023556,-0.00010131,-0.00009256,-0.00006632,
 0.00002951,0.00008971,0.00005910,0.00000303,0.00002203,0.00001185,-0.0
 0001322,0.01019921,-0.01177300,0.00104041,-0.14434784,0.13295036,0.004
 33606,0.00048034,-0.00197603,0.00350885,-0.01041642,0.02352631,-0.0008
 7001,0.14303292,-0.00007850,-0.00038344,0.00011171,-0.00003839,-0.0000
 2312,-0.00003567,-0.00005609,-0.00002516,-0.00009758,0.00000998,-0.000
 00158,-0.00000582,-0.00003404,-0.00000555,0.00001032,0.00140101,0.0010
 5979,-0.00198418,-0.00146527,0.00001348,0.00040053,0.00014088,0.000357
 07,-0.00011944,-0.00002625,-0.00025831,0.00010385,0.00011994,0.0002033
 0,-0.00007232,0.00000943,0.00003420,-0.00002144,0.01834614,-0.02087684
 ,0.00001062,0.12863312,-0.25608820,0.00571047,-0.00221176,-0.00285279,
 0.00340607,-0.00323187,0.00486322,0.00037868,-0.14114768,0.27358732,-0
 .00115964,0.00006457,0.00091940,-0.00009182,-0.00004291,-0.00001482,-0
 .00005481,-0.00023367,-0.00027548,0.00000531,0.00000588,0.00001056,-0.
 00011555,-0.00002822,0.00003078,-0.00304886,-0.00129566,-0.00791114,0.
 00035320,-0.00006229,0.00019141,0.00107571,0.00073420,-0.00022661,0.00
 000411,-0.00011023,0.00007497,0.00003173,0.00007816,-0.00012027,0.0000
 0812,0.00002654,0.00000173,-0.00390660,0.00781087,0.00570551,0.0049209
 6,0.00451877,-0.03883018,0.00351900,0.00321142,0.01082117,0.00390448,-
 0.00665249,0.00244709,-0.00581423,-0.00778796,0.02731934,-0.10744317,0
 .07592914,-0.00659596,-0.00113057,0.00974159,-0.00277698,-0.03092190,0
 .04866273,-0.00344522,0.00214316,-0.00012969,0.00023649,0.00331427,0.0
 0134362,-0.00120203,0.00799551,-0.00454220,0.00242431,-0.00019472,-0.0
 0207551,-0.00159936,0.00032021,0.00004076,0.00101141,-0.00629401,-0.00
 825649,0.00624250,0.00157489,0.00243745,-0.00110505,-0.00279540,0.0021
 7988,-0.00076449,-0.00240277,0.00027426,0.00100894,0.00147274,-0.00073
 803,-0.00062433,0.00193235,-0.00127347,-0.00020117,-0.00000991,0.00008
 060,-0.00028613,-0.00009525,-0.00037065,0.00036890,0.13253457,0.074149
 48,-0.20660938,0.01291676,0.01625932,-0.02689884,0.00350371,0.01260056
 ,-0.01094231,-0.00051338,0.00019668,0.00017696,-0.00123873,0.00077201,
 0.00142159,0.00071827,0.02149870,-0.04665920,-0.00017641,-0.00570227,-
 0.00437398,-0.00616650,0.00037260,0.00249330,-0.00000060,0.00115669,0.
 00191076,-0.00060560,0.00064602,0.00086320,-0.00057328,0.00104221,-0.0
 0096194,0.00011487,0.00388897,0.00114762,0.00018039,-0.00095187,-0.000
 03027,0.00023096,-0.00239883,-0.00093448,-0.00004052,-0.00028026,-0.00
 007692,0.00019001,0.00005398,0.00039661,-0.00023698,-0.12330399,0.2890
 7727,-0.00479842,0.00974512,-0.07292309,-0.01879680,0.03195956,0.00700
 299,0.00657369,-0.01017815,0.00563555,-0.00231725,-0.00049568,0.001112
 96,-0.00003546,0.00075574,-0.00020283,0.01172710,-0.02330053,0.0048738
 0,-0.00321397,-0.00386354,-0.00210025,0.00182483,0.00162995,0.00291492
 ,0.00194026,0.00275653,-0.00045103,-0.00103368,-0.00074836,0.00098758,
 0.00051010,-0.00049961,-0.00013618,0.00056614,0.00083223,0.00083045,-0
 .00001673,-0.00025581,0.00022381,-0.00009136,-0.00001568,-0.00028434,-
 0.00010715,-0.00001096,-0.00000686,-0.00003946,-0.00000784,-0.00014347
 ,0.00730816,-0.00830297,0.05266600\\0.00001950,-0.00001634,-0.00000191
 ,-0.00000047,-0.00000031,-0.00000105,0.00000216,-0.00001163,-0.0000002
 0,-0.00000212,0.00000325,0.00000346,0.00000157,0.00000162,-0.00000071,
 -0.00001715,0.00000133,0.00000544,0.00000222,0.00000270,-0.00000112,-0
 .00000087,-0.00000234,-0.00000041,-0.00000308,0.00002192,-0.00000633,0
 .00000529,-0.00000889,0.00000175,-0.00000703,-0.00000712,0.00000349,0.
 00000954,-0.00000033,-0.00000169,-0.00000431,0.00000089,0.00000089,-0.
 00000077,0.00000011,-0.00000120,0.00000270,-0.00000073,-0.00000131,0.0
 0000053,0.00000191,-0.00000083,-0.00000771,0.00001395,0.00000173\\\@


 THERE ARE PEOPLE SO ADDICTED TO EXAGERATING THEY
 CAN'T TELL THE TRUTH WITHOUT LYING. -- FORTUNE COOKIE
 Job cpu time:       0 days  0 hours 13 minutes 22.3 seconds.
 Elapsed time:       0 days  0 hours  0 minutes 52.2 seconds.
 File lengths (MBytes):  RWF=     47 Int=      0 D2E=      0 Chk=      3 Scr=      1
 Normal termination of Gaussian 16 at Sat Dec 24 13:36:55 2022.
