 Entering Gaussian System, Link 0=g16
 Input=conformer_final_03.gjf
 Output=conformer_final_03.out
 Initial command:
 /n/sw/g16_nehalem/g16/l1.exe "/scratch/cwagen_conformer_final_03/Gau-321062.inp" -scrdir="/scratch/cwagen_conformer_final_03/"
 Entering Link 1 = /n/sw/g16_nehalem/g16/l1.exe PID=    321063.
  
 Copyright (c) 1988,1990,1992,1993,1995,1998,2003,2009,2016,
            Gaussian, Inc.  All Rights Reserved.
  
 This is part of the Gaussian(R) 16 program.  It is based on
 the Gaussian(R) 09 system (copyright 2009, Gaussian, Inc.),
 the Gaussian(R) 03 system (copyright 2003, Gaussian, Inc.),
 the Gaussian(R) 98 system (copyright 1998, Gaussian, Inc.),
 the Gaussian(R) 94 system (copyright 1995, Gaussian, Inc.),
 the Gaussian 92(TM) system (copyright 1992, Gaussian, Inc.),
 the Gaussian 90(TM) system (copyright 1990, Gaussian, Inc.),
 the Gaussian 88(TM) system (copyright 1988, Gaussian, Inc.),
 the Gaussian 86(TM) system (copyright 1986, Carnegie Mellon
 University), and the Gaussian 82(TM) system (copyright 1983,
 Carnegie Mellon University). Gaussian is a federally registered
 trademark of Gaussian, Inc.
  
 This software contains proprietary and confidential information,
 including trade secrets, belonging to Gaussian, Inc.
  
 This software is provided under written license and may be
 used, copied, transmitted, or stored only in accord with that
 written license.
  
 The following legend is applicable only to US Government
 contracts under FAR:
  
                    RESTRICTED RIGHTS LEGEND
  
 Use, reproduction and disclosure by the US Government is
 subject to restrictions as set forth in subparagraphs (a)
 and (c) of the Commercial Computer Software - Restricted
 Rights clause in FAR 52.227-19.
  
 Gaussian, Inc.
 340 Quinnipiac St., Bldg. 40, Wallingford CT 06492
  
  
 ---------------------------------------------------------------
 Warning -- This program may not be used in any manner that
 competes with the business of Gaussian, Inc. or will provide
 assistance to any competitor of Gaussian, Inc.  The licensee
 of this program is prohibited from giving any competitor of
 Gaussian, Inc. access to this program.  By using this program,
 the user acknowledges that Gaussian, Inc. is engaged in the
 business of creating and licensing software in the field of
 computational chemistry and represents and warrants to the
 licensee that it is not a competitor of Gaussian, Inc. and that
 it will not use this program in any manner prohibited above.
 ---------------------------------------------------------------
  

 Cite this work as:
 Gaussian 16, Revision A.03,
 M. J. Frisch, G. W. Trucks, H. B. Schlegel, G. E. Scuseria, 
 M. A. Robb, J. R. Cheeseman, G. Scalmani, V. Barone, 
 G. A. Petersson, H. Nakatsuji, X. Li, M. Caricato, A. V. Marenich, 
 J. Bloino, B. G. Janesko, R. Gomperts, B. Mennucci, H. P. Hratchian, 
 J. V. Ortiz, A. F. Izmaylov, J. L. Sonnenberg, D. Williams-Young, 
 F. Ding, F. Lipparini, F. Egidi, J. Goings, B. Peng, A. Petrone, 
 T. Henderson, D. Ranasinghe, V. G. Zakrzewski, J. Gao, N. Rega, 
 G. Zheng, W. Liang, M. Hada, M. Ehara, K. Toyota, R. Fukuda, 
 J. Hasegawa, M. Ishida, T. Nakajima, Y. Honda, O. Kitao, H. Nakai, 
 T. Vreven, K. Throssell, J. A. Montgomery, Jr., J. E. Peralta, 
 F. Ogliaro, M. J. Bearpark, J. J. Heyd, E. N. Brothers, K. N. Kudin, 
 V. N. Staroverov, T. A. Keith, R. Kobayashi, J. Normand, 
 K. Raghavachari, A. P. Rendell, J. C. Burant, S. S. Iyengar, 
 J. Tomasi, M. Cossi, J. M. Millam, M. Klene, C. Adamo, R. Cammi, 
 J. W. Ochterski, R. L. Martin, K. Morokuma, O. Farkas, 
 J. B. Foresman, and D. J. Fox, Gaussian, Inc., Wallingford CT, 2016.
 
 ******************************************
 Gaussian 16:  ES64L-G16RevA.03 25-Dec-2016
                30-Dec-2019 
 ******************************************
 %nprocshared=16
 Will use up to   16 processors via shared memory.
 %mem=32GB
 ------------------------------------------------------------------
 #p opt freq=noraman m062x/6-31g(d) scrf=(smd,solvent=diethylether)
 ------------------------------------------------------------------
 1/18=20,19=15,26=3,38=1/1,3;
 2/9=110,12=2,17=6,18=5,40=1/2;
 3/5=1,6=6,7=1,11=2,25=1,30=1,70=32201,71=1,72=8,74=-55/1,2,3;
 4//1;
 5/5=2,38=5,53=8/2;
 6/7=2,8=2,9=2,10=2,28=1/1;
 7//1,2,3,16;
 1/18=20,19=15,26=3/3(2);
 2/9=110/2;
 99//99;
 2/9=110/2;
 3/5=1,6=6,7=1,11=2,25=1,30=1,70=32205,71=1,72=8,74=-55/1,2,3;
 4/5=5,16=3,69=1/1;
 5/5=2,38=5,53=8/2;
 7//1,2,3,16;
 1/18=20,19=15,26=3/3(-5);
 2/9=110/2;
 6/7=2,8=2,9=2,10=2,19=2,28=1/1;
 99/9=1/99;
 Leave Link    1 at Mon Dec 30 11:32:50 2019, MaxMem=  4294967296 cpu:               1.0 elap:               0.1
 (Enter /n/sw/g16_nehalem/g16/l101.exe)
 -----
 title
 -----
 Symbolic Z-matrix:
 Charge =  0 Multiplicity = 1
 7                     2.76439  -0.53179  -0.38122 
 1                     2.57657  -1.1776   -1.14024 
 6                     1.64326   0.23253   0.08583 
 1                     1.67137   0.29802   1.18032 
 6                     1.72067   1.66396  -0.44279 
 6                     0.35117  -0.44584  -0.38232 
 1                     1.6082    1.73357  -1.52842 
 8                     0.3712   -1.38613  -1.16518 
 7                    -0.79214   0.06917   0.1159 
 1                    -0.78628   0.89952   0.7001 
 6                    -2.07404  -0.40987  -0.33775 
 1                    -2.06802  -0.56954  -1.42168 
 6                    -2.40381  -1.74475   0.33102 
 6                    -3.11872   0.63739   0.0321 
 1                    -1.56051  -2.43767   0.29791 
 8                    -2.86184   1.63533   0.66095 
 8                    -4.3202    0.30327  -0.41185 
 6                    -5.37631   1.21499  -0.07056 
 1                    -6.28064   0.78794  -0.49988 
 1                    -5.46648   1.29513   1.01435 
 1                    -5.17534   2.19942  -0.49769 
 9                    -3.47455  -2.31621  -0.26769 
 9                    -2.73433  -1.51191   1.63103 
 9                     0.74199   2.41214   0.1474 
 9                     2.90801   2.20432  -0.08976 
 6                     3.87722  -0.70259   0.39806 
 8                     4.02684  -0.11692   1.45661 
 6                     4.8823   -1.68987  -0.14882 
 1                     4.67633  -2.67757   0.27688 
 1                     4.84041  -1.7649   -1.23786 
 1                     5.88285  -1.38625   0.1619 
 
 ITRead=  0  0  0  0  0  0  0  0  0  0  0  0  0  0  0  0  0  0  0  0
 ITRead=  0  0  0  0  0  0  0  0  0  0  0
 MicOpt= -1 -1 -1 -1 -1 -1 -1 -1 -1 -1 -1 -1 -1 -1 -1 -1 -1 -1 -1 -1
 MicOpt= -1 -1 -1 -1 -1 -1 -1 -1 -1 -1 -1
 NAtoms=     31 NQM=       31 NQMF=       0 NMMI=      0 NMMIF=      0
                NMic=       0 NMicF=      0.
                    Isotopes and Nuclear Properties:
 (Nuclear quadrupole moments (NQMom) in fm**2, nuclear magnetic moments (NMagM)
  in nuclear magnetons)

  Atom         1           2           3           4           5           6           7           8           9          10
 IAtWgt=          14           1          12           1          12          12           1          16          14           1
 AtmWgt=  14.0030740   1.0078250  12.0000000   1.0078250  12.0000000  12.0000000   1.0078250  15.9949146  14.0030740   1.0078250
 NucSpn=           2           1           0           1           0           0           1           0           2           1
 AtZEff=   0.0000000   0.0000000   0.0000000   0.0000000   0.0000000   0.0000000   0.0000000   0.0000000   0.0000000   0.0000000
 NQMom=    2.0440000   0.0000000   0.0000000   0.0000000   0.0000000   0.0000000   0.0000000   0.0000000   2.0440000   0.0000000
 NMagM=    0.4037610   2.7928460   0.0000000   2.7928460   0.0000000   0.0000000   2.7928460   0.0000000   0.4037610   2.7928460
 AtZNuc=   7.0000000   1.0000000   6.0000000   1.0000000   6.0000000   6.0000000   1.0000000   8.0000000   7.0000000   1.0000000

  Atom        11          12          13          14          15          16          17          18          19          20
 IAtWgt=          12           1          12          12           1          16          16          12           1           1
 AtmWgt=  12.0000000   1.0078250  12.0000000  12.0000000   1.0078250  15.9949146  15.9949146  12.0000000   1.0078250   1.0078250
 NucSpn=           0           1           0           0           1           0           0           0           1           1
 AtZEff=   0.0000000   0.0000000   0.0000000   0.0000000   0.0000000   0.0000000   0.0000000   0.0000000   0.0000000   0.0000000
 NQMom=    0.0000000   0.0000000   0.0000000   0.0000000   0.0000000   0.0000000   0.0000000   0.0000000   0.0000000   0.0000000
 NMagM=    0.0000000   2.7928460   0.0000000   0.0000000   2.7928460   0.0000000   0.0000000   0.0000000   2.7928460   2.7928460
 AtZNuc=   6.0000000   1.0000000   6.0000000   6.0000000   1.0000000   8.0000000   8.0000000   6.0000000   1.0000000   1.0000000

  Atom        21          22          23          24          25          26          27          28          29          30
 IAtWgt=           1          19          19          19          19          12          16          12           1           1
 AtmWgt=   1.0078250  18.9984033  18.9984033  18.9984033  18.9984033  12.0000000  15.9949146  12.0000000   1.0078250   1.0078250
 NucSpn=           1           1           1           1           1           0           0           0           1           1
 AtZEff=   0.0000000   0.0000000   0.0000000   0.0000000   0.0000000   0.0000000   0.0000000   0.0000000   0.0000000   0.0000000
 NQMom=    0.0000000   0.0000000   0.0000000   0.0000000   0.0000000   0.0000000   0.0000000   0.0000000   0.0000000   0.0000000
 NMagM=    2.7928460   2.6288670   2.6288670   2.6288670   2.6288670   0.0000000   0.0000000   0.0000000   2.7928460   2.7928460
 AtZNuc=   1.0000000   9.0000000   9.0000000   9.0000000   9.0000000   6.0000000   8.0000000   6.0000000   1.0000000   1.0000000

  Atom        31
 IAtWgt=           1
 AtmWgt=   1.0078250
 NucSpn=           1
 AtZEff=   0.0000000
 NQMom=    0.0000000
 NMagM=    2.7928460
 AtZNuc=   1.0000000
 Leave Link  101 at Mon Dec 30 11:32:51 2019, MaxMem=  4294967296 cpu:               5.7 elap:               0.4
 (Enter /n/sw/g16_nehalem/g16/l103.exe)

 GradGradGradGradGradGradGradGradGradGradGradGradGradGradGradGradGradGrad
 Berny optimization.
 Initialization pass.
                           ----------------------------
                           !    Initial Parameters    !
                           ! (Angstroms and Degrees)  !
 --------------------------                            --------------------------
 ! Name  Definition              Value          Derivative Info.                !
 --------------------------------------------------------------------------------
 ! R1    R(1,2)                  1.0141         estimate D2E/DX2                !
 ! R2    R(1,3)                  1.435          estimate D2E/DX2                !
 ! R3    R(1,26)                 1.3692         estimate D2E/DX2                !
 ! R4    R(3,4)                  1.0968         estimate D2E/DX2                !
 ! R5    R(3,5)                  1.5279         estimate D2E/DX2                !
 ! R6    R(3,6)                  1.5326         estimate D2E/DX2                !
 ! R7    R(5,7)                  1.0937         estimate D2E/DX2                !
 ! R8    R(5,24)                 1.366          estimate D2E/DX2                !
 ! R9    R(5,25)                 1.3514         estimate D2E/DX2                !
 ! R10   R(6,8)                  1.2237         estimate D2E/DX2                !
 ! R11   R(6,9)                  1.3493         estimate D2E/DX2                !
 ! R12   R(9,10)                 1.0153         estimate D2E/DX2                !
 ! R13   R(9,11)                 1.4417         estimate D2E/DX2                !
 ! R14   R(11,12)                1.0956         estimate D2E/DX2                !
 ! R15   R(11,13)                1.529          estimate D2E/DX2                !
 ! R16   R(11,14)                1.5248         estimate D2E/DX2                !
 ! R17   R(13,15)                1.092          estimate D2E/DX2                !
 ! R18   R(13,22)                1.3533         estimate D2E/DX2                !
 ! R19   R(13,23)                1.3614         estimate D2E/DX2                !
 ! R20   R(14,16)                1.2072         estimate D2E/DX2                !
 ! R21   R(14,17)                1.3237         estimate D2E/DX2                !
 ! R22   R(17,18)                1.4363         estimate D2E/DX2                !
 ! R23   R(18,19)                1.0884         estimate D2E/DX2                !
 ! R24   R(18,20)                1.0916         estimate D2E/DX2                !
 ! R25   R(18,21)                1.0918         estimate D2E/DX2                !
 ! R26   R(26,27)                1.219          estimate D2E/DX2                !
 ! R27   R(26,28)                1.5113         estimate D2E/DX2                !
 ! R28   R(28,29)                1.0951         estimate D2E/DX2                !
 ! R29   R(28,30)                1.0924         estimate D2E/DX2                !
 ! R30   R(28,31)                1.0908         estimate D2E/DX2                !
 ! A1    A(2,1,3)              115.9815         estimate D2E/DX2                !
 ! A2    A(2,1,26)             119.8052         estimate D2E/DX2                !
 ! A3    A(3,1,26)             121.0754         estimate D2E/DX2                !
 ! A4    A(1,3,4)              109.6674         estimate D2E/DX2                !
 ! A5    A(1,3,5)              110.2924         estimate D2E/DX2                !
 ! A6    A(1,3,6)              108.8744         estimate D2E/DX2                !
 ! A7    A(4,3,5)              106.7392         estimate D2E/DX2                !
 ! A8    A(4,3,6)              110.6623         estimate D2E/DX2                !
 ! A9    A(5,3,6)              110.5919         estimate D2E/DX2                !
 ! A10   A(3,5,7)              113.4449         estimate D2E/DX2                !
 ! A11   A(3,5,24)             109.1083         estimate D2E/DX2                !
 ! A12   A(3,5,25)             109.1915         estimate D2E/DX2                !
 ! A13   A(7,5,24)             108.6842         estimate D2E/DX2                !
 ! A14   A(7,5,25)             108.9178         estimate D2E/DX2                !
 ! A15   A(24,5,25)            107.3136         estimate D2E/DX2                !
 ! A16   A(3,6,8)              121.4492         estimate D2E/DX2                !
 ! A17   A(3,6,9)              115.6345         estimate D2E/DX2                !
 ! A18   A(8,6,9)              122.9142         estimate D2E/DX2                !
 ! A19   A(6,9,10)             121.3142         estimate D2E/DX2                !
 ! A20   A(6,9,11)             120.6902         estimate D2E/DX2                !
 ! A21   A(10,9,11)            117.2544         estimate D2E/DX2                !
 ! A22   A(9,11,12)            110.7833         estimate D2E/DX2                !
 ! A23   A(9,11,13)            110.1347         estimate D2E/DX2                !
 ! A24   A(9,11,14)            107.7372         estimate D2E/DX2                !
 ! A25   A(12,11,13)           107.8584         estimate D2E/DX2                !
 ! A26   A(12,11,14)           110.11           estimate D2E/DX2                !
 ! A27   A(13,11,14)           110.2284         estimate D2E/DX2                !
 ! A28   A(11,13,15)           111.9726         estimate D2E/DX2                !
 ! A29   A(11,13,22)           110.2299         estimate D2E/DX2                !
 ! A30   A(11,13,23)           108.7057         estimate D2E/DX2                !
 ! A31   A(15,13,22)           109.2475         estimate D2E/DX2                !
 ! A32   A(15,13,23)           108.9636         estimate D2E/DX2                !
 ! A33   A(22,13,23)           107.6128         estimate D2E/DX2                !
 ! A34   A(11,14,16)           123.2535         estimate D2E/DX2                !
 ! A35   A(11,14,17)           111.5403         estimate D2E/DX2                !
 ! A36   A(16,14,17)           125.204          estimate D2E/DX2                !
 ! A37   A(14,17,18)           115.3069         estimate D2E/DX2                !
 ! A38   A(17,18,19)           105.5547         estimate D2E/DX2                !
 ! A39   A(17,18,20)           110.09           estimate D2E/DX2                !
 ! A40   A(17,18,21)           110.1236         estimate D2E/DX2                !
 ! A41   A(19,18,20)           110.6233         estimate D2E/DX2                !
 ! A42   A(19,18,21)           110.6362         estimate D2E/DX2                !
 ! A43   A(20,18,21)           109.7454         estimate D2E/DX2                !
 ! A44   A(1,26,27)            122.2796         estimate D2E/DX2                !
 ! A45   A(1,26,28)            114.5853         estimate D2E/DX2                !
 ! A46   A(27,26,28)           123.1255         estimate D2E/DX2                !
 ! A47   A(26,28,29)           108.8719         estimate D2E/DX2                !
 ! A48   A(26,28,30)           112.3402         estimate D2E/DX2                !
 ! A49   A(26,28,31)           108.9719         estimate D2E/DX2                !
 ! A50   A(29,28,30)           108.5648         estimate D2E/DX2                !
 ! A51   A(29,28,31)           108.2314         estimate D2E/DX2                !
 ! A52   A(30,28,31)           109.7714         estimate D2E/DX2                !
 ! D1    D(2,1,3,4)            139.3458         estimate D2E/DX2                !
 ! D2    D(2,1,3,5)           -103.3797         estimate D2E/DX2                !
 ! D3    D(2,1,3,6)             18.1341         estimate D2E/DX2                !
 ! D4    D(26,1,3,4)           -20.5844         estimate D2E/DX2                !
 ! D5    D(26,1,3,5)            96.69           estimate D2E/DX2                !
 ! D6    D(26,1,3,6)          -141.7962         estimate D2E/DX2                !
 ! D7    D(2,1,26,27)         -166.4452         estimate D2E/DX2                !
 ! D8    D(2,1,26,28)           12.46           estimate D2E/DX2                !
 ! D9    D(3,1,26,27)           -7.2698         estimate D2E/DX2                !
 ! D10   D(3,1,26,28)          171.6354         estimate D2E/DX2                !
 ! D11   D(1,3,5,7)             66.2316         estimate D2E/DX2                !
 ! D12   D(1,3,5,24)          -172.4507         estimate D2E/DX2                !
 ! D13   D(1,3,5,25)           -55.4452         estimate D2E/DX2                !
 ! D14   D(4,3,5,7)           -174.6958         estimate D2E/DX2                !
 ! D15   D(4,3,5,24)           -53.3782         estimate D2E/DX2                !
 ! D16   D(4,3,5,25)            63.6273         estimate D2E/DX2                !
 ! D17   D(6,3,5,7)            -54.2568         estimate D2E/DX2                !
 ! D18   D(6,3,5,24)            67.0608         estimate D2E/DX2                !
 ! D19   D(6,3,5,25)          -175.9337         estimate D2E/DX2                !
 ! D20   D(1,3,6,8)             -8.1606         estimate D2E/DX2                !
 ! D21   D(1,3,6,9)            172.3569         estimate D2E/DX2                !
 ! D22   D(4,3,6,8)           -128.762          estimate D2E/DX2                !
 ! D23   D(4,3,6,9)             51.7555         estimate D2E/DX2                !
 ! D24   D(5,3,6,8)            113.1705         estimate D2E/DX2                !
 ! D25   D(5,3,6,9)            -66.3121         estimate D2E/DX2                !
 ! D26   D(3,6,9,10)             4.844          estimate D2E/DX2                !
 ! D27   D(3,6,9,11)           174.7102         estimate D2E/DX2                !
 ! D28   D(8,6,9,10)          -174.6302         estimate D2E/DX2                !
 ! D29   D(8,6,9,11)            -4.764          estimate D2E/DX2                !
 ! D30   D(6,9,11,12)          -41.0104         estimate D2E/DX2                !
 ! D31   D(6,9,11,13)           78.2323         estimate D2E/DX2                !
 ! D32   D(6,9,11,14)         -161.5081         estimate D2E/DX2                !
 ! D33   D(10,9,11,12)         129.2548         estimate D2E/DX2                !
 ! D34   D(10,9,11,13)        -111.5025         estimate D2E/DX2                !
 ! D35   D(10,9,11,14)           8.7571         estimate D2E/DX2                !
 ! D36   D(9,11,13,15)         -46.8859         estimate D2E/DX2                !
 ! D37   D(9,11,13,22)        -168.7243         estimate D2E/DX2                !
 ! D38   D(9,11,13,23)          73.5501         estimate D2E/DX2                !
 ! D39   D(12,11,13,15)         74.1242         estimate D2E/DX2                !
 ! D40   D(12,11,13,22)        -47.7142         estimate D2E/DX2                !
 ! D41   D(12,11,13,23)       -165.4398         estimate D2E/DX2                !
 ! D42   D(14,11,13,15)       -165.6308         estimate D2E/DX2                !
 ! D43   D(14,11,13,22)         72.5307         estimate D2E/DX2                !
 ! D44   D(14,11,13,23)        -45.1949         estimate D2E/DX2                !
 ! D45   D(9,11,14,16)          -3.6979         estimate D2E/DX2                !
 ! D46   D(9,11,14,17)         176.8098         estimate D2E/DX2                !
 ! D47   D(12,11,14,16)       -124.6182         estimate D2E/DX2                !
 ! D48   D(12,11,14,17)         55.8895         estimate D2E/DX2                !
 ! D49   D(13,11,14,16)        116.5026         estimate D2E/DX2                !
 ! D50   D(13,11,14,17)        -62.9897         estimate D2E/DX2                !
 ! D51   D(11,14,17,18)        178.0939         estimate D2E/DX2                !
 ! D52   D(16,14,17,18)         -1.3866         estimate D2E/DX2                !
 ! D53   D(14,17,18,19)       -179.4765         estimate D2E/DX2                !
 ! D54   D(14,17,18,20)        -60.0631         estimate D2E/DX2                !
 ! D55   D(14,17,18,21)         61.0771         estimate D2E/DX2                !
 ! D56   D(1,26,28,29)         -93.0852         estimate D2E/DX2                !
 ! D57   D(1,26,28,30)          27.1959         estimate D2E/DX2                !
 ! D58   D(1,26,28,31)         149.0664         estimate D2E/DX2                !
 ! D59   D(27,26,28,29)         85.8096         estimate D2E/DX2                !
 ! D60   D(27,26,28,30)       -153.9094         estimate D2E/DX2                !
 ! D61   D(27,26,28,31)        -32.0388         estimate D2E/DX2                !
 --------------------------------------------------------------------------------
 Trust Radius=3.00D-01 FncErr=1.00D-07 GrdErr=1.00D-06 EigMax=2.50D+02 EigMin=1.00D-04
 Number of steps in this run=    153 maximum allowed number of steps=    186.
 GradGradGradGradGradGradGradGradGradGradGradGradGradGradGradGradGradGrad

 Leave Link  103 at Mon Dec 30 11:32:51 2019, MaxMem=  4294967296 cpu:               0.7 elap:               0.1
 (Enter /n/sw/g16_nehalem/g16/l202.exe)
                          Input orientation:                          
 ---------------------------------------------------------------------
 Center     Atomic      Atomic             Coordinates (Angstroms)
 Number     Number       Type             X           Y           Z
 ---------------------------------------------------------------------
      1          7           0        2.764386   -0.531790   -0.381217
      2          1           0        2.576565   -1.177595   -1.140241
      3          6           0        1.643258    0.232528    0.085832
      4          1           0        1.671369    0.298018    1.180321
      5          6           0        1.720666    1.663964   -0.442795
      6          6           0        0.351172   -0.445838   -0.382325
      7          1           0        1.608195    1.733575   -1.528425
      8          8           0        0.371201   -1.386132   -1.165185
      9          7           0       -0.792142    0.069173    0.115896
     10          1           0       -0.786278    0.899523    0.700101
     11          6           0       -2.074036   -0.409871   -0.337750
     12          1           0       -2.068020   -0.569542   -1.421683
     13          6           0       -2.403813   -1.744748    0.331023
     14          6           0       -3.118719    0.637393    0.032099
     15          1           0       -1.560508   -2.437673    0.297911
     16          8           0       -2.861844    1.635331    0.660945
     17          8           0       -4.320204    0.303273   -0.411847
     18          6           0       -5.376307    1.214989   -0.070560
     19          1           0       -6.280640    0.787936   -0.499884
     20          1           0       -5.466481    1.295130    1.014346
     21          1           0       -5.175343    2.199417   -0.497688
     22          9           0       -3.474552   -2.316208   -0.267692
     23          9           0       -2.734328   -1.511911    1.631034
     24          9           0        0.741985    2.412140    0.147401
     25          9           0        2.908009    2.204322   -0.089762
     26          6           0        3.877215   -0.702586    0.398063
     27          8           0        4.026835   -0.116922    1.456608
     28          6           0        4.882303   -1.689873   -0.148819
     29          1           0        4.676328   -2.677569    0.276881
     30          1           0        4.840412   -1.764901   -1.237860
     31          1           0        5.882848   -1.386245    0.161903
 ---------------------------------------------------------------------
                    Distance matrix (angstroms):
                    1          2          3          4          5
     1  N    0.000000
     2  H    1.014129   0.000000
     3  C    1.435007   2.088723   0.000000
     4  H    2.078862   2.895138   1.096807   0.000000
     5  C    2.431970   3.048516   1.527890   2.121967   0.000000
     6  C    2.414744   2.462170   1.532592   2.176719   2.516036
     7  H    2.790115   3.092465   2.204585   3.066288   1.093658
     8  O    2.659293   2.215342   2.408990   3.166733   3.412622
     9  N    3.641040   3.805325   2.441058   2.693373   3.028151
    10  H    3.978080   4.360045   2.593232   2.575354   2.859257
    11  C    4.840153   4.781368   3.796100   4.102890   4.325689
    12  H    4.943293   4.692665   4.085279   4.637469   4.505653
    13  C    5.356196   5.224026   4.510934   4.636950   5.406426
    14  C    6.012383   6.091373   4.779459   4.937462   4.969811
    15  H    4.774758   4.557571   4.176011   4.325238   5.304543
    16  O    6.118577   6.382250   4.753373   4.754806   4.713646
    17  O    7.133701   7.091470   5.984611   6.199514   6.192297
    18  C    8.331784   8.373580   7.089710   7.216320   7.120896
    19  H    9.141567   9.095243   7.964904   8.142331   8.049322
    20  H    8.545900   8.686035   7.248424   7.209069   7.342641
    21  H    8.397163   8.479927   7.120567   7.301267   6.916984
    22  F    6.490099   6.218826   5.728264   5.950750   6.546963
    23  F    5.936804   5.999776   4.959231   4.784261   5.850976
    24  F    3.610577   4.232009   2.359405   2.529860   1.365985
    25  F    2.755337   3.556786   2.349127   2.603149   1.351445
    26  C    1.369247   2.069711   2.441821   2.545367   3.310333
    27  O    2.267927   3.157837   2.771747   2.407640   3.478175
    28  C    2.425023   2.561596   3.773871   4.003551   4.618505
    29  H    2.948386   2.944004   4.207693   4.324361   5.301206
    30  H    2.562086   2.340825   3.995457   4.488437   4.703409
    31  H    3.278701   3.559582   4.538759   4.648707   5.195497
                    6          7          8          9         10
     6  C    0.000000
     7  H    2.764687   0.000000
     8  O    1.223693   3.375599   0.000000
     9  N    1.349306   3.351961   2.261072   0.000000
    10  H    2.067712   3.375718   3.169112   1.015289   0.000000
    11  C    2.425884   4.423900   2.759876   1.441711   2.109495
    12  H    2.635917   4.339389   2.585036   2.097611   2.881490
    13  C    3.128254   5.626054   3.173003   2.435995   3.121667
    14  C    3.658590   5.097114   4.208050   2.396426   2.440332
    15  H    2.843352   5.547566   2.641569   2.628268   3.449357
    16  O    3.967764   4.978377   4.787125   2.652093   2.202481
    17  O    4.731151   6.199873   5.042905   3.574988   3.752409
    18  C    5.971563   7.153850   6.402959   4.728872   4.664955
    19  H    6.746625   8.011607   7.029665   5.569508   5.624983
    20  H    6.231111   7.530535   6.783661   4.915244   4.707394
    21  H    6.128054   6.877195   6.638212   4.911912   4.731629
    22  F    4.259999   6.620008   4.057136   3.610056   4.301670
    23  F    3.835419   6.274780   4.180786   2.927039   3.236750
    24  F    2.932811   2.004785   4.035744   2.800720   2.220152
    25  F    3.694098   1.995212   4.525847   4.276947   3.996766
    26  C    3.620484   3.846386   3.899117   4.741110   4.940258
    27  O    4.123149   4.264338   4.674222   5.005465   4.977100
    28  C    4.704604   4.933872   4.634145   5.946734   6.289551
    29  H    4.911431   5.668400   4.720327   6.121656   6.543299
    30  H    4.756589   4.771896   4.485822   6.076360   6.520314
    31  H    5.637374   5.555461   5.669164   6.831973   7.070476
                   11         12         13         14         15
    11  C    0.000000
    12  H    1.095647   0.000000
    13  C    1.529022   2.136784   0.000000
    14  C    1.524766   2.161977   2.505003   0.000000
    15  H    2.186266   2.589302   1.091973   3.457558   0.000000
    16  O    2.408503   3.135117   3.426890   1.207192   4.291227
    17  O    2.357824   2.617997   2.901517   1.323741   3.953791
    18  C    3.690062   3.994352   4.213909   2.332565   5.295095
    19  H    4.376819   4.520910   4.704751   3.209893   5.772406
    20  H    4.030369   4.578294   4.368950   2.628576   5.450112
    21  H    4.056115   4.263374   4.891276   2.636341   5.933179
    22  F    2.366532   2.522076   1.353332   2.990025   1.999556
    23  F    2.350870   3.263603   1.361426   2.706263   2.003024
    24  F    4.016104   4.387320   5.216271   4.250654   5.370737
    25  F    5.631720   5.850573   6.632320   6.228288   6.454925
    26  C    6.003706   6.218922   6.367253   7.132501   5.708712
    27  O    6.366017   6.755493   6.728298   7.325105   6.160103
    28  C    7.075645   7.154182   7.302106   8.334582   6.501430
    29  H    7.147562   7.267402   7.141532   8.474175   6.241483
    30  H    7.103231   7.013495   7.412192   8.410207   6.616872
    31  H    8.032121   8.148070   8.296136   9.227143   7.518480
                   16         17         18         19         20
    16  O    0.000000
    17  O    2.247682   0.000000
    18  C    2.652228   1.436334   0.000000
    19  H    3.708607   2.021375   1.088353   0.000000
    20  H    2.650427   2.081288   1.091593   1.792482   0.000000
    21  H    2.648188   2.081825   1.091752   1.792753   1.785705
    22  F    4.105172   2.756372   4.015580   4.190913   4.318931
    23  F    3.295825   3.159629   4.160704   4.733544   3.965406
    24  F    3.722196   5.512335   6.238123   7.237008   6.367445
    25  F    5.846239   7.480962   8.343203   9.306214   8.495750
    26  C    7.137918   8.298517   9.461732  10.305823   9.574723
    27  O    7.152438   8.563921   9.619008  10.530464   9.607941
    28  C    8.466671   9.419551  10.662243  11.440021  10.833306
    29  H    8.693253   9.502492  10.785555  11.518170  10.918002
    30  H    8.630862   9.427435  10.706245  11.434132  10.984911
    31  H    9.265452  10.357892  11.558072  12.373983  11.692891
                   21         22         23         24         25
    21  H    0.000000
    22  F    4.830782   0.000000
    23  F    4.925847   2.190887   0.000000
    24  F    5.956187   6.348918   5.448311   0.000000
    25  F    8.093640   7.823294   6.971907   2.188857   0.000000
    26  C    9.548445   7.556155   6.774048   4.426513   3.102813
    27  O    9.688384   8.005053   6.905776   4.347461   3.005196
    28  C   10.789093   8.381137   7.823849   5.835794   4.366472
    29  H   11.019999   8.177040   7.623012   6.434358   5.205213
    30  H   10.797176   8.389505   8.103780   6.013628   4.561474
    31  H   11.643694   9.413305   8.742417   6.391902   4.669601
                   26         27         28         29         30
    26  C    0.000000
    27  O    1.218977   0.000000
    28  C    1.511297   2.404869   0.000000
    29  H    2.133969   2.893183   1.095075   0.000000
    30  H    2.175432   3.261579   1.092426   1.776042   0.000000
    31  H    2.132071   2.594653   1.090793   1.770996   1.785886
                   31
    31  H    0.000000
 Stoichiometry    C9H12F4N2O4
 Framework group  C1[X(C9H12F4N2O4)]
 Deg. of freedom    87
 Full point group                 C1      NOp   1
 Largest Abelian subgroup         C1      NOp   1
 Largest concise Abelian subgroup C1      NOp   1
                         Standard orientation:                         
 ---------------------------------------------------------------------
 Center     Atomic      Atomic             Coordinates (Angstroms)
 Number     Number       Type             X           Y           Z
 ---------------------------------------------------------------------
      1          7           0        2.997950   -0.512040   -0.444393
      2          1           0        2.810129   -1.157845   -1.203417
      3          6           0        1.876822    0.252278    0.022656
      4          1           0        1.904933    0.317768    1.117145
      5          6           0        1.954230    1.683714   -0.505971
      6          6           0        0.584736   -0.426088   -0.445501
      7          1           0        1.841759    1.753325   -1.591601
      8          8           0        0.604765   -1.366382   -1.228361
      9          7           0       -0.558578    0.088923    0.052720
     10          1           0       -0.552714    0.919273    0.636925
     11          6           0       -1.840472   -0.390121   -0.400926
     12          1           0       -1.834456   -0.549792   -1.484859
     13          6           0       -2.170249   -1.724998    0.267847
     14          6           0       -2.885155    0.657143   -0.031077
     15          1           0       -1.326944   -2.417923    0.234735
     16          8           0       -2.628280    1.655081    0.597769
     17          8           0       -4.086640    0.323023   -0.475023
     18          6           0       -5.142743    1.234739   -0.133736
     19          1           0       -6.047076    0.807686   -0.563060
     20          1           0       -5.232917    1.314880    0.951170
     21          1           0       -4.941779    2.219167   -0.560864
     22          9           0       -3.240988   -2.296458   -0.330868
     23          9           0       -2.500764   -1.492161    1.567858
     24          9           0        0.975549    2.431890    0.084225
     25          9           0        3.141573    2.224072   -0.152938
     26          6           0        4.110779   -0.682836    0.334887
     27          8           0        4.260399   -0.097172    1.393432
     28          6           0        5.115867   -1.670123   -0.211995
     29          1           0        4.909892   -2.657819    0.213705
     30          1           0        5.073976   -1.745151   -1.301036
     31          1           0        6.116412   -1.366495    0.098727
 ---------------------------------------------------------------------
 Rotational constants (GHZ):           0.6903519           0.1811764           0.1557380
 Leave Link  202 at Mon Dec 30 11:32:51 2019, MaxMem=  4294967296 cpu:               2.1 elap:               0.2
 (Enter /n/sw/g16_nehalem/g16/l301.exe)
 Standard basis: 6-31G(d) (6D, 7F)
 Ernie: Thresh=  0.10000D-02 Tol=  0.10000D-05 Strict=F.
 There are   309 symmetry adapted cartesian basis functions of A   symmetry.
 There are   309 symmetry adapted basis functions of A   symmetry.
   309 basis functions,   580 primitive gaussians,   309 cartesian basis functions
    74 alpha electrons       74 beta electrons
       nuclear repulsion energy      1599.0828540598 Hartrees.
 IExCor= 4336 DFT=T Ex+Corr=M062X ExCW=0 ScaHFX=  0.540000
 ScaDFX=  1.000000  1.000000  1.000000  1.000000 ScalE2=  1.000000  1.000000
 IRadAn=      5 IRanWt=     -1 IRanGd=            0 ICorTp=0 IEmpDi=  4
 NAtoms=   31 NActive=   31 NUniq=   31 SFac= 1.00D+00 NAtFMM=   60 NAOKFM=F Big=F
 Integral buffers will be    131072 words long.
 Raffenetti 2 integral format.
 Two-electron integral symmetry is turned on.
 ------------------------------------------------------------------------------
 Polarizable Continuum Model (PCM)
 =================================
 Model                : PCM.
 Atomic radii         : SMD-Coulomb.
 Polarization charges : Total charges.
 Charge compensation  : None.
 Solution method      : On-the-fly selection.
 Cavity type          : VdW (van der Waals Surface) (Alpha=1.000).
 Cavity algorithm     : GePol (No added spheres)
                        Default sphere list used, NSphG=   31.
                        Lebedev-Laikov grids with approx.  5.0 points / Ang**2.
                        Smoothing algorithm: York/Karplus (Gamma=1.0000).
                        Polarization charges: spherical gaussians, with
                                              point-specific exponents (IZeta= 3).
                        Self-potential: point-specific (ISelfS= 7).
                        Self-field    : sphere-specific E.n sum rule (ISelfD= 2).
 1st derivatives      : Analytical E(r).r(x)/FMM algorithm (CHGder, D1EAlg=3).
                        Cavity 1st derivative terms included.
 Solvent              : DiethylEther, Eps=   4.240000 Eps(inf)=   1.829527
 ------------------------------------------------------------------------------
 GePol: Number of generator spheres                  =      31
 GePol: Total number of spheres                      =      31
 GePol: Number of exposed spheres                    =      31 (100.00%)
 GePol: Number of points                             =    2388
 GePol: Average weight of points                     =       0.13
 GePol: Minimum weight of points                     =   0.23D-10
 GePol: Maximum weight of points                     =    0.21501
 GePol: Number of points with low weight             =     101
 GePol: Fraction of low-weight points (<1% of avg)   =       4.23%
 GePol: Cavity surface area                          =    314.981 Ang**2
 GePol: Cavity volume                                =    321.041 Ang**3
 ------------------------------------------------------------------------------
 Atomic radii for non-electrostatic terms: SMD-CDS.
 ------------------------------------------------------------------------------
 PCM non-electrostatic energy =        -0.0044833378 Hartrees.
 Nuclear repulsion after PCM non-electrostatic terms =     1599.0783707219 Hartrees.
 Leave Link  301 at Mon Dec 30 11:32:51 2019, MaxMem=  4294967296 cpu:               2.0 elap:               0.2
 (Enter /n/sw/g16_nehalem/g16/l302.exe)
 NPDir=0 NMtPBC=     1 NCelOv=     1 NCel=       1 NClECP=     1 NCelD=      1
         NCelK=      1 NCelE2=     1 NClLst=     1 CellRange=     0.0.
 One-electron integrals computed using PRISM.
 One-electron integral symmetry used in STVInt
 NBasis=   309 RedAO= T EigKep=  1.80D-03  NBF=   309
 NBsUse=   309 1.00D-06 EigRej= -1.00D+00 NBFU=   309
 Precomputing XC quadrature grid using
 IXCGrd= 4 IRadAn=           5 IRanWt=          -1 IRanGd=           0 AccXCQ= 0.00D+00.
 Generated NRdTot=       0 NPtTot=           0 NUsed=           0 NTot=          32
 NSgBfM=   307   307   307   307   307 MxSgAt=    31 MxSgA2=    31.
 Leave Link  302 at Mon Dec 30 11:32:51 2019, MaxMem=  4294967296 cpu:               3.6 elap:               0.2
 (Enter /n/sw/g16_nehalem/g16/l303.exe)
 DipDrv:  MaxL=1.
 Leave Link  303 at Mon Dec 30 11:32:51 2019, MaxMem=  4294967296 cpu:               1.5 elap:               0.1
 (Enter /n/sw/g16_nehalem/g16/l401.exe)
 ExpMin= 1.61D-01 ExpMax= 7.00D+03 ExpMxC= 1.05D+03 IAcc=3 IRadAn=         5 AccDes= 0.00D+00
 Harris functional with IExCor= 1009 and IRadAn=       5 diagonalized for initial guess.
 HarFok:  IExCor= 1009 AccDes= 0.00D+00 IRadAn=         5 IDoV= 1 UseB2=F ITyADJ=14
 ICtDFT=  3500011 ScaDFX=  1.000000  1.000000  1.000000  1.000000
 FoFCou: FMM=F IPFlag=           0 FMFlag=      100000 FMFlg1=           0
         NFxFlg=           0 DoJE=T BraDBF=F KetDBF=T FulRan=T
         wScrn=  0.000000 ICntrl=       500 IOpCl=  0 I1Cent=   200000004 NGrid=           0
         NMat0=    1 NMatS0=      1 NMatT0=    0 NMatD0=    1 NMtDS0=    0 NMtDT0=    0
 Petite list used in FoFCou.
 Harris En= -1158.88005039691    
 JPrj=0 DoOrth=F DoCkMO=F.
 Leave Link  401 at Mon Dec 30 11:32:52 2019, MaxMem=  4294967296 cpu:              16.1 elap:               1.0
 (Enter /n/sw/g16_nehalem/g16/l502.exe)
 Integral symmetry usage will be decided dynamically.
 Closed shell SCF:
 Using DIIS extrapolation, IDIIS=  1040.
 NGot=  4294967296 LenX=  4294767994 LenY=  4294672072
 Requested convergence on RMS density matrix=1.00D-08 within 128 cycles.
 Requested convergence on MAX density matrix=1.00D-06.
 Requested convergence on             energy=1.00D-06.
 No special actions if energy rises.
 Fock matrices will be formed incrementally for  20 cycles.

 Cycle   1  Pass 1  IDiag  1:
 FoFJK:  IHMeth= 1 ICntrl=       0 DoSepK=F KAlg= 0 I1Cent=           0 FoldK=F
 IRaf= 740000000 NMat=       1 IRICut=       1 DoRegI=T DoRafI=F ISym2E= 0 IDoP0=0 IntGTp=1.
 FoFCou: FMM=F IPFlag=           0 FMFlag=      100000 FMFlg1=           0
         NFxFlg=           0 DoJE=F BraDBF=F KetDBF=F FulRan=T
         wScrn=  0.000000 ICntrl=         0 IOpCl=  0 I1Cent=           0 NGrid=           0
         NMat0=    1 NMatS0=      1 NMatT0=    0 NMatD0=    1 NMtDS0=    0 NMtDT0=    0
 Symmetry not used in FoFCou.
 Inv3:  Mode=1 IEnd=    17107632.
 Iteration    1 A*A^-1 deviation from unit magnitude is 5.55D-15 for   2372.
 Iteration    1 A*A^-1 deviation from orthogonality  is 3.93D-15 for   1025    994.
 Iteration    1 A^-1*A deviation from unit magnitude is 5.77D-15 for   2385.
 Iteration    1 A^-1*A deviation from orthogonality  is 1.74D-15 for    850    622.
 E= -1159.22656337090    
 DIIS: error= 2.47D-02 at cycle   1 NSaved=   1.
 NSaved= 1 IEnMin= 1 EnMin= -1159.22656337090     IErMin= 1 ErrMin= 2.47D-02
 ErrMax= 2.47D-02  0.00D+00 EMaxC= 1.00D-01 BMatC= 4.99D-01 BMatP= 4.99D-01
 IDIUse=3 WtCom= 7.53D-01 WtEn= 2.47D-01
 Coeff-Com:  0.100D+01
 Coeff-En:   0.100D+01
 Coeff:      0.100D+01
 Gap=     0.345 Goal=   None    Shift=    0.000
 GapD=    0.345 DampG=1.000 DampE=0.500 DampFc=0.5000 IDamp=-1.
 Damping current iteration by 5.00D-01
 RMSDP=3.66D-03 MaxDP=1.40D-01              OVMax= 1.85D-01

 Cycle   2  Pass 1  IDiag  1:
 RMSU=  1.83D-03    CP:  9.95D-01
 E= -1159.37937124762     Delta-E=       -0.152807876715 Rises=F Damp=T
 DIIS: error= 8.83D-03 at cycle   2 NSaved=   2.
 NSaved= 2 IEnMin= 2 EnMin= -1159.37937124762     IErMin= 2 ErrMin= 8.83D-03
 ErrMax= 8.83D-03  0.00D+00 EMaxC= 1.00D-01 BMatC= 5.29D-02 BMatP= 4.99D-01
 IDIUse=3 WtCom= 9.12D-01 WtEn= 8.83D-02
 Coeff-Com:  0.112D-01 0.989D+00
 Coeff-En:   0.484D-01 0.952D+00
 Coeff:      0.145D-01 0.986D+00
 Gap=     0.365 Goal=   None    Shift=    0.000
 RMSDP=1.05D-03 MaxDP=3.77D-02 DE=-1.53D-01 OVMax= 9.03D-02

 Cycle   3  Pass 1  IDiag  1:
 RMSU=  1.01D-03    CP:  9.89D-01  8.52D-01
 E= -1159.54767789605     Delta-E=       -0.168306648436 Rises=F Damp=F
 DIIS: error= 5.95D-03 at cycle   3 NSaved=   3.
 NSaved= 3 IEnMin= 3 EnMin= -1159.54767789605     IErMin= 3 ErrMin= 5.95D-03
 ErrMax= 5.95D-03  0.00D+00 EMaxC= 1.00D-01 BMatC= 2.53D-02 BMatP= 5.29D-02
 IDIUse=3 WtCom= 9.41D-01 WtEn= 5.95D-02
 Coeff-Com: -0.861D-01 0.418D+00 0.668D+00
 Coeff-En:   0.000D+00 0.000D+00 0.100D+01
 Coeff:     -0.810D-01 0.393D+00 0.688D+00
 Gap=     0.362 Goal=   None    Shift=    0.000
 RMSDP=5.52D-04 MaxDP=2.36D-02 DE=-1.68D-01 OVMax= 3.79D-02

 Cycle   4  Pass 1  IDiag  1:
 RMSU=  3.30D-04    CP:  9.92D-01  9.90D-01  6.43D-01
 E= -1159.56449208143     Delta-E=       -0.016814185380 Rises=F Damp=F
 DIIS: error= 1.96D-03 at cycle   4 NSaved=   4.
 NSaved= 4 IEnMin= 4 EnMin= -1159.56449208143     IErMin= 4 ErrMin= 1.96D-03
 ErrMax= 1.96D-03  0.00D+00 EMaxC= 1.00D-01 BMatC= 4.19D-03 BMatP= 2.53D-02
 IDIUse=3 WtCom= 9.80D-01 WtEn= 1.96D-02
 Coeff-Com: -0.313D-01 0.715D-01 0.334D+00 0.626D+00
 Coeff-En:   0.000D+00 0.000D+00 0.109D+00 0.891D+00
 Coeff:     -0.307D-01 0.701D-01 0.330D+00 0.631D+00
 Gap=     0.359 Goal=   None    Shift=    0.000
 RMSDP=1.81D-04 MaxDP=7.00D-03 DE=-1.68D-02 OVMax= 1.04D-02

 Cycle   5  Pass 1  IDiag  1:
 RMSU=  7.89D-05    CP:  9.91D-01  9.59D-01  7.58D-01  7.06D-01
 E= -1159.56771470893     Delta-E=       -0.003222627495 Rises=F Damp=F
 DIIS: error= 3.44D-04 at cycle   5 NSaved=   5.
 NSaved= 5 IEnMin= 5 EnMin= -1159.56771470893     IErMin= 5 ErrMin= 3.44D-04
 ErrMax= 3.44D-04  0.00D+00 EMaxC= 1.00D-01 BMatC= 1.23D-04 BMatP= 4.19D-03
 IDIUse=3 WtCom= 9.97D-01 WtEn= 3.44D-03
 Coeff-Com: -0.896D-02 0.148D-01 0.117D+00 0.265D+00 0.612D+00
 Coeff-En:   0.000D+00 0.000D+00 0.000D+00 0.000D+00 0.100D+01
 Coeff:     -0.893D-02 0.148D-01 0.117D+00 0.264D+00 0.613D+00
 Gap=     0.357 Goal=   None    Shift=    0.000
 RMSDP=3.25D-05 MaxDP=1.68D-03 DE=-3.22D-03 OVMax= 2.57D-03

 Cycle   6  Pass 1  IDiag  1:
 RMSU=  2.42D-05    CP:  9.91D-01  9.61D-01  7.67D-01  7.40D-01  7.97D-01
 E= -1159.56781595850     Delta-E=       -0.000101249571 Rises=F Damp=F
 DIIS: error= 8.38D-05 at cycle   6 NSaved=   6.
 NSaved= 6 IEnMin= 6 EnMin= -1159.56781595850     IErMin= 6 ErrMin= 8.38D-05
 ErrMax= 8.38D-05  0.00D+00 EMaxC= 1.00D-01 BMatC= 9.40D-06 BMatP= 1.23D-04
 IDIUse=1 WtCom= 1.00D+00 WtEn= 0.00D+00
 Coeff-Com:  0.366D-03-0.256D-02 0.665D-02 0.191D-01 0.212D+00 0.764D+00
 Coeff:      0.366D-03-0.256D-02 0.665D-02 0.191D-01 0.212D+00 0.764D+00
 Gap=     0.357 Goal=   None    Shift=    0.000
 RMSDP=1.17D-05 MaxDP=4.65D-04 DE=-1.01D-04 OVMax= 9.74D-04

 Cycle   7  Pass 1  IDiag  1:
 RMSU=  8.39D-06    CP:  9.91D-01  9.60D-01  7.69D-01  7.47D-01  8.78D-01
                    CP:  1.01D+00
 E= -1159.56782459343     Delta-E=       -0.000008634930 Rises=F Damp=F
 DIIS: error= 4.91D-05 at cycle   7 NSaved=   7.
 NSaved= 7 IEnMin= 7 EnMin= -1159.56782459343     IErMin= 7 ErrMin= 4.91D-05
 ErrMax= 4.91D-05  0.00D+00 EMaxC= 1.00D-01 BMatC= 1.33D-06 BMatP= 9.40D-06
 IDIUse=1 WtCom= 1.00D+00 WtEn= 0.00D+00
 Coeff-Com:  0.149D-02-0.336D-02-0.124D-01-0.297D-01 0.144D-01 0.279D+00
 Coeff-Com:  0.751D+00
 Coeff:      0.149D-02-0.336D-02-0.124D-01-0.297D-01 0.144D-01 0.279D+00
 Coeff:      0.751D+00
 Gap=     0.357 Goal=   None    Shift=    0.000
 RMSDP=6.39D-06 MaxDP=3.35D-04 DE=-8.63D-06 OVMax= 4.15D-04

 Cycle   8  Pass 1  IDiag  1:
 RMSU=  3.47D-06    CP:  9.91D-01  9.58D-01  7.72D-01  7.51D-01  9.17D-01
                    CP:  1.13D+00  9.46D-01
 E= -1159.56782593863     Delta-E=       -0.000001345209 Rises=F Damp=F
 DIIS: error= 2.05D-05 at cycle   8 NSaved=   8.
 NSaved= 8 IEnMin= 8 EnMin= -1159.56782593863     IErMin= 8 ErrMin= 2.05D-05
 ErrMax= 2.05D-05  0.00D+00 EMaxC= 1.00D-01 BMatC= 3.07D-07 BMatP= 1.33D-06
 IDIUse=1 WtCom= 1.00D+00 WtEn= 0.00D+00
 Coeff-Com:  0.696D-03-0.128D-02-0.617D-02-0.170D-01-0.191D-01 0.211D-01
 Coeff-Com:  0.363D+00 0.658D+00
 Coeff:      0.696D-03-0.128D-02-0.617D-02-0.170D-01-0.191D-01 0.211D-01
 Coeff:      0.363D+00 0.658D+00
 Gap=     0.357 Goal=   None    Shift=    0.000
 RMSDP=2.20D-06 MaxDP=1.04D-04 DE=-1.35D-06 OVMax= 2.41D-04

 Cycle   9  Pass 1  IDiag  1:
 RMSU=  1.18D-06    CP:  9.91D-01  9.58D-01  7.72D-01  7.52D-01  9.27D-01
                    CP:  1.16D+00  1.08D+00  8.11D-01
 E= -1159.56782621544     Delta-E=       -0.000000276810 Rises=F Damp=F
 DIIS: error= 7.35D-06 at cycle   9 NSaved=   9.
 NSaved= 9 IEnMin= 9 EnMin= -1159.56782621544     IErMin= 9 ErrMin= 7.35D-06
 ErrMax= 7.35D-06  0.00D+00 EMaxC= 1.00D-01 BMatC= 3.81D-08 BMatP= 3.07D-07
 IDIUse=1 WtCom= 1.00D+00 WtEn= 0.00D+00
 Coeff-Com:  0.113D-03-0.115D-03-0.674D-03-0.322D-02-0.101D-01-0.333D-01
 Coeff-Com:  0.404D-01 0.284D+00 0.723D+00
 Coeff:      0.113D-03-0.115D-03-0.674D-03-0.322D-02-0.101D-01-0.333D-01
 Coeff:      0.404D-01 0.284D+00 0.723D+00
 Gap=     0.357 Goal=   None    Shift=    0.000
 RMSDP=9.28D-07 MaxDP=4.94D-05 DE=-2.77D-07 OVMax= 5.36D-05

 Cycle  10  Pass 1  IDiag  1:
 RMSU=  3.97D-07    CP:  9.91D-01  9.58D-01  7.72D-01  7.52D-01  9.30D-01
                    CP:  1.18D+00  1.12D+00  9.42D-01  8.92D-01
 E= -1159.56782625123     Delta-E=       -0.000000035788 Rises=F Damp=F
 DIIS: error= 1.53D-06 at cycle  10 NSaved=  10.
 NSaved=10 IEnMin=10 EnMin= -1159.56782625123     IErMin=10 ErrMin= 1.53D-06
 ErrMax= 1.53D-06  0.00D+00 EMaxC= 1.00D-01 BMatC= 2.27D-09 BMatP= 3.81D-08
 IDIUse=1 WtCom= 1.00D+00 WtEn= 0.00D+00
 Coeff-Com: -0.320D-04 0.833D-04 0.523D-03 0.856D-03-0.807D-03-0.116D-01
 Coeff-Com: -0.301D-01 0.116D-01 0.204D+00 0.826D+00
 Coeff:     -0.320D-04 0.833D-04 0.523D-03 0.856D-03-0.807D-03-0.116D-01
 Coeff:     -0.301D-01 0.116D-01 0.204D+00 0.826D+00
 Gap=     0.357 Goal=   None    Shift=    0.000
 RMSDP=2.66D-07 MaxDP=1.11D-05 DE=-3.58D-08 OVMax= 1.57D-05

 Cycle  11  Pass 1  IDiag  1:
 RMSU=  1.31D-07    CP:  9.91D-01  9.58D-01  7.73D-01  7.52D-01  9.31D-01
                    CP:  1.18D+00  1.13D+00  9.67D-01  9.83D-01  1.01D+00
 E= -1159.56782625343     Delta-E=       -0.000000002197 Rises=F Damp=F
 DIIS: error= 6.52D-07 at cycle  11 NSaved=  11.
 NSaved=11 IEnMin=11 EnMin= -1159.56782625343     IErMin=11 ErrMin= 6.52D-07
 ErrMax= 6.52D-07  0.00D+00 EMaxC= 1.00D-01 BMatC= 4.83D-10 BMatP= 2.27D-09
 IDIUse=1 WtCom= 1.00D+00 WtEn= 0.00D+00
 Coeff-Com: -0.244D-04 0.469D-04 0.328D-03 0.731D-03 0.708D-03-0.187D-02
 Coeff-Com: -0.184D-01-0.220D-01 0.231D-01 0.404D+00 0.614D+00
 Coeff:     -0.244D-04 0.469D-04 0.328D-03 0.731D-03 0.708D-03-0.187D-02
 Coeff:     -0.184D-01-0.220D-01 0.231D-01 0.404D+00 0.614D+00
 Gap=     0.357 Goal=   None    Shift=    0.000
 RMSDP=6.95D-08 MaxDP=2.91D-06 DE=-2.20D-09 OVMax= 3.84D-06

 Cycle  12  Pass 1  IDiag  1:
 RMSU=  3.88D-08    CP:  9.91D-01  9.58D-01  7.73D-01  7.52D-01  9.31D-01
                    CP:  1.18D+00  1.13D+00  9.73D-01  9.97D-01  1.09D+00
                    CP:  7.71D-01
 E= -1159.56782625380     Delta-E=       -0.000000000372 Rises=F Damp=F
 DIIS: error= 1.15D-07 at cycle  12 NSaved=  12.
 NSaved=12 IEnMin=12 EnMin= -1159.56782625380     IErMin=12 ErrMin= 1.15D-07
 ErrMax= 1.15D-07  0.00D+00 EMaxC= 1.00D-01 BMatC= 1.47D-11 BMatP= 4.83D-10
 IDIUse=1 WtCom= 1.00D+00 WtEn= 0.00D+00
 Coeff-Com: -0.309D-05 0.437D-05 0.477D-04 0.123D-03 0.261D-03 0.431D-03
 Coeff-Com: -0.279D-02-0.663D-02-0.109D-01 0.420D-01 0.154D+00 0.824D+00
 Coeff:     -0.309D-05 0.437D-05 0.477D-04 0.123D-03 0.261D-03 0.431D-03
 Coeff:     -0.279D-02-0.663D-02-0.109D-01 0.420D-01 0.154D+00 0.824D+00
 Gap=     0.357 Goal=   None    Shift=    0.000
 RMSDP=1.96D-08 MaxDP=8.43D-07 DE=-3.72D-10 OVMax= 1.36D-06

 Cycle  13  Pass 1  IDiag  1:
 RMSU=  1.27D-08    CP:  9.91D-01  9.58D-01  7.73D-01  7.52D-01  9.31D-01
                    CP:  1.18D+00  1.13D+00  9.74D-01  1.00D+00  1.11D+00
                    CP:  8.32D-01  9.51D-01
 E= -1159.56782625383     Delta-E=       -0.000000000033 Rises=F Damp=F
 DIIS: error= 7.81D-08 at cycle  13 NSaved=  13.
 NSaved=13 IEnMin=13 EnMin= -1159.56782625383     IErMin=13 ErrMin= 7.81D-08
 ErrMax= 7.81D-08  0.00D+00 EMaxC= 1.00D-01 BMatC= 3.97D-12 BMatP= 1.47D-11
 IDIUse=1 WtCom= 1.00D+00 WtEn= 0.00D+00
 Coeff-Com:  0.745D-06-0.212D-05-0.500D-05-0.559D-05 0.697D-04 0.366D-03
 Coeff-Com:  0.218D-03-0.123D-02-0.723D-02-0.160D-01 0.155D-01 0.401D+00
 Coeff-Com:  0.607D+00
 Coeff:      0.745D-06-0.212D-05-0.500D-05-0.559D-05 0.697D-04 0.366D-03
 Coeff:      0.218D-03-0.123D-02-0.723D-02-0.160D-01 0.155D-01 0.401D+00
 Coeff:      0.607D+00
 Gap=     0.357 Goal=   None    Shift=    0.000
 RMSDP=7.32D-09 MaxDP=3.66D-07 DE=-3.27D-11 OVMax= 3.75D-07

 Error on total polarization charges =  0.01945
 SCF Done:  E(RM062X) =  -1159.56782625     A.U. after   13 cycles
            NFock= 13  Conv=0.73D-08     -V/T= 2.0075
 KE= 1.150895979315D+03 PE=-5.925349336213D+03 EE= 2.015807159922D+03
 SMD-CDS (non-electrostatic) energy       (kcal/mol) =      -2.81
 (included in total energy above)
 Leave Link  502 at Mon Dec 30 11:33:37 2019, MaxMem=  4294967296 cpu:             687.8 elap:              44.2
 (Enter /n/sw/g16_nehalem/g16/l601.exe)
 Copying SCF densities to generalized density rwf, IOpCl= 0 IROHF=0.

 **********************************************************************

            Population analysis using the SCF density.

 **********************************************************************

 Orbital symmetries:
       Occupied  (A) (A) (A) (A) (A) (A) (A) (A) (A) (A) (A) (A)
                 (A) (A) (A) (A) (A) (A) (A) (A) (A) (A) (A) (A)
                 (A) (A) (A) (A) (A) (A) (A) (A) (A) (A) (A) (A)
                 (A) (A) (A) (A) (A) (A) (A) (A) (A) (A) (A) (A)
                 (A) (A) (A) (A) (A) (A) (A) (A) (A) (A) (A) (A)
                 (A) (A) (A) (A) (A) (A) (A) (A) (A) (A) (A) (A)
                 (A) (A)
       Virtual   (A) (A) (A) (A) (A) (A) (A) (A) (A) (A) (A) (A)
                 (A) (A) (A) (A) (A) (A) (A) (A) (A) (A) (A) (A)
                 (A) (A) (A) (A) (A) (A) (A) (A) (A) (A) (A) (A)
                 (A) (A) (A) (A) (A) (A) (A) (A) (A) (A) (A) (A)
                 (A) (A) (A) (A) (A) (A) (A) (A) (A) (A) (A) (A)
                 (A) (A) (A) (A) (A) (A) (A) (A) (A) (A) (A) (A)
                 (A) (A) (A) (A) (A) (A) (A) (A) (A) (A) (A) (A)
                 (A) (A) (A) (A) (A) (A) (A) (A) (A) (A) (A) (A)
                 (A) (A) (A) (A) (A) (A) (A) (A) (A) (A) (A) (A)
                 (A) (A) (A) (A) (A) (A) (A) (A) (A) (A) (A) (A)
                 (A) (A) (A) (A) (A) (A) (A) (A) (A) (A) (A) (A)
                 (A) (A) (A) (A) (A) (A) (A) (A) (A) (A) (A) (A)
                 (A) (A) (A) (A) (A) (A) (A) (A) (A) (A) (A) (A)
                 (A) (A) (A) (A) (A) (A) (A) (A) (A) (A) (A) (A)
                 (A) (A) (A) (A) (A) (A) (A) (A) (A) (A) (A) (A)
                 (A) (A) (A) (A) (A) (A) (A) (A) (A) (A) (A) (A)
                 (A) (A) (A) (A) (A) (A) (A) (A) (A) (A) (A) (A)
                 (A) (A) (A) (A) (A) (A) (A) (A) (A) (A) (A) (A)
                 (A) (A) (A) (A) (A) (A) (A) (A) (A) (A) (A) (A)
                 (A) (A) (A) (A) (A) (A) (A)
 The electronic state is 1-A.
 Alpha  occ. eigenvalues --  -25.26984 -25.26705 -25.26570 -25.26239 -19.70200
 Alpha  occ. eigenvalues --  -19.65212 -19.63416 -19.60518 -14.80429 -14.78355
 Alpha  occ. eigenvalues --  -10.71520 -10.71241 -10.70224 -10.67660 -10.65217
 Alpha  occ. eigenvalues --  -10.61876 -10.60687 -10.59990 -10.54084  -1.39953
 Alpha  occ. eigenvalues --   -1.39837  -1.33828  -1.33736  -1.25348  -1.18653
 Alpha  occ. eigenvalues --   -1.15900  -1.15621  -1.05888  -1.03749  -0.90874
 Alpha  occ. eigenvalues --   -0.87486  -0.82808  -0.81881  -0.77723  -0.74978
 Alpha  occ. eigenvalues --   -0.69393  -0.68190  -0.67516  -0.65014  -0.64318
 Alpha  occ. eigenvalues --   -0.63987  -0.63776  -0.62448  -0.61884  -0.60854
 Alpha  occ. eigenvalues --   -0.58334  -0.57406  -0.56578  -0.55317  -0.54170
 Alpha  occ. eigenvalues --   -0.53930  -0.52327  -0.52131  -0.51611  -0.51085
 Alpha  occ. eigenvalues --   -0.50015  -0.49451  -0.49351  -0.48671  -0.48267
 Alpha  occ. eigenvalues --   -0.47492  -0.46395  -0.46200  -0.45551  -0.44084
 Alpha  occ. eigenvalues --   -0.43352  -0.42381  -0.40894  -0.38499  -0.37258
 Alpha  occ. eigenvalues --   -0.35545  -0.33898  -0.32470  -0.31848
 Alpha virt. eigenvalues --    0.03893   0.05040   0.07543   0.13908   0.14749
 Alpha virt. eigenvalues --    0.15068   0.16398   0.16623   0.17735   0.18448
 Alpha virt. eigenvalues --    0.18971   0.19770   0.20418   0.20959   0.21264
 Alpha virt. eigenvalues --    0.21716   0.22341   0.22897   0.24176   0.24544
 Alpha virt. eigenvalues --    0.26376   0.26958   0.29467   0.29826   0.30485
 Alpha virt. eigenvalues --    0.32238   0.34430   0.36967   0.37888   0.39203
 Alpha virt. eigenvalues --    0.42555   0.45616   0.47695   0.53647   0.54199
 Alpha virt. eigenvalues --    0.55356   0.56203   0.56732   0.57331   0.58198
 Alpha virt. eigenvalues --    0.58581   0.60181   0.61132   0.61765   0.62012
 Alpha virt. eigenvalues --    0.64556   0.64951   0.66631   0.67615   0.67875
 Alpha virt. eigenvalues --    0.69576   0.71946   0.72404   0.74657   0.75981
 Alpha virt. eigenvalues --    0.76744   0.78166   0.78425   0.80202   0.81342
 Alpha virt. eigenvalues --    0.82968   0.85839   0.86673   0.88503   0.89040
 Alpha virt. eigenvalues --    0.90385   0.91312   0.91524   0.91784   0.92521
 Alpha virt. eigenvalues --    0.93346   0.94064   0.94658   0.95872   0.96760
 Alpha virt. eigenvalues --    0.97247   0.98928   0.99341   0.99994   1.02242
 Alpha virt. eigenvalues --    1.02612   1.03748   1.06733   1.08181   1.09090
 Alpha virt. eigenvalues --    1.11471   1.12709   1.12930   1.13478   1.14886
 Alpha virt. eigenvalues --    1.17278   1.19846   1.21756   1.22651   1.24638
 Alpha virt. eigenvalues --    1.27064   1.27718   1.28594   1.30977   1.33903
 Alpha virt. eigenvalues --    1.36051   1.37426   1.39068   1.41002   1.41703
 Alpha virt. eigenvalues --    1.42601   1.43576   1.45778   1.46142   1.46658
 Alpha virt. eigenvalues --    1.47440   1.48515   1.49196   1.51064   1.52112
 Alpha virt. eigenvalues --    1.53713   1.55416   1.55998   1.56609   1.60090
 Alpha virt. eigenvalues --    1.61081   1.63102   1.64281   1.66281   1.68029
 Alpha virt. eigenvalues --    1.70099   1.71728   1.72502   1.73245   1.78864
 Alpha virt. eigenvalues --    1.79053   1.80032   1.80564   1.82104   1.83050
 Alpha virt. eigenvalues --    1.83786   1.85076   1.86122   1.86245   1.87184
 Alpha virt. eigenvalues --    1.88265   1.88966   1.91148   1.91815   1.92980
 Alpha virt. eigenvalues --    1.93548   1.94097   1.95824   1.97263   1.98667
 Alpha virt. eigenvalues --    1.99893   2.00192   2.02391   2.03384   2.04322
 Alpha virt. eigenvalues --    2.07225   2.07519   2.08845   2.09877   2.10426
 Alpha virt. eigenvalues --    2.11044   2.12196   2.13658   2.14984   2.15862
 Alpha virt. eigenvalues --    2.17127   2.18156   2.21079   2.21341   2.22840
 Alpha virt. eigenvalues --    2.24685   2.25286   2.28107   2.28946   2.30303
 Alpha virt. eigenvalues --    2.32131   2.33549   2.34503   2.36473   2.38473
 Alpha virt. eigenvalues --    2.39420   2.41518   2.44138   2.46221   2.48367
 Alpha virt. eigenvalues --    2.49050   2.51973   2.55606   2.57735   2.58949
 Alpha virt. eigenvalues --    2.62968   2.64424   2.66774   2.69602   2.70405
 Alpha virt. eigenvalues --    2.71703   2.76349   2.76414   2.77221   2.81449
 Alpha virt. eigenvalues --    2.83837   2.86496   2.89064   2.94296   2.97153
 Alpha virt. eigenvalues --    2.99897   3.02324   3.03150   3.05879   3.07898
 Alpha virt. eigenvalues --    3.10915   3.13042   3.14334   3.17251   3.23184
 Alpha virt. eigenvalues --    3.25219   3.97649   4.02524   4.06111   4.10168
 Alpha virt. eigenvalues --    4.11802   4.23002   4.24241   4.29184   4.33256
 Alpha virt. eigenvalues --    4.37345   4.38905   4.40266   4.48985   4.51411
 Alpha virt. eigenvalues --    4.55758   4.64410   4.69568   4.99156   5.05590
          Condensed to atoms (all electrons):
               1          2          3          4          5          6
     1  N    7.274319   0.299363   0.193527  -0.046127  -0.045866  -0.033483
     2  H    0.299363   0.331290  -0.040994   0.003042   0.001610  -0.003288
     3  C    0.193527  -0.040994   5.436059   0.356794   0.296951   0.283571
     4  H   -0.046127   0.003042   0.356794   0.462395  -0.026444  -0.023451
     5  C   -0.045866   0.001610   0.296951  -0.026444   4.401898  -0.029283
     6  C   -0.033483  -0.003288   0.283571  -0.023451  -0.029283   4.367393
     7  H    0.004221   0.000366  -0.073578   0.004988   0.386400   0.000010
     8  O   -0.013003   0.026795  -0.080138   0.000985  -0.001187   0.575612
     9  N    0.003908   0.001201  -0.119855   0.000681   0.005191   0.257752
    10  H    0.000107  -0.000021  -0.001989   0.001611  -0.001171  -0.016055
    11  C   -0.000083  -0.000045   0.006149   0.000028  -0.000113  -0.028562
    12  H    0.000002  -0.000006   0.000547  -0.000006  -0.000068  -0.000056
    13  C    0.000001   0.000004  -0.000333   0.000020   0.000008  -0.001654
    14  C    0.000000   0.000000  -0.000044  -0.000012   0.000003   0.005568
    15  H   -0.000002  -0.000006   0.000216  -0.000016   0.000001   0.005791
    16  O    0.000000   0.000000  -0.000065  -0.000003   0.000005   0.000765
    17  O    0.000000   0.000000   0.000000   0.000000   0.000000  -0.000038
    18  C    0.000000   0.000000   0.000000   0.000000   0.000000   0.000003
    19  H    0.000000   0.000000   0.000000   0.000000   0.000000   0.000000
    20  H    0.000000   0.000000   0.000000   0.000000   0.000000   0.000000
    21  H    0.000000   0.000000   0.000000   0.000000   0.000000   0.000000
    22  F    0.000000   0.000000   0.000000   0.000000   0.000000  -0.000058
    23  F    0.000000   0.000000   0.000001  -0.000001   0.000000   0.000019
    24  F    0.001917  -0.000025  -0.033522   0.000519   0.247974  -0.001171
    25  F   -0.000997  -0.000098  -0.039798  -0.001261   0.278720   0.002055
    26  C    0.242866  -0.012547  -0.026377   0.002804  -0.003410   0.004835
    27  O   -0.110263   0.002369   0.004693   0.015303  -0.001293   0.000582
    28  C   -0.123376  -0.000845   0.007191   0.000881  -0.000175  -0.000033
    29  H   -0.000283   0.000239  -0.000297  -0.000007  -0.000004   0.000019
    30  H    0.004780   0.001253   0.000064  -0.000016   0.000007  -0.000042
    31  H    0.004235  -0.000037  -0.000124  -0.000020   0.000006  -0.000001
               7          8          9         10         11         12
     1  N    0.004221  -0.013003   0.003908   0.000107  -0.000083   0.000002
     2  H    0.000366   0.026795   0.001201  -0.000021  -0.000045  -0.000006
     3  C   -0.073578  -0.080138  -0.119855  -0.001989   0.006149   0.000547
     4  H    0.004988   0.000985   0.000681   0.001611   0.000028  -0.000006
     5  C    0.386400  -0.001187   0.005191  -0.001171  -0.000113  -0.000068
     6  C    0.000010   0.575612   0.257752  -0.016055  -0.028562  -0.000056
     7  H    0.569423   0.000612   0.000175   0.000626   0.000060  -0.000003
     8  O    0.000612   8.134485  -0.113021   0.002086   0.010138   0.007588
     9  N    0.000175  -0.113021   7.313384   0.285440   0.164676  -0.039760
    10  H    0.000626   0.002086   0.285440   0.310537  -0.031424   0.002682
    11  C    0.000060   0.010138   0.164676  -0.031424   5.440286   0.363585
    12  H   -0.000003   0.007588  -0.039760   0.002682   0.363585   0.458214
    13  C    0.000001  -0.004537  -0.042591   0.001427   0.260773  -0.033576
    14  C   -0.000006   0.000630  -0.034689  -0.003857   0.293828  -0.019265
    15  H    0.000000   0.006516  -0.005210  -0.000253  -0.072886  -0.001534
    16  O    0.000000  -0.000004  -0.009332   0.025871  -0.083827   0.000694
    17  O    0.000000   0.000000   0.002372   0.000609  -0.100787   0.001463
    18  C    0.000000   0.000000  -0.000087  -0.000042   0.006674  -0.000141
    19  H    0.000000   0.000000   0.000000   0.000000  -0.000044  -0.000009
    20  H    0.000000   0.000000   0.000008  -0.000002   0.000216   0.000003
    21  H    0.000000   0.000000   0.000006  -0.000004  -0.000259   0.000003
    22  F    0.000000   0.000013   0.001864  -0.000013  -0.030112   0.002639
    23  F    0.000000   0.000021   0.002543   0.000318  -0.051468   0.002269
    24  F   -0.036392   0.000018  -0.003666   0.017438   0.000179   0.000010
    25  F   -0.039312  -0.000005   0.000008   0.000048   0.000001   0.000000
    26  C    0.000332   0.000431  -0.000073  -0.000003   0.000002   0.000000
    27  O   -0.000055  -0.000004  -0.000002   0.000000   0.000000   0.000000
    28  C    0.000012  -0.000081   0.000001   0.000000   0.000000   0.000000
    29  H    0.000000   0.000002   0.000000   0.000000   0.000000   0.000000
    30  H    0.000005  -0.000008   0.000000   0.000000   0.000000   0.000000
    31  H   -0.000001   0.000000   0.000000   0.000000   0.000000   0.000000
              13         14         15         16         17         18
     1  N    0.000001   0.000000  -0.000002   0.000000   0.000000   0.000000
     2  H    0.000004   0.000000  -0.000006   0.000000   0.000000   0.000000
     3  C   -0.000333  -0.000044   0.000216  -0.000065   0.000000   0.000000
     4  H    0.000020  -0.000012  -0.000016  -0.000003   0.000000   0.000000
     5  C    0.000008   0.000003   0.000001   0.000005   0.000000   0.000000
     6  C   -0.001654   0.005568   0.005791   0.000765  -0.000038   0.000003
     7  H    0.000001  -0.000006   0.000000   0.000000   0.000000   0.000000
     8  O   -0.004537   0.000630   0.006516  -0.000004   0.000000   0.000000
     9  N   -0.042591  -0.034689  -0.005210  -0.009332   0.002372  -0.000087
    10  H    0.001427  -0.003857  -0.000253   0.025871   0.000609  -0.000042
    11  C    0.260773   0.293828  -0.072886  -0.083827  -0.100787   0.006674
    12  H   -0.033576  -0.019265  -0.001534   0.000694   0.001463  -0.000141
    13  C    4.444175  -0.019176   0.400061  -0.001430   0.009679  -0.000208
    14  C   -0.019176   4.305905   0.004843   0.560264   0.272785  -0.026064
    15  H    0.400061   0.004843   0.528781  -0.000109  -0.000007   0.000009
    16  O   -0.001430   0.560264  -0.000109   8.075373  -0.082133   0.000298
    17  O    0.009679   0.272785  -0.000007  -0.082133   8.278014   0.184897
    18  C   -0.000208  -0.026064   0.000009   0.000298   0.184897   4.950877
    19  H   -0.000007   0.004236   0.000000   0.000556  -0.030009   0.386252
    20  H   -0.000146  -0.004254  -0.000001   0.004157  -0.030749   0.381878
    21  H    0.000040  -0.005536   0.000000   0.004080  -0.030293   0.382330
    22  F    0.259522  -0.002721  -0.033500   0.000006   0.000822   0.000159
    23  F    0.254258   0.014923  -0.034695  -0.000705  -0.001634  -0.000038
    24  F   -0.000001  -0.000035   0.000000  -0.000065   0.000000   0.000000
    25  F    0.000000   0.000000   0.000000   0.000000   0.000000   0.000000
    26  C    0.000000   0.000000   0.000000   0.000000   0.000000   0.000000
    27  O    0.000000   0.000000   0.000000   0.000000   0.000000   0.000000
    28  C    0.000000   0.000000   0.000000   0.000000   0.000000   0.000000
    29  H    0.000000   0.000000   0.000000   0.000000   0.000000   0.000000
    30  H    0.000000   0.000000   0.000000   0.000000   0.000000   0.000000
    31  H    0.000000   0.000000   0.000000   0.000000   0.000000   0.000000
              19         20         21         22         23         24
     1  N    0.000000   0.000000   0.000000   0.000000   0.000000   0.001917
     2  H    0.000000   0.000000   0.000000   0.000000   0.000000  -0.000025
     3  C    0.000000   0.000000   0.000000   0.000000   0.000001  -0.033522
     4  H    0.000000   0.000000   0.000000   0.000000  -0.000001   0.000519
     5  C    0.000000   0.000000   0.000000   0.000000   0.000000   0.247974
     6  C    0.000000   0.000000   0.000000  -0.000058   0.000019  -0.001171
     7  H    0.000000   0.000000   0.000000   0.000000   0.000000  -0.036392
     8  O    0.000000   0.000000   0.000000   0.000013   0.000021   0.000018
     9  N    0.000000   0.000008   0.000006   0.001864   0.002543  -0.003666
    10  H    0.000000  -0.000002  -0.000004  -0.000013   0.000318   0.017438
    11  C   -0.000044   0.000216  -0.000259  -0.030112  -0.051468   0.000179
    12  H   -0.000009   0.000003   0.000003   0.002639   0.002269   0.000010
    13  C   -0.000007  -0.000146   0.000040   0.259522   0.254258  -0.000001
    14  C    0.004236  -0.004254  -0.005536  -0.002721   0.014923  -0.000035
    15  H    0.000000  -0.000001   0.000000  -0.033500  -0.034695   0.000000
    16  O    0.000556   0.004157   0.004080   0.000006  -0.000705  -0.000065
    17  O   -0.030009  -0.030749  -0.030293   0.000822  -0.001634   0.000000
    18  C    0.386252   0.381878   0.382330   0.000159  -0.000038   0.000000
    19  H    0.481484  -0.025537  -0.026100   0.000008   0.000000   0.000000
    20  H   -0.025537   0.503160  -0.031974   0.000005   0.000032   0.000000
    21  H   -0.026100  -0.031974   0.507563  -0.000003   0.000000   0.000000
    22  F    0.000008   0.000005  -0.000003   9.133161  -0.034862   0.000000
    23  F    0.000000   0.000032   0.000000  -0.034862   9.155822   0.000000
    24  F    0.000000   0.000000   0.000000   0.000000   0.000000   9.148129
    25  F    0.000000   0.000000   0.000000   0.000000   0.000000  -0.034383
    26  C    0.000000   0.000000   0.000000   0.000000   0.000000   0.000085
    27  O    0.000000   0.000000   0.000000   0.000000   0.000000  -0.000001
    28  C    0.000000   0.000000   0.000000   0.000000   0.000000   0.000000
    29  H    0.000000   0.000000   0.000000   0.000000   0.000000   0.000000
    30  H    0.000000   0.000000   0.000000   0.000000   0.000000   0.000000
    31  H    0.000000   0.000000   0.000000   0.000000   0.000000   0.000000
              25         26         27         28         29         30
     1  N   -0.000997   0.242866  -0.110263  -0.123376  -0.000283   0.004780
     2  H   -0.000098  -0.012547   0.002369  -0.000845   0.000239   0.001253
     3  C   -0.039798  -0.026377   0.004693   0.007191  -0.000297   0.000064
     4  H   -0.001261   0.002804   0.015303   0.000881  -0.000007  -0.000016
     5  C    0.278720  -0.003410  -0.001293  -0.000175  -0.000004   0.000007
     6  C    0.002055   0.004835   0.000582  -0.000033   0.000019  -0.000042
     7  H   -0.039312   0.000332  -0.000055   0.000012   0.000000   0.000005
     8  O   -0.000005   0.000431  -0.000004  -0.000081   0.000002  -0.000008
     9  N    0.000008  -0.000073  -0.000002   0.000001   0.000000   0.000000
    10  H    0.000048  -0.000003   0.000000   0.000000   0.000000   0.000000
    11  C    0.000001   0.000002   0.000000   0.000000   0.000000   0.000000
    12  H    0.000000   0.000000   0.000000   0.000000   0.000000   0.000000
    13  C    0.000000   0.000000   0.000000   0.000000   0.000000   0.000000
    14  C    0.000000   0.000000   0.000000   0.000000   0.000000   0.000000
    15  H    0.000000   0.000000   0.000000   0.000000   0.000000   0.000000
    16  O    0.000000   0.000000   0.000000   0.000000   0.000000   0.000000
    17  O    0.000000   0.000000   0.000000   0.000000   0.000000   0.000000
    18  C    0.000000   0.000000   0.000000   0.000000   0.000000   0.000000
    19  H    0.000000   0.000000   0.000000   0.000000   0.000000   0.000000
    20  H    0.000000   0.000000   0.000000   0.000000   0.000000   0.000000
    21  H    0.000000   0.000000   0.000000   0.000000   0.000000   0.000000
    22  F    0.000000   0.000000   0.000000   0.000000   0.000000   0.000000
    23  F    0.000000   0.000000   0.000000   0.000000   0.000000   0.000000
    24  F   -0.034383   0.000085  -0.000001   0.000000   0.000000   0.000000
    25  F    9.121214   0.007026  -0.000943   0.000014   0.000000   0.000004
    26  C    0.007026   4.286866   0.600333   0.369496  -0.020273  -0.026961
    27  O   -0.000943   0.600333   8.100419  -0.081163   0.000036   0.002597
    28  C    0.000014   0.369496  -0.081163   5.319858   0.366098   0.359698
    29  H    0.000000  -0.020273   0.000036   0.366098   0.480837  -0.021698
    30  H    0.000004  -0.026961   0.002597   0.359698  -0.021698   0.511343
    31  H    0.000002  -0.023186   0.001790   0.367987  -0.018726  -0.021667
              31
     1  N    0.004235
     2  H   -0.000037
     3  C   -0.000124
     4  H   -0.000020
     5  C    0.000006
     6  C   -0.000001
     7  H   -0.000001
     8  O    0.000000
     9  N    0.000000
    10  H    0.000000
    11  C    0.000000
    12  H    0.000000
    13  C    0.000000
    14  C    0.000000
    15  H    0.000000
    16  O    0.000000
    17  O    0.000000
    18  C    0.000000
    19  H    0.000000
    20  H    0.000000
    21  H    0.000000
    22  F    0.000000
    23  F    0.000000
    24  F    0.000000
    25  F    0.000002
    26  C   -0.023186
    27  O    0.001790
    28  C    0.367987
    29  H   -0.018726
    30  H   -0.021667
    31  H    0.481641
 Mulliken charges:
               1
     1  N   -0.655761
     2  H    0.390379
     3  C   -0.168647
     4  H    0.247314
     5  C    0.490238
     6  C    0.633198
     7  H    0.182115
     8  O   -0.553943
     9  N   -0.670923
    10  H    0.406032
    11  C   -0.146986
    12  H    0.254725
    13  C    0.473692
    14  C    0.652675
    15  H    0.202000
    16  O   -0.494397
    17  O   -0.474991
    18  C   -0.266798
    19  H    0.209170
    20  H    0.203205
    21  H    0.200146
    22  F   -0.296932
    23  F   -0.306803
    24  F   -0.307007
    25  F   -0.292294
    26  C    0.597754
    27  O   -0.534396
    28  C   -0.585561
    29  H    0.214057
    30  H    0.190642
    31  H    0.208099
 Sum of Mulliken charges =   0.00000
 Mulliken charges with hydrogens summed into heavy atoms:
               1
     1  N   -0.265382
     3  C    0.078666
     5  C    0.672353
     6  C    0.633198
     8  O   -0.553943
     9  N   -0.264891
    11  C    0.107739
    13  C    0.675692
    14  C    0.652675
    16  O   -0.494397
    17  O   -0.474991
    18  C    0.345724
    22  F   -0.296932
    23  F   -0.306803
    24  F   -0.307007
    25  F   -0.292294
    26  C    0.597754
    27  O   -0.534396
    28  C    0.027236
 Electronic spatial extent (au):  <R**2>=           6613.0918
 Charge=              0.0000 electrons
 Dipole moment (field-independent basis, Debye):
    X=             -2.8068    Y=             -1.0681    Z=             -3.7494  Tot=              4.8038
 Quadrupole moment (field-independent basis, Debye-Ang):
   XX=            -98.5570   YY=           -110.1678   ZZ=           -109.2326
   XY=            -17.6885   XZ=             -9.5540   YZ=             -4.8156
 Traceless Quadrupole moment (field-independent basis, Debye-Ang):
   XX=              7.4288   YY=             -4.1820   ZZ=             -3.2468
   XY=            -17.6885   XZ=             -9.5540   YZ=             -4.8156
 Octapole moment (field-independent basis, Debye-Ang**2):
  XXX=           -142.0249  YYY=            -11.0223  ZZZ=             -3.6848  XYY=              5.2106
  XXY=             -1.2241  XXZ=            -61.3712  XZZ=            -15.8152  YZZ=             11.2557
  YYZ=             -0.4193  XYZ=              2.5851
 Hexadecapole moment (field-independent basis, Debye-Ang**3):
 XXXX=          -5491.3835 YYYY=          -1271.4621 ZZZZ=           -375.1699 XXXY=           -362.4117
 XXXZ=           -218.3494 YYYX=             56.9761 YYYZ=            -32.2175 ZZZX=            -41.9273
 ZZZY=             -2.5300 XXYY=          -1204.8837 XXZZ=          -1161.4995 YYZZ=           -270.7007
 XXYZ=            -11.7928 YYXZ=              4.8186 ZZXY=             34.2128
 N-N= 1.599078370722D+03 E-N=-5.925349330981D+03  KE= 1.150895979315D+03
 No NMR shielding tensors so no spin-rotation constants.
 Leave Link  601 at Mon Dec 30 11:33:37 2019, MaxMem=  4294967296 cpu:               1.7 elap:               0.1
 (Enter /n/sw/g16_nehalem/g16/l701.exe)
 ... and contract with generalized density number  0.
 Compute integral first derivatives.
 D1PCM: PCM CHGder 1st derivatives, ID1Alg=3 FixD1E=F DoIter=F DoCFld=F I1PDM=0.
 GePol: Maximum number of non-zero 1st derivatives   =     324
 Leave Link  701 at Mon Dec 30 11:33:38 2019, MaxMem=  4294967296 cpu:              17.5 elap:               1.1
 (Enter /n/sw/g16_nehalem/g16/l702.exe)
 L702 exits ... SP integral derivatives will be done elsewhere.
 Leave Link  702 at Mon Dec 30 11:33:38 2019, MaxMem=  4294967296 cpu:               0.8 elap:               0.1
 (Enter /n/sw/g16_nehalem/g16/l703.exe)
 Integral derivatives from FoFJK, PRISM(SPDF).
 Compute integral first derivatives, UseDBF=F ICtDFT=           0.
 Calling FoFJK, ICntrl=      2127 FMM=F ISym2X=0 I1Cent= 0 IOpClX= 0 NMat=1 NMatS=1 NMatT=0.
 FoFJK:  IHMeth= 1 ICntrl=    2127 DoSepK=F KAlg= 0 I1Cent=           0 FoldK=F
 IRaf=         0 NMat=       1 IRICut=       1 DoRegI=T DoRafI=F ISym2E= 0 IDoP0=0 IntGTp=1.
 FoFCou: FMM=F IPFlag=           0 FMFlag=      100000 FMFlg1=         800
         NFxFlg=           0 DoJE=F BraDBF=F KetDBF=F FulRan=T
         wScrn=  0.000000 ICntrl=      2127 IOpCl=  0 I1Cent=           0 NGrid=           0
         NMat0=    1 NMatS0=      1 NMatT0=    0 NMatD0=    1 NMtDS0=    0 NMtDT0=    0
 Symmetry not used in FoFCou.
 Leave Link  703 at Mon Dec 30 11:33:42 2019, MaxMem=  4294967296 cpu:              69.6 elap:               4.5
 (Enter /n/sw/g16_nehalem/g16/l716.exe)
 Dipole        =-1.10428029D+00-4.20230595D-01-1.47512571D+00
 ***** Axes restored to original set *****
 -------------------------------------------------------------------
 Center     Atomic                   Forces (Hartrees/Bohr)
 Number     Number              X              Y              Z
 -------------------------------------------------------------------
      1        7           0.000019917    0.000017460    0.000004664
      2        1          -0.000004194   -0.000000578    0.000004111
      3        6           0.000003789   -0.000030889    0.000020031
      4        1           0.000000816    0.000007542   -0.000002609
      5        6          -0.000011118    0.000014401   -0.000000239
      6        6          -0.000018314    0.000048660   -0.000012753
      7        1          -0.000005523    0.000006701   -0.000008390
      8        8          -0.000006230   -0.000031101   -0.000005277
      9        7           0.000005445   -0.000031304    0.000011946
     10        1          -0.000001511    0.000010670   -0.000005344
     11        6           0.000006231   -0.000003044   -0.000006595
     12        1          -0.000002400   -0.000013247    0.000003847
     13        6           0.000015646   -0.000009655    0.000005640
     14        6          -0.000023876   -0.000007514   -0.000011300
     15        1           0.000004110   -0.000003220    0.000007491
     16        8          -0.000004115    0.000004177    0.000000099
     17        8           0.000007372    0.000007840    0.000006712
     18        6          -0.000009025   -0.000003225   -0.000008183
     19        1          -0.000000196   -0.000009643   -0.000003803
     20        1          -0.000001244   -0.000004779   -0.000006162
     21        1          -0.000002839   -0.000008704   -0.000007396
     22        9           0.000005494   -0.000011047    0.000001004
     23        9          -0.000001782    0.000011066    0.000003226
     24        9           0.000001802    0.000001301   -0.000017196
     25        9           0.000000295    0.000007251   -0.000009734
     26        6           0.000006030    0.000011621    0.000017209
     27        8          -0.000003105    0.000015805   -0.000010131
     28        6           0.000030206   -0.000025485    0.000023566
     29        1           0.000009007    0.000008030   -0.000001903
     30        1          -0.000020776    0.000008470   -0.000004246
     31        1           0.000000089    0.000012438    0.000011715
 -------------------------------------------------------------------
 Cartesian Forces:  Max     0.000048660 RMS     0.000012560
 Leave Link  716 at Mon Dec 30 11:33:43 2019, MaxMem=  4294967296 cpu:               1.1 elap:               0.1
 (Enter /n/sw/g16_nehalem/g16/l103.exe)

[...]
 01536,0.00001573,0.00004974,0.00000400,0.00001128,0.00007171,-0.000105
 81,0.00007926,-0.00001255,-0.00005476,-0.00000048,-0.00000868,0.000003
 60,-0.00002192,0.00001489,0.00006100,-0.00004655,0.00001501,0.00002310
 ,0.00003098,-0.00000811,-0.00002091,-0.00000176,0.00000061,-0.00000108
 ,-0.00000275,-0.00000029,0.00000621,-0.00000017,-0.00000317,-0.0000031
 4,-0.00000915,-0.00002365,0.00002242,-0.00002052,-0.00001525,0.0000861
 2,0.01462341,0.00684906,0.01530590,0.08280553,0.04082987,0.08538985,-0
 .25577014,0.04326266,-0.09457790,0.00307803,-0.00333269,-0.00278361,-0
 .03979886,0.01982583,-0.00428955,0.00290119,-0.00198151,-0.00294015,0.
 00179485,0.00655662,-0.00057733,-0.00775892,0.00271022,0.00069001,-0.0
 0036158,0.00008095,0.00022124,0.00599475,-0.00022449,-0.00031695,0.004
 99530,-0.00054669,-0.00095321,-0.00041083,0.00046346,0.00062686,-0.001
 09686,-0.00080717,-0.00058345,0.00005949,0.00013411,0.00000877,-0.0008
 4510,-0.00088619,0.00064136,-0.00135832,0.00067698,-0.00000893,-0.0000
 5852,-0.00019112,0.00009440,0.00072129,-0.00034530,-0.00008187,0.00129
 742,-0.00032722,0.00008333,-0.00036835,0.00027691,0.00012008,0.0000645
 9,-0.00002259,0.00000064,0.00003053,-0.00004946,-0.00002232,0.00003534
 ,-0.00004088,-0.00002281,0.00074474,0.00059878,0.00008059,0.00032490,0
 .00014676,-0.00053683,0.00243043,-0.00559844,-0.00141382,-0.00157228,-
 0.00273080,-0.00121272,0.55857743,0.07060197,-0.09903341,-0.00820934,-
 0.02292911,0.00405260,-0.00673075,0.01565349,-0.00565295,0.01401915,0.
 00263412,0.00000491,-0.00110445,0.00894764,0.00123827,0.00072087,0.000
 40105,-0.00274317,-0.00261996,-0.00043825,0.00017813,-0.00011424,-0.00
 319285,0.00005895,0.00061262,-0.00013839,0.00051396,0.00029773,-0.0000
 2716,-0.00001563,0.00004823,0.00024764,0.00010911,-0.00003126,0.000005
 71,-0.00001543,0.00001219,0.00009239,0.00022006,-0.00001334,0.00020992
 ,0.00001647,0.00009738,0.00001379,0.00004662,-0.00003017,-0.00011866,-
 0.00003043,-0.00005124,-0.00019617,0.00000114,-0.00004012,0.00005150,-
 0.00002600,-0.00000982,-0.00001002,0.00000187,-0.00000137,-0.00000175,
 0.00000932,0.00000150,-0.00000379,0.00000462,0.00000617,-0.00009625,-0
 .00010706,-0.00002565,-0.00003033,-0.00006019,0.00002522,-0.00091339,-
 0.00142473,-0.00016755,-0.00319851,-0.00079062,-0.00116436,-0.10896445
 ,0.49866611,-0.09424169,-0.03191114,-0.15261137,-0.01417535,0.01077843
 ,-0.01826909,0.00051844,0.01183251,0.02260389,0.00639722,-0.00355613,-
 0.00186239,0.00594745,0.00828494,-0.00016123,-0.00045807,-0.00416768,-
 0.00465831,-0.00051908,0.00001920,0.00008567,0.00296267,-0.00053805,0.
 00016840,0.00652319,0.00123966,0.00017477,-0.00037296,0.00043289,0.000
 99037,-0.00052398,-0.00100429,-0.00095754,0.00002943,0.00009624,-0.000
 00016,-0.00054352,-0.00093058,0.00099192,-0.00104750,0.00094362,0.0002
 1453,-0.00003310,-0.00009728,0.00008623,0.00060029,-0.00042538,-0.0002
 1324,0.00117929,-0.00039660,0.00000419,-0.00030788,0.00024924,0.000140
 83,0.00005898,-0.00002820,-0.00000213,0.00003155,-0.00004267,-0.000025
 83,0.00003619,-0.00003438,-0.00001778,0.00056007,0.00055889,-0.0000406
 3,0.00026042,0.00013169,-0.00070288,0.00213830,-0.00621927,-0.00140184
 ,-0.00355850,-0.00174583,-0.00288505,0.12531134,0.31833475,0.82458270,
 -0.00925505,-0.02083931,-0.06078164,-0.00357568,0.00470663,-0.00327663
 ,0.00108000,-0.00613495,-0.00162607,-0.00029029,-0.00080790,-0.0016879
 1,0.00017061,-0.00315936,0.00114152,0.00457072,0.00056628,-0.00177849,
 0.00005063,0.00037051,-0.00008249,-0.00291138,-0.00123723,-0.00019936,
 -0.00191572,0.00018455,0.00042135,0.00017941,-0.00024843,-0.00018512,0
 .00052052,0.00027512,0.00029304,-0.00002463,-0.00006952,-0.00000949,0.
 00034490,0.00036512,-0.00020298,0.00058626,-0.00026304,0.00003197,0.00
 002610,0.00009035,-0.00004567,-0.00030525,0.00014020,0.00000756,-0.000
 54278,0.00012957,-0.00004569,0.00015513,-0.00011819,-0.00004387,-0.000
 02712,0.00000877,-0.00000023,-0.00001218,0.00002089,0.00000771,-0.0000
 1456,0.00001843,0.00001001,-0.00032814,-0.00025654,-0.00004945,-0.0001
 3628,-0.00006439,0.00018175,-0.00054993,0.00131406,0.00013870,0.000705
 41,0.00166000,-0.00057089,-0.11052032,-0.02221275,-0.06041299,0.107582
 40,-0.02215999,0.02257179,-0.02180436,0.00296063,0.00387725,-0.0009550
 6,0.00409277,-0.00429941,-0.00145400,-0.00172338,0.00038874,0.00142795
 ,-0.00481557,-0.00215834,-0.00186252,-0.00035741,-0.00036409,0.0012426
 7,0.00036048,0.00000145,0.00021136,0.00002303,0.00087064,0.00050254,-0
 .00084677,0.00000945,-0.00008928,-0.00000924,-0.00012970,-0.00011638,-
 0.00001270,0.00015881,0.00007575,-0.00000411,-0.00000848,0.00000144,0.
 00011088,0.00001123,-0.00011760,0.00008945,-0.00020258,-0.00008897,0.0
 0000353,0.00001227,-0.00000312,-0.00004718,0.00012211,0.00006638,-0.00
 010304,0.00007678,0.00002342,0.00003124,-0.00003493,-0.00001757,-0.000
 00500,0.00000403,0.00000123,-0.00000494,0.00000189,0.00000377,-0.00000
 453,0.00000439,-0.00000113,-0.00006180,-0.00002633,0.00000704,-0.00004
 169,0.00001838,0.00009114,0.00047338,0.00103678,0.00027596,0.00300203,
 -0.00073273,0.00234205,-0.01405249,-0.24600216,-0.27422997,0.02574984,
 0.23396490,-0.05689313,-0.01868240,-0.07289320,-0.00603674,0.00165900,
 0.00508986,0.00983567,-0.00639290,-0.00626822,-0.00361812,0.00160899,0
 .00089001,-0.00237569,-0.00424531,0.00079934,0.00262093,-0.00104930,-0
 .00024255,0.00024742,-0.00022981,-0.00003504,-0.00342437,0.00085736,0.
 00077780,-0.00301080,0.00008758,0.00058005,0.00010915,-0.00020248,-0.0
 0053512,0.00043783,0.00048425,0.00037460,-0.00000152,-0.00005687,0.000
 00520,0.00031936,0.00043741,-0.00059932,0.00057658,-0.00049637,-0.0001
 2382,0.00002274,0.00007227,-0.00006488,-0.00032127,0.00025128,0.000144
 32,-0.00058902,0.00020472,0.00001121,0.00016402,-0.00012941,-0.0000790
 9,-0.00002886,0.00001463,0.00000077,-0.00001710,0.00002143,0.00001542,
 -0.00001887,0.00001610,0.00000802,-0.00028628,-0.00027075,0.00004139,-
 0.00015409,-0.00005289,0.00043587,-0.00133731,0.00338677,0.00081494,0.
 00128855,0.00134199,0.00059281,-0.04791763,-0.28351081,-0.56296408,0.1
 0391033,0.33561882,0.65365560,-0.02636095,0.02772551,0.00602558,-0.000
 04257,0.00004421,0.00174430,0.00071777,0.00190235,-0.00477563,0.000195
 25,0.00003446,0.00015299,-0.00128778,-0.00092677,0.00070942,0.00074578
 ,0.00064204,0.00013787,0.00002519,0.00002682,-0.00004079,-0.00029729,-
 0.00019633,-0.00019662,-0.00059583,-0.00012356,0.00005905,0.00007674,-
 0.00002782,-0.00009572,0.00011169,0.00006347,0.00012859,-0.00000639,-0
 .00001489,-0.00000298,0.00008356,0.00009895,-0.00006813,0.00015447,-0.
 00006896,0.00000544,0.00000464,0.00001449,-0.00000762,-0.00008084,0.00
 003162,0.00000436,-0.00014895,0.00003527,-0.00001307,0.00004224,-0.000
 03165,-0.00001243,-0.00000743,0.00000224,-0.00000010,-0.00000328,0.000
 00581,0.00000211,-0.00000392,0.00000502,0.00000296,-0.00008664,-0.0000
 7125,-0.00001111,-0.00003453,-0.00001596,0.00005322,-0.00030329,0.0010
 0544,0.00007243,0.00026231,0.00029316,0.00003259,-0.15276357,0.0541968
 0,0.02224721,0.01338623,0.00374323,0.00334598,0.56343658,0.01480550,0.
 00034637,-0.00164065,0.00007115,-0.00063645,0.00145742,0.00011977,0.00
 611479,-0.00201350,0.00020943,-0.00021509,0.00009133,-0.00112019,0.000
 48371,0.00040915,-0.00000133,-0.00068656,-0.00076233,0.00000294,-0.000
 09211,0.00003129,0.00028287,0.00015402,0.00007377,0.00062473,0.0001368
 1,0.00016783,-0.00004631,0.00008055,0.00003173,-0.00007792,-0.00013423
 ,-0.00008592,0.00000878,0.00001323,0.00000240,-0.00008729,-0.00010847,
 0.00003763,-0.00013332,0.00007402,-0.00000255,-0.00000435,-0.00001523,
 0.00000487,0.00007282,-0.00002675,0.00000291,0.00014813,-0.00003520,0.
 00001188,-0.00003914,0.00002912,0.00001125,0.00000749,-0.00000247,0.00
 000013,0.00000287,-0.00000564,-0.00000181,0.00000377,-0.00000471,-0.00
 000297,0.00007947,0.00006759,0.00001597,0.00002935,0.00002060,-0.00003
 418,0.00006942,0.00021679,-0.00001576,0.00007019,-0.00017818,0.0000587
 1,0.05277362,-0.13547484,-0.02084654,0.01507135,-0.00689826,-0.0278741
 7,0.03698591,0.52419804,-0.01490970,0.01050116,0.01114589,-0.00034440,
 0.00042173,0.00042244,-0.00390463,-0.00100965,-0.00138737,-0.00059124,
 -0.00008442,-0.00035896,-0.00032892,-0.00089831,-0.00003096,-0.0001320
 7,0.00121279,0.00099252,0.00001755,0.00008752,-0.00002792,-0.00008578,
 -0.00015765,-0.00022072,-0.00067399,-0.00027428,-0.00015970,0.00005294
 ,-0.00006123,-0.00007828,0.00001807,0.00009666,0.00013086,-0.00000669,
 -0.00001051,-0.00000144,0.00004810,0.00007827,-0.00005862,0.00008590,-
 0.00009374,-0.00001922,0.00000221,0.00000613,-0.00000216,-0.00005012,0
 .00003856,0.00001224,-0.00010592,0.00003800,-0.00000430,0.00002462,-0.
 00002261,-0.00000962,-0.00000569,0.00000256,0.00000071,-0.00000278,0.0
 0000373,0.00000131,-0.00000323,0.00000407,0.00000194,-0.00005812,-0.00
 005291,-0.00000637,-0.00002053,-0.00000978,0.00004028,-0.00006252,0.00
 030892,0.00002203,0.00033882,0.00013762,0.00017852,0.03030537,-0.02574
 326,-0.10044058,0.02053495,-0.03963992,-0.01814565,0.03589536,-0.00159
 294,0.59745484,-0.00260435,0.00002946,0.00087641,-0.00010442,0.0004671
 5,-0.00033072,-0.00067252,-0.00130918,0.00021996,-0.00006726,0.0000590
 6,-0.00001331,0.00022293,-0.00031452,-0.00002894,0.00003220,0.00047649
 ,0.00037365,0.00000279,0.00002991,-0.00001783,-0.00009827,-0.00019794,
 -0.00006710,-0.00024388,-0.00011422,-0.00007615,0.00002468,-0.00001314
 ,-0.00002497,0.00001548,0.00003855,0.00003230,-0.00000379,-0.00000265,
 -0.00000038,-0.00001574,0.00006162,-0.00002702,0.00001898,-0.00001862,
 -0.00000039,-0.00000085,0.00000087,-0.00000313,-0.00001553,0.00000089,
 -0.00000117,-0.00003336,0.00000747,-0.00000238,0.00000500,-0.00000436,
 -0.00000318,-0.00000177,0.00000100,0.00000008,-0.00000055,0.00000135,0
 .00000044,-0.00000087,0.00000067,0.00000085,-0.00000571,-0.00002527,0.
 00000353,0.00000146,-0.00001541,0.00001338,-0.00005923,0.00005798,0.00
 002626,-0.00001501,0.00009934,-0.00001024,0.00653224,0.02303850,-0.011
 96766,-0.00087523,-0.00179637,0.00155672,-0.05454377,-0.04546428,0.020
 78737,0.05695420,0.00111498,0.00033313,-0.00113587,0.00001488,-0.00039
 282,0.00020555,0.00063267,0.00055190,-0.00010552,0.00000528,-0.0000220
 6,0.00003757,-0.00018790,0.00022676,0.00002836,-0.00007223,-0.00028005
 ,-0.00019460,0.00000180,-0.00002469,0.00000777,0.00007896,0.00010030,0
 .00002944,0.00016388,0.00006419,0.00002660,-0.00001713,0.00000880,0.00
 002047,-0.00001683,-0.00002566,-0.00002137,0.00000216,0.00000229,0.000
 00048,0.00000323,-0.00003641,0.00002875,-0.00002011,0.00001492,0.00000
 246,-0.00000040,-0.00000018,0.00000309,0.00001331,-0.00000282,-0.00000
 212,0.00002721,-0.00000647,0.00000050,-0.00000625,0.00000437,0.0000035
 5,0.00000144,-0.00000061,0.00000015,0.00000056,-0.00000116,-0.00000076
 ,0.00000077,-0.00000059,-0.00000057,0.00000654,0.00001585,-0.00000432,
 0.00000266,0.00000816,-0.00001758,0.00004624,-0.00003254,-0.00002211,0
 .00002832,-0.00004661,0.00001009,-0.00578307,-0.02036571,0.00863590,0.
 00227610,0.00194678,-0.00185536,-0.04865188,-0.27248150,0.09893832,0.0
 5031746,0.29270583,0.00005125,0.00044755,0.00040055,0.00022525,0.00028
 394,-0.00022260,0.00012413,0.00019742,0.00008287,-0.00010330,0.0000340
 9,0.00002533,-0.00008118,0.00007450,-0.00004453,-0.00005882,0.00000341
 ,0.00000222,0.00000755,-0.00001423,0.00001223,0.00004729,-0.00005380,-
 0.00001606,0.00009948,-0.00000986,-0.00002213,-0.00000158,0.00001104,0
 .00001013,-0.00001134,-0.00001684,-0.00001410,0.00000046,0.00000419,-0
 .00000004,-0.00001710,-0.00000167,0.00002483,-0.00002328,0.00002107,0.
 00000514,-0.00000057,-0.00000230,0.00000391,0.00001184,-0.00001234,-0.
 00000484,0.00002228,-0.00000900,-0.00000046,-0.00000706,0.00000625,0.0
 0000267,0.00000100,-0.00000041,-0.00000002,0.00000064,-0.00000088,-0.0
 0000049,0.00000073,-0.00000091,-0.00000035,0.00001079,0.00000472,-0.00
 000267,0.00000788,-0.00000209,-0.00001846,0.00001631,-0.00001453,0.000
 00632,0.00003323,-0.00004318,0.00003774,-0.00546480,-0.01256893,0.0048
 0206,0.00181281,0.00088216,-0.00240479,0.02175743,0.09646333,-0.087379
 83,-0.02393047,-0.10620147,0.09130909,-0.00081830,0.00054665,-0.000956
 18,-0.00137332,0.00050686,0.00027998,0.00056827,-0.00030501,-0.0000563
 2,0.00018034,0.00001127,0.00011699,0.00015906,0.00005707,0.00002997,0.
 00005305,0.00004149,0.00004235,-0.00000759,-0.00000471,-0.00000585,-0.
 00003567,-0.00009856,-0.00007864,0.00006832,-0.00002437,-0.00003337,0.
 00000804,0.00000730,0.00001178,-0.00000155,-0.00000687,-0.00000983,-0.
 00000196,0.00000199,-0.00000010,-0.00001148,0.00000313,0.00001734,-0.0
 0001298,0.00001801,0.00000686,-0.00000006,-0.00000113,0.00000224,0.000
 00616,-0.00001227,-0.00000603,0.00001134,-0.00000717,-0.00000184,-0.00
 000438,0.00000406,0.00000171,0.00000052,-0.00000024,-0.00000004,0.0000
 0052,-0.00000036,-0.00000038,0.00000046,-0.00000053,0.00000003,0.00000
 603,0.00000123,-0.00000233,0.00000527,-0.00000305,-0.00001273,-0.00002
 616,-0.00001266,0.00001297,-0.00011299,-0.00001589,-0.00005617,0.00420
 909,-0.00460098,0.02273900,-0.00204491,0.00554152,0.00204338,-0.053889
 74,-0.00052380,-0.01405518,-0.00060505,0.00081235,0.00656327,0.0514016
 3,-0.00024658,-0.00019839,0.00120834,0.00058767,0.00043574,-0.00017840
 ,-0.00034779,-0.00000505,0.00017973,-0.00022546,0.00002457,-0.00007061
 ,0.00002381,0.00001978,-0.00010834,-0.00008338,0.00008869,0.00010658,0
 .00000938,-0.00000592,0.00001629,0.00003764,-0.00004445,-0.00000930,0.
 00000266,-0.00003264,-0.00002550,0.00000305,0.00000547,-0.00000534,-0.
 00000814,-0.00000171,-0.00000147,0.00000037,0.00000339,0.00000002,-0.0
 0000828,0.00001190,0.00000475,-0.00000850,0.00000879,0.00000065,-0.000
 00043,-0.00000168,0.00000249,0.00000341,-0.00000750,-0.00000059,0.0000
 0501,-0.00000377,0.00000021,-0.00000237,0.00000317,0.00000004,0.000000
 21,0.,-0.00000007,0.00000022,-0.00000022,0.00000001,0.00000020,-0.0000
 0064,-0.00000007,0.00000347,-0.00000308,-0.00000070,0.00000362,-0.0000
 0402,-0.00000415,-0.00000802,-0.00001509,0.00001607,0.00000954,-0.0000
 3369,0.00005314,-0.00636037,-0.00010908,-0.02329702,0.00487243,-0.0048
 1575,-0.00267238,0.00055283,-0.04651049,-0.01694081,0.00192419,0.00437
 578,0.03018999,-0.00166801,0.04827872,-0.00075557,0.00023734,0.0013756
 4,0.00086383,0.00024147,0.00005534,0.00017114,-0.00026180,0.00048738,-
 0.00021436,0.00010983,0.00006676,-0.00003354,-0.00000169,-0.00010234,-
 0.00004534,-0.00007952,-0.00002888,0.00000909,-0.00000314,0.00001411,0
 .00002511,0.00006854,0.00004445,-0.00000409,0.00001030,0.00002131,-0.0
 0000464,0.00000049,-0.00000697,-0.00000612,-0.00000167,-0.00000621,0.0
 0000095,0.00000043,0.00000035,-0.00000544,-0.00000681,-0.00001812,-0.0
 0000763,-0.00000623,-0.00000820,-0.00000061,-0.00000158,-0.00000154,0.
 00000397,0.00000453,0.00000668,0.00000763,0.00000127,0.00000407,-0.000
 00162,0.00000115,-0.00000111,0.00000056,0.00000013,0.00000001,0.,-0.00
 000034,0.00000028,0.00000001,-0.00000055,-0.00000029,0.00000716,0.0000
 0501,0.00000631,-0.00000002,0.00000244,0.00001143,0.00002645,-0.000029
 88,0.00000110,0.00006604,-0.00002091,0.00006553,-0.00538349,0.00191168
 ,-0.01000470,0.00286275,-0.00222027,-0.00023125,-0.01060806,-0.0190357
 7,-0.32834703,-0.00072652,-0.00154271,-0.01025767,0.01323373,0.0205055
 7,0.35264569,-0.00246455,0.00347550,0.00247459,0.00039454,-0.00005210,
 0.00044642,-0.00002583,0.00032328,-0.00103987,-0.00003310,0.00002593,0
 .00002049,-0.00035331,-0.00039114,0.00017617,0.00022628,0.00020019,0.0
 0007982,0.00001010,0.00002088,-0.00002117,-0.00013887,-0.00004153,-0.0
 0004759,-0.00023376,-0.00003498,0.00001156,0.00002465,-0.00001778,-0.0
 0003412,0.00003653,0.00002815,0.00004406,-0.00000268,-0.00000552,-0.00
 000060,0.00003073,0.00003490,-0.00002735,0.00005360,-0.00003291,-0.000
 00180,0.00000191,0.00000584,-0.00000289,-0.00002857,0.00001608,0.00000
 399,-0.00005291,0.00001516,-0.00000325,0.00001466,-0.00001188,-0.00000
 486,-0.00000273,0.00000097,0.00000007,-0.00000134,0.00000200,0.0000008
 7,-0.00000152,0.00000193,0.00000089,-0.00003077,-0.00002494,-0.0000032
 1,-0.00001275,-0.00000499,0.00002123,-0.00008685,0.00028745,0.00002638
 ,0.00011215,0.00010649,0.00002501,-0.02110796,-0.00902171,-0.00937875,
 0.00397112,-0.00013580,-0.00044785,-0.28878568,-0.07394163,-0.07276976
 ,-0.00384277,-0.00079500,-0.00109414,0.00226805,0.00092759,0.00051862,
 0.31006165,0.00270384,-0.00309794,-0.00213822,-0.00015852,-0.00020639,
 -0.00027262,0.00062065,-0.00053575,0.00089002,-0.00001338,0.00000993,0
 .00001901,0.00031073,0.00031136,-0.00012466,-0.00011339,-0.00031152,-0
 .00010288,-0.00000540,-0.00002242,0.00001301,0.00008737,0.00011032,0.0
 0006792,0.00015841,0.00006718,0.00000808,-0.00001964,0.00000830,0.0000
 2273,-0.00001746,-0.00001277,-0.00003454,0.00000200,0.00000292,0.00000
 072,-0.00000039,-0.00003254,0.00001246,-0.00002250,0.00001641,-0.00000
 081,-0.00000012,-0.00000216,0.00000130,0.00001393,-0.00000580,0.000000
 30,0.00002587,-0.00000704,0.00000277,-0.00000530,0.00000505,0.00000183
 ,0.00000137,-0.00000064,-0.00000017,0.00000056,-0.00000093,-0.00000019
 ,0.00000071,-0.00000091,-0.00000055,0.00001228,0.00001765,0.00000136,0
 .00000237,0.00000700,-0.00000666,0.00004419,-0.00020842,-0.00000873,-0
 .00011329,-0.00007643,-0.00001594,0.02473804,0.00672928,0.00793306,-0.
 00240857,0.00059504,0.00165858,-0.07728057,-0.06842945,-0.02528403,-0.
 02733600,-0.00663918,-0.00967122,-0.00026734,-0.00146283,0.00011270,0.
 07903957,0.07317267,0.00075311,-0.00174898,0.00000942,0.00049891,0.000
 10302,-0.00015213,0.00003519,-0.00029901,0.00056187,0.00000113,0.00003
 012,0.00006783,0.00007070,0.00008438,-0.00002328,-0.00008236,-0.000096
 13,-0.00006358,-0.00000677,-0.00000308,0.00001144,0.00004963,0.0000465
 2,0.00005110,0.00005544,0.00002371,0.00000098,-0.00001026,0.00000057,0
 .00001043,-0.00001417,-0.00000732,-0.00001172,0.00000155,0.00000075,0.
 00000052,-0.00000636,-0.00001600,0.00000490,-0.00001356,0.00000136,-0.
 00000242,-0.00000060,-0.00000127,-0.00000024,0.00000783,0.00000155,0.0
 0000050,0.00001398,-0.00000129,0.00000187,-0.00000326,0.00000176,0.000
 00139,0.00000071,-0.00000026,0.00000005,0.00000019,-0.00000056,-0.0000
 0022,0.00000033,-0.00000025,-0.00000040,0.00000866,0.00000940,0.000001
 92,0.00000243,0.00000368,-0.00000404,0.00006366,-0.00011198,-0.0000326
 8,0.00002950,-0.00000537,-0.00000712,0.01090338,0.00604913,0.00237329,
 -0.00035546,-0.00017352,0.00034977,-0.07654462,-0.02496252,-0.07372486
 ,0.01334062,0.00312530,0.00366394,-0.02982660,-0.00896910,-0.00579212,
 0.08102706,0.02691537,0.07270358\\0.00000539,-0.00000259,0.00000304,0.
 00000178,0.00000448,-0.00000547,-0.00000448,-0.00001497,0.00001413,0.0
 0000737,-0.00000623,0.00000100,0.00000170,-0.00000980,0.00000772,-0.00
 000318,0.00004684,-0.00006373,0.00000185,0.00000468,0.00000605,-0.0000
 0477,-0.00001592,0.00002443,-0.00001099,-0.00001982,-0.00000050,0.0000
 0097,-0.00000982,0.00000936,-0.00000006,0.00000054,0.00001551,0.000003
 76,0.00000669,-0.00000258,-0.00000534,-0.00000075,-0.00000511,0.000008
 03,0.00000074,0.00001309,-0.00000187,-0.00000162,-0.00001070,-0.000004
 23,0.00000392,0.00000227,-0.00001244,0.00002440,-0.00000099,0.00000443
 ,0.00000622,0.00000368,0.00000029,0.00001037,0.00000445,0.00000212,0.0
 0000394,0.00000594,0.00000118,0.00000920,0.00000822,0.00000787,-0.0000
 0539,-0.00000474,0.00000091,0.00000362,-0.00000916,0.00000922,0.000011
 57,0.00000717,0.00000188,-0.00000281,0.00000585,-0.00001716,-0.0000323
 7,-0.00000326,0.00001191,-0.00000150,0.00000159,-0.00000292,0.00000880
 ,-0.00000914,-0.00000465,-0.00000791,-0.00000637,0.00000040,-0.0000039
 6,-0.00000625,0.00000101,-0.00001054,-0.00000550\\\@


 YOU CANNOT THROW TO THE GROUND THE LETTERS OF
 THE GREEK ALPHABET AND PICK UP THE ILIAD.
        - RUFUS CHOATE, 1799-1859
 Job cpu time:       0 days  1 hours 37 minutes 42.4 seconds.
 Elapsed time:       0 days  0 hours  6 minutes  9.2 seconds.
 File lengths (MBytes):  RWF=    473 Int=      0 D2E=      0 Chk=     17 Scr=      1
 Normal termination of Gaussian 16 at Mon Dec 30 11:40:25 2019.
