 Entering Gaussian System, Link 0=g16
 Input=RYL_TS.gjf
 Output=RYL_TS.out
 Initial command:
 /home/cwagen/sw/g16/g16/l1.exe "/scratch/users/cwagen/cwagen_RYL_TS/Gau-58931.inp" -scrdir="/scratch/users/cwagen/cwagen_RYL_TS/"
 Entering Link 1 = /home/cwagen/sw/g16/g16/l1.exe PID=     58932.
  
 Copyright (c) 1988,1990,1992,1993,1995,1998,2003,2009,2016,
            Gaussian, Inc.  All Rights Reserved.
  
 This is part of the Gaussian(R) 16 program.  It is based on
 the Gaussian(R) 09 system (copyright 2009, Gaussian, Inc.),
 the Gaussian(R) 03 system (copyright 2003, Gaussian, Inc.),
 the Gaussian(R) 98 system (copyright 1998, Gaussian, Inc.),
 the Gaussian(R) 94 system (copyright 1995, Gaussian, Inc.),
 the Gaussian 92(TM) system (copyright 1992, Gaussian, Inc.),
 the Gaussian 90(TM) system (copyright 1990, Gaussian, Inc.),
 the Gaussian 88(TM) system (copyright 1988, Gaussian, Inc.),
 the Gaussian 86(TM) system (copyright 1986, Carnegie Mellon
 University), and the Gaussian 82(TM) system (copyright 1983,
 Carnegie Mellon University). Gaussian is a federally registered
 trademark of Gaussian, Inc.
  
 This software contains proprietary and confidential information,
 including trade secrets, belonging to Gaussian, Inc.
  
 This software is provided under written license and may be
 used, copied, transmitted, or stored only in accord with that
 written license.
  
 The following legend is applicable only to US Government
 contracts under FAR:
  
                    RESTRICTED RIGHTS LEGEND
  
 Use, reproduction and disclosure by the US Government is
 subject to restrictions as set forth in subparagraphs (a)
 and (c) of the Commercial Computer Software - Restricted
 Rights clause in FAR 52.227-19.
  
 Gaussian, Inc.
 340 Quinnipiac St., Bldg. 40, Wallingford CT 06492
  
  
 ---------------------------------------------------------------
 Warning -- This program may not be used in any manner that
 competes with the business of Gaussian, Inc. or will provide
 assistance to any competitor of Gaussian, Inc.  The licensee
 of this program is prohibited from giving any competitor of
 Gaussian, Inc. access to this program.  By using this program,
 the user acknowledges that Gaussian, Inc. is engaged in the
 business of creating and licensing software in the field of
 computational chemistry and represents and warrants to the
 licensee that it is not a competitor of Gaussian, Inc. and that
 it will not use this program in any manner prohibited above.
 ---------------------------------------------------------------
  

 Cite this work as:
 Gaussian 16, Revision A.03,
 M. J. Frisch, G. W. Trucks, H. B. Schlegel, G. E. Scuseria, 
 M. A. Robb, J. R. Cheeseman, G. Scalmani, V. Barone, 
 G. A. Petersson, H. Nakatsuji, X. Li, M. Caricato, A. V. Marenich, 
 J. Bloino, B. G. Janesko, R. Gomperts, B. Mennucci, H. P. Hratchian, 
 J. V. Ortiz, A. F. Izmaylov, J. L. Sonnenberg, D. Williams-Young, 
 F. Ding, F. Lipparini, F. Egidi, J. Goings, B. Peng, A. Petrone, 
 T. Henderson, D. Ranasinghe, V. G. Zakrzewski, J. Gao, N. Rega, 
 G. Zheng, W. Liang, M. Hada, M. Ehara, K. Toyota, R. Fukuda, 
 J. Hasegawa, M. Ishida, T. Nakajima, Y. Honda, O. Kitao, H. Nakai, 
 T. Vreven, K. Throssell, J. A. Montgomery, Jr., J. E. Peralta, 
 F. Ogliaro, M. J. Bearpark, J. J. Heyd, E. N. Brothers, K. N. Kudin, 
 V. N. Staroverov, T. A. Keith, R. Kobayashi, J. Normand, 
 K. Raghavachari, A. P. Rendell, J. C. Burant, S. S. Iyengar, 
 J. Tomasi, M. Cossi, J. M. Millam, M. Klene, C. Adamo, R. Cammi, 
 J. W. Ochterski, R. L. Martin, K. Morokuma, O. Farkas, 
 J. B. Foresman, and D. J. Fox, Gaussian, Inc., Wallingford CT, 2016.
 
 ******************************************
 Gaussian 16:  AS64L-G16RevA.03 25-Dec-2016
                17-Dec-2019 
 ******************************************
 %nprocshared=16
 Will use up to   16 processors via shared memory.
 %mem=32GB
 ----------------------------------------------------------------------
 #p opt=(ts,calcfc,noeigentest) freq=noraman m062x/6-31g(d) scrf=(smd,s
 olvent=diethylether)
 ----------------------------------------------------------------------
 1/5=1,10=4,11=1,18=20,26=3,38=1/1,3;
 2/9=110,12=2,17=6,18=5,40=1/2;
 3/5=1,6=6,7=1,11=2,25=1,30=1,70=32201,71=2,72=8,74=-55,140=1/1,2,3;
 4//1;
 5/5=2,38=5,53=8/2;
 8/6=4,10=90,11=11/1;
 11/6=1,8=1,9=11,15=111,16=1/1,2,10;
 10/6=1,13=1/2;
 6/7=2,8=2,9=2,10=2,28=1/1;
 7/10=1,18=20,25=1/1,2,3,16;
 1/5=1,10=4,11=1,18=20,26=3/3(2);
 2/9=110/2;
 99//99;
 2/9=110/2;
 3/5=1,6=6,7=1,11=2,25=1,30=1,70=32205,71=1,72=8,74=-55/1,2,3;
 4/5=5,16=3,69=1/1;
 5/5=2,38=5,53=8/2;
 7//1,2,3,16;
 1/5=1,11=1,18=20,26=3/3(-5);
 2/9=110/2;
 6/7=2,8=2,9=2,10=2,19=2,28=1/1;
 99/9=1/99;
 Leave Link    1 at Tue Dec 17 09:05:53 2019, MaxMem=  4294967296 cpu:              10.1 elap:               0.7
 (Enter /home/cwagen/sw/g16/g16/l101.exe)
 -----
 title
 -----
 Symbolic Z-matrix:
 Charge =  0 Multiplicity = 1
 6                     0.86856  -4.73423  -1.97712 
 6                     1.37101  -3.48707  -2.35364 
 6                     0.52755  -2.3947   -2.47437 
 6                    -0.8504   -2.5225   -2.22801 
 6                    -1.36973  -3.7755   -1.89493 
 6                    -0.49411  -4.85341  -1.75294 
 7                    -1.56427  -1.31986  -2.2841 
 6                     2.84443  -3.36554  -2.56811 
 8                     3.62509  -4.25204  -2.30229 
 8                     3.20285  -2.19845  -3.11756 
 6                    -2.85375  -0.99166  -2.00189 
 7                    -3.00316   0.33767  -1.77868 
 6                    -4.29091   0.99286  -1.71858 
 6                    -4.13725   2.55264  -1.79423 
 6                    -5.51844   3.14542  -2.10467 
 6                    -3.17739   2.90572  -2.94207 
 6                    -3.62109   3.13842  -0.46169 
 6                    -3.23086   4.61824  -0.48873 
 8                    -1.81427   4.67244  -0.69094 
 6                    -1.20546   5.84655  -0.44863 
 8                    -1.80068   6.88237  -0.26674 
 6                     0.27544   5.68207  -0.36581 
 6                     0.82243   4.41112  -0.43499 
 6                     2.19825   4.20018  -0.26974 
 6                     3.02717   5.30179  -0.0431 
 6                     2.45376   6.57559   0.01425 
 6                     1.09087   6.79128  -0.13841 
 7                     2.5699    2.8561   -0.38691 
 6                     3.737     2.17755  -0.23752 
 7                     3.59577   0.8732   -0.57056 
 6                     4.61673  -0.14584  -0.45324 
 6                     5.5278   -0.31679  -1.75622 
 6                     6.97504   0.01515  -1.34566 
 6                     5.10662   0.70007  -2.82279 
 6                     5.5432   -1.74992  -2.36257 
 6                     4.58381  -2.09497  -3.49648 
 6                     3.8597   -1.41714  -0.03509 
 6                    -5.01428   0.54096  -0.43458 
 8                    -4.37131   0.46986   0.61696 
 7                    -6.34884   0.32169  -0.4889 
 6                    -7.11309   0.11075  -1.74445 
 6                    -8.57241  -0.06456  -1.29258 
 6                    -8.44788  -0.34709   0.18192 
 6                    -7.14516  -0.08683   0.61552 
 6                    -9.417    -0.76435   1.07913 
 6                    -9.07819  -0.92003   2.42439 
 6                    -7.78095  -0.64905   2.84944 
 6                    -6.79486  -0.22743   1.9561 
 8                     2.694    -1.56978  -0.39132 
 7                     4.51869  -2.32942   0.7248 
 6                     5.92465  -2.24025   1.1707 
 6                     6.03289  -3.26577   2.31188 
 6                     4.8574   -4.1742    2.05584 
 6                     3.98114  -3.57287   1.15123 
 6                     4.54555  -5.39978   2.6262 
 6                     3.34753  -6.02589   2.27819 
 6                     2.47954  -5.41589   1.37249 
 6                     2.78112  -4.18161   0.79822 
 6                     3.34081   7.74809   0.32663 
 9                     4.59694   7.56084  -0.10057 
 9                     3.40947   7.97587   1.64969 
 9                     2.88613   8.87774  -0.23691 
 6                    -1.0367   -6.13941  -1.20242 
 9                    -1.0541   -6.10515   0.15116 
 9                    -0.29119  -7.19613  -1.54735 
 9                    -2.29378  -6.37604  -1.59417 
 17                    0.14932   1.07818  -1.3467 
 1                     1.54557  -5.57287  -1.85252 
 1                     0.94634  -1.42094  -2.71157 
 1                    -2.42956  -3.90317  -1.71697 
 1                    -0.92834  -0.51819  -2.29496 
 1                    -2.1582    0.90465  -1.70905 
 1                    -4.86227   0.67789  -2.59775 
 1                    -5.47047   4.23798  -2.13528 
 1                    -5.87362   2.8113   -3.08574 
 1                    -6.25837   2.86642  -1.34589 
 1                    -3.44239   2.35634  -3.85161 
 1                    -3.2433    3.97523  -3.16624 
 1                    -2.13094   2.69465  -2.69812 
 1                    -2.72126   2.59787  -0.14117 
 1                    -4.37929   2.98595   0.31372 
 1                    -3.45724   5.10551   0.46451 
 1                    -3.73066   5.19238  -1.27496 
 1                     0.17563   3.55664  -0.60012 
 1                     4.09371   5.1747    0.08309 
 1                     0.66058   7.78514  -0.07789 
 1                     1.77336   2.27524  -0.66631 
 1                     2.69132   0.53477  -0.9062 
 1                     5.27217   0.17953   0.35793 
 1                     7.61986   0.02976  -2.23089 
 1                     7.02027   0.99619  -0.86524 
 1                     7.38356  -0.72889  -0.65344 
 1                     5.74015   0.5781   -3.70899 
 1                     4.06228   0.57502  -3.12506 
 1                     5.24005   1.72079  -2.45371 
 1                     5.45906  -2.52284  -1.59127 
 1                     6.53835  -1.88708  -2.80629 
 1                     4.88826  -3.0519   -3.92757 
 1                     4.59543  -1.33501  -4.27834 
 1                    -6.99638   0.95945  -2.41631 
 1                    -6.7212   -0.78842  -2.23011 
 1                    -9.06491  -0.87278  -1.83827 
 1                    -9.15101   0.85047  -1.4609 
 1                    -10.42718  -0.96804   0.73548 
 1                    -9.82557  -1.25266   3.13736 
 1                    -7.52144  -0.7708    3.89664 
 1                    -5.79104  -0.02343   2.29364 
 1                     6.58384  -2.51959   0.34108 
 1                     6.17121  -1.22772   1.49123 
 1                     5.9321   -2.77758   3.28803 
 1                     6.99396  -3.78451   2.29426 
 1                     5.22734  -5.86188   3.33469 
 1                     3.09311  -6.98816   2.71088 
 1                     1.54697  -5.90477   1.09928 
 1                     2.10099  -3.69953   0.11259 
 6                    -3.41357   1.00984   3.39039 
 1                    -2.64959   1.51683   3.98332 
 1                    -4.17879   0.62283   4.07007 
 1                    -3.86898   1.71044   2.6829 
 8                    -2.78378  -0.07      2.7053 
 1                    -3.433    -0.41445   2.05869 
 6                    -0.34152   1.07371   2.0997 
 6                     0.97644   0.31234   2.15458 
 6                     0.64476  -1.15538   2.36909 
 6                    -0.13145  -1.70495   1.17243 
 6                    -1.37505   0.35862   1.24608 
 1                     1.52421   0.43949   1.20991 
 1                    -0.72045   1.08416   3.13155 
 1                     0.51888  -1.70809   0.28995 
 1                    -2.14694   0.93006   0.7358 
 1                     0.02615  -1.24806   3.27329 
 8                    -1.25158  -0.82747   0.80338 
 8                    -0.14707   2.37701   1.63062 
 8                     1.70945   0.78519   3.25376 
 8                     1.82706  -1.89873   2.49322 
 6                    -0.70884  -3.07936   1.415 
 1                    -1.38254  -3.34859   0.59028 
 1                     0.12584  -3.79861   1.42341 
 8                    -1.3949   -3.0854    2.64083 
 6                    -0.93949   3.35261   2.28047 
 1                    -0.61445   4.32197   1.90112 
 1                    -2.00929   3.22105   2.06206 
 1                    -0.78616   3.31671   3.36667 
 6                     2.95278   1.36515   2.90271 
 1                     3.57824   0.649     2.35162 
 1                     2.81025   2.26485   2.29264 
 1                     3.45172   1.63515   3.83491 
 6                     1.86651  -2.71724   3.64926 
 1                     1.00894  -3.40212   3.68015 
 1                     2.78897  -3.29905   3.59453 
 1                     1.86808  -2.09944   4.55565 
 6                    -1.92317  -4.36254   2.92622 
 1                    -2.43517  -4.29404   3.88696 
 1                    -2.63461  -4.67918   2.15193 
 1                    -1.12203  -5.11316   2.99059 
 16                    5.17901   2.8375    0.33794 
 16                   -4.16089  -2.0541   -1.97572 
 
 Add virtual bond connecting atoms H121       and O39        Dist= 3.66D+00.
 Add virtual bond connecting atoms C126       and O120       Dist= 3.92D+00.
 Add virtual bond connecting atoms H130       and H80        Dist= 3.72D+00.
 Add virtual bond connecting atoms H71        and Cl67       Dist= 4.06D+00.
 Add virtual bond connecting atoms H87        and Cl67       Dist= 4.02D+00.
 ITRead=  0  0  0  0  0  0  0  0  0  0  0  0  0  0  0  0  0  0  0  0
 ITRead=  0  0  0  0  0  0  0  0  0  0  0  0  0  0  0  0  0  0  0  0
 ITRead=  0  0  0  0  0  0  0  0  0  0  0  0  0  0  0  0  0  0  0  0
 ITRead=  0  0  0  0  0  0  0  0  0  0  0  0  0  0  0  0  0  0  0  0
 ITRead=  0  0  0  0  0  0  0  0  0  0  0  0  0  0  0  0  0  0  0  0
 ITRead=  0  0  0  0  0  0  0  0  0  0  0  0  0  0  0  0  0  0  0  0
 ITRead=  0  0  0  0  0  0  0  0  0  0  0  0  0  0  0  0  0  0  0  0
 ITRead=  0  0  0  0  0  0  0  0  0  0  0  0  0  0  0  0  0
 MicOpt= -1 -1 -1 -1 -1 -1 -1 -1 -1 -1 -1 -1 -1 -1 -1 -1 -1 -1 -1 -1
 MicOpt= -1 -1 -1 -1 -1 -1 -1 -1 -1 -1 -1 -1 -1 -1 -1 -1 -1 -1 -1 -1
 MicOpt= -1 -1 -1 -1 -1 -1 -1 -1 -1 -1 -1 -1 -1 -1 -1 -1 -1 -1 -1 -1
 MicOpt= -1 -1 -1 -1 -1 -1 -1 -1 -1 -1 -1 -1 -1 -1 -1 -1 -1 -1 -1 -1
 MicOpt= -1 -1 -1 -1 -1 -1 -1 -1 -1 -1 -1 -1 -1 -1 -1 -1 -1 -1 -1 -1
 MicOpt= -1 -1 -1 -1 -1 -1 -1 -1 -1 -1 -1 -1 -1 -1 -1 -1 -1 -1 -1 -1
 MicOpt= -1 -1 -1 -1 -1 -1 -1 -1 -1 -1 -1 -1 -1 -1 -1 -1 -1 -1 -1 -1
 MicOpt= -1 -1 -1 -1 -1 -1 -1 -1 -1 -1 -1 -1 -1 -1 -1 -1 -1
 NAtoms=    157 NQM=      157 NQMF=       0 NMMI=      0 NMMIF=      0
                NMic=       0 NMicF=      0.
                    Isotopes and Nuclear Properties:
 (Nuclear quadrupole moments (NQMom) in fm**2, nuclear magnetic moments (NMagM)
  in nuclear magnetons)

  Atom         1           2           3           4           5           6           7           8           9          10
 IAtWgt=          12          12          12          12          12          12          14          12          16          16
 AtmWgt=  12.0000000  12.0000000  12.0000000  12.0000000  12.0000000  12.0000000  14.0030740  12.0000000  15.9949146  15.9949146
 NucSpn=           0           0           0           0           0           0           2           0           0           0
 AtZEff=   0.0000000   0.0000000   0.0000000   0.0000000   0.0000000   0.0000000   0.0000000   0.0000000   0.0000000   0.0000000
 NQMom=    0.0000000   0.0000000   0.0000000   0.0000000   0.0000000   0.0000000   2.0440000   0.0000000   0.0000000   0.0000000
 NMagM=    0.0000000   0.0000000   0.0000000   0.0000000   0.0000000   0.0000000   0.4037610   0.0000000   0.0000000   0.0000000
 AtZNuc=   6.0000000   6.0000000   6.0000000   6.0000000   6.0000000   6.0000000   7.0000000   6.0000000   8.0000000   8.0000000

  Atom        11          12          13          14          15          16          17          18          19          20
 IAtWgt=          12          14          12          12          12          12          12          12          16          12
 AtmWgt=  12.0000000  14.0030740  12.0000000  12.0000000  12.0000000  12.0000000  12.0000000  12.0000000  15.9949146  12.0000000
 NucSpn=           0           2           0           0           0           0           0           0           0           0
 AtZEff=   0.0000000   0.0000000   0.0000000   0.0000000   0.0000000   0.0000000   0.0000000   0.0000000   0.0000000   0.0000000
 NQMom=    0.0000000   2.0440000   0.0000000   0.0000000   0.0000000   0.0000000   0.0000000   0.0000000   0.0000000   0.0000000
 NMagM=    0.0000000   0.4037610   0.0000000   0.0000000   0.0000000   0.0000000   0.0000000   0.0000000   0.0000000   0.0000000
 AtZNuc=   6.0000000   7.0000000   6.0000000   6.0000000   6.0000000   6.0000000   6.0000000   6.0000000   8.0000000   6.0000000

  Atom        21          22          23          24          25          26          27          28          29          30
 IAtWgt=          16          12          12          12          12          12          12          14          12          14
 AtmWgt=  15.9949146  12.0000000  12.0000000  12.0000000  12.0000000  12.0000000  12.0000000  14.0030740  12.0000000  14.0030740
 NucSpn=           0           0           0           0           0           0           0           2           0           2
 AtZEff=   0.0000000   0.0000000   0.0000000   0.0000000   0.0000000   0.0000000   0.0000000   0.0000000   0.0000000   0.0000000
 NQMom=    0.0000000   0.0000000   0.0000000   0.0000000   0.0000000   0.0000000   0.0000000   2.0440000   0.0000000   2.0440000
 NMagM=    0.0000000   0.0000000   0.0000000   0.0000000   0.0000000   0.0000000   0.0000000   0.4037610   0.0000000   0.4037610
 AtZNuc=   8.0000000   6.0000000   6.0000000   6.0000000   6.0000000   6.0000000   6.0000000   7.0000000   6.0000000   7.0000000

  Atom        31          32          33          34          35          36          37          38          39          40
 IAtWgt=          12          12          12          12          12          12          12          12          16          14
 AtmWgt=  12.0000000  12.0000000  12.0000000  12.0000000  12.0000000  12.0000000  12.0000000  12.0000000  15.9949146  14.0030740
 NucSpn=           0           0           0           0           0           0           0           0           0           2
 AtZEff=   0.0000000   0.0000000   0.0000000   0.0000000   0.0000000   0.0000000   0.0000000   0.0000000   0.0000000   0.0000000
 NQMom=    0.0000000   0.0000000   0.0000000   0.0000000   0.0000000   0.0000000   0.0000000   0.0000000   0.0000000   2.0440000
 NMagM=    0.0000000   0.0000000   0.0000000   0.0000000   0.0000000   0.0000000   0.0000000   0.0000000   0.0000000   0.4037610
 AtZNuc=   6.0000000   6.0000000   6.0000000   6.0000000   6.0000000   6.0000000   6.0000000   6.0000000   8.0000000   7.0000000

  Atom        41          42          43          44          45          46          47          48          49          50
 IAtWgt=          12          12          12          12          12          12          12          12          16          14
 AtmWgt=  12.0000000  12.0000000  12.0000000  12.0000000  12.0000000  12.0000000  12.0000000  12.0000000  15.9949146  14.0030740
 NucSpn=           0           0           0           0           0           0           0           0           0           2
 AtZEff=   0.0000000   0.0000000   0.0000000   0.0000000   0.0000000   0.0000000   0.0000000   0.0000000   0.0000000   0.0000000
 NQMom=    0.0000000   0.0000000   0.0000000   0.0000000   0.0000000   0.0000000   0.0000000   0.0000000   0.0000000   2.0440000
 NMagM=    0.0000000   0.0000000   0.0000000   0.0000000   0.0000000   0.0000000   0.0000000   0.0000000   0.0000000   0.4037610
 AtZNuc=   6.0000000   6.0000000   6.0000000   6.0000000   6.0000000   6.0000000   6.0000000   6.0000000   8.0000000   7.0000000

  Atom        51          52          53          54          55          56          57          58          59          60
 IAtWgt=          12          12          12          12          12          12          12          12          12          19
 AtmWgt=  12.0000000  12.0000000  12.0000000  12.0000000  12.0000000  12.0000000  12.0000000  12.0000000  12.0000000  18.9984033
 NucSpn=           0           0           0           0           0           0           0           0           0           1
 AtZEff=   0.0000000   0.0000000   0.0000000   0.0000000   0.0000000   0.0000000   0.0000000   0.0000000   0.0000000   0.0000000
 NQMom=    0.0000000   0.0000000   0.0000000   0.0000000   0.0000000   0.0000000   0.0000000   0.0000000   0.0000000   0.0000000
 NMagM=    0.0000000   0.0000000   0.0000000   0.0000000   0.0000000   0.0000000   0.0000000   0.0000000   0.0000000   2.6288670
 AtZNuc=   6.0000000   6.0000000   6.0000000   6.0000000   6.0000000   6.0000000   6.0000000   6.0000000   6.0000000   9.0000000

  Atom        61          62          63          64          65          66          67          68          69          70
 IAtWgt=          19          19          12          19          19          19          35           1           1           1
 AtmWgt=  18.9984033  18.9984033  12.0000000  18.9984033  18.9984033  18.9984033  34.9688527   1.0078250   1.0078250   1.0078250
 NucSpn=           1           1           0           1           1           1           3           1           1           1
 AtZEff=   0.0000000   0.0000000   0.0000000   0.0000000   0.0000000   0.0000000   0.0000000   0.0000000   0.0000000   0.0000000
 NQMom=    0.0000000   0.0000000   0.0000000   0.0000000   0.0000000   0.0000000  -8.1650000   0.0000000   0.0000000   0.0000000
 NMagM=    2.6288670   2.6288670   0.0000000   2.6288670   2.6288670   2.6288670   0.8218740   2.7928460   2.7928460   2.7928460
 AtZNuc=   9.0000000   9.0000000   6.0000000   9.0000000   9.0000000   9.0000000  17.0000000   1.0000000   1.0000000   1.0000000

  Atom        71          72          73          74          75          76          77          78          79          80
 IAtWgt=           1           1           1           1           1           1           1           1           1           1
 AtmWgt=   1.0078250   1.0078250   1.0078250   1.0078250   1.0078250   1.0078250   1.0078250   1.0078250   1.0078250   1.0078250
 NucSpn=           1           1           1           1           1           1           1           1           1           1
 AtZEff=   0.0000000   0.0000000   0.0000000   0.0000000   0.0000000   0.0000000   0.0000000   0.0000000   0.0000000   0.0000000
 NQMom=    0.0000000   0.0000000   0.0000000   0.0000000   0.0000000   0.0000000   0.0000000   0.0000000   0.0000000   0.0000000
 NMagM=    2.7928460   2.7928460   2.7928460   2.7928460   2.7928460   2.7928460   2.7928460   2.7928460   2.7928460   2.7928460
 AtZNuc=   1.0000000   1.0000000   1.0000000   1.0000000   1.0000000   1.0000000   1.0000000   1.0000000   1.0000000   1.0000000

  Atom        81          82          83          84          85          86          87          88          89          90
 IAtWgt=           1           1           1           1           1           1           1           1           1           1
 AtmWgt=   1.0078250   1.0078250   1.0078250   1.0078250   1.0078250   1.0078250   1.0078250   1.0078250   1.0078250   1.0078250
 NucSpn=           1           1           1           1           1           1           1           1           1           1
 AtZEff=   0.0000000   0.0000000   0.0000000   0.0000000   0.0000000   0.0000000   0.0000000   0.0000000   0.0000000   0.0000000
 NQMom=    0.0000000   0.0000000   0.0000000   0.0000000   0.0000000   0.0000000   0.0000000   0.0000000   0.0000000   0.0000000
 NMagM=    2.7928460   2.7928460   2.7928460   2.7928460   2.7928460   2.7928460   2.7928460   2.7928460   2.7928460   2.7928460
 AtZNuc=   1.0000000   1.0000000   1.0000000   1.0000000   1.0000000   1.0000000   1.0000000   1.0000000   1.0000000   1.0000000

  Atom        91          92          93          94          95          96          97          98          99         100
 IAtWgt=           1           1           1           1           1           1           1           1           1           1
 AtmWgt=   1.0078250   1.0078250   1.0078250   1.0078250   1.0078250   1.0078250   1.0078250   1.0078250   1.0078250   1.0078250
 NucSpn=           1           1           1           1           1           1           1           1           1           1
 AtZEff=   0.0000000   0.0000000   0.0000000   0.0000000   0.0000000   0.0000000   0.0000000   0.0000000   0.0000000   0.0000000
 NQMom=    0.0000000   0.0000000   0.0000000   0.0000000   0.0000000   0.0000000   0.0000000   0.0000000   0.0000000   0.0000000
 NMagM=    2.7928460   2.7928460   2.7928460   2.7928460   2.7928460   2.7928460   2.7928460   2.7928460   2.7928460   2.7928460
 AtZNuc=   1.0000000   1.0000000   1.0000000   1.0000000   1.0000000   1.0000000   1.0000000   1.0000000   1.0000000   1.0000000

  Atom       101         102         103         104         105         106         107         108         109         110
 IAtWgt=           1           1           1           1           1           1           1           1           1           1
 AtmWgt=   1.0078250   1.0078250   1.0078250   1.0078250   1.0078250   1.0078250   1.0078250   1.0078250   1.0078250   1.0078250
 NucSpn=           1           1           1           1           1           1           1           1           1           1
 AtZEff=   0.0000000   0.0000000   0.0000000   0.0000000   0.0000000   0.0000000   0.0000000   0.0000000   0.0000000   0.0000000
 NQMom=    0.0000000   0.0000000   0.0000000   0.0000000   0.0000000   0.0000000   0.0000000   0.0000000   0.0000000   0.0000000
 NMagM=    2.7928460   2.7928460   2.7928460   2.7928460   2.7928460   2.7928460   2.7928460   2.7928460   2.7928460   2.7928460
 AtZNuc=   1.0000000   1.0000000   1.0000000   1.0000000   1.0000000   1.0000000   1.0000000   1.0000000   1.0000000   1.0000000

  Atom       111         112         113         114         115         116         117         118         119         120
 IAtWgt=           1           1           1           1           1          12           1           1           1          16
 AtmWgt=   1.0078250   1.0078250   1.0078250   1.0078250   1.0078250  12.0000000   1.0078250   1.0078250   1.0078250  15.9949146
 NucSpn=           1           1           1           1           1           0           1           1           1           0
 AtZEff=   0.0000000   0.0000000   0.0000000   0.0000000   0.0000000   0.0000000   0.0000000   0.0000000   0.0000000   0.0000000
 NQMom=    0.0000000   0.0000000   0.0000000   0.0000000   0.0000000   0.0000000   0.0000000   0.0000000   0.0000000   0.0000000
 NMagM=    2.7928460   2.7928460   2.7928460   2.7928460   2.7928460   0.0000000   2.7928460   2.7928460   2.7928460   0.0000000
 AtZNuc=   1.0000000   1.0000000   1.0000000   1.0000000   1.0000000   6.0000000   1.0000000   1.0000000   1.0000000   8.0000000

  Atom       121         122         123         124         125         126         127         128         129         130
 IAtWgt=           1          12          12          12          12          12           1           1           1           1
 AtmWgt=   1.0078250  12.0000000  12.0000000  12.0000000  12.0000000  12.0000000   1.0078250   1.0078250   1.0078250   1.0078250
 NucSpn=           1           0           0           0           0           0           1           1           1           1
 AtZEff=   0.0000000   0.0000000   0.0000000   0.0000000   0.0000000   0.0000000   0.0000000   0.0000000   0.0000000   0.0000000
 NQMom=    0.0000000   0.0000000   0.0000000   0.0000000   0.0000000   0.0000000   0.0000000   0.0000000   0.0000000   0.0000000
 NMagM=    2.7928460   0.0000000   0.0000000   0.0000000   0.0000000   0.0000000   2.7928460   2.7928460   2.7928460   2.7928460
 AtZNuc=   1.0000000   6.0000000   6.0000000   6.0000000   6.0000000   6.0000000   1.0000000   1.0000000   1.0000000   1.0000000

  Atom       131         132         133         134         135         136         137         138         139         140
 IAtWgt=           1          16          16          16          16          12           1           1          16          12
 AtmWgt=   1.0078250  15.9949146  15.9949146  15.9949146  15.9949146  12.0000000   1.0078250   1.0078250  15.9949146  12.0000000
 NucSpn=           1           0           0           0           0           0           1           1           0           0
 AtZEff=   0.0000000   0.0000000   0.0000000   0.0000000   0.0000000   0.0000000   0.0000000   0.0000000   0.0000000   0.0000000
 NQMom=    0.0000000   0.0000000   0.0000000   0.0000000   0.0000000   0.0000000   0.0000000   0.0000000   0.0000000   0.0000000
 NMagM=    2.7928460   0.0000000   0.0000000   0.0000000   0.0000000   0.0000000   2.7928460   2.7928460   0.0000000   0.0000000
 AtZNuc=   1.0000000   8.0000000   8.0000000   8.0000000   8.0000000   6.0000000   1.0000000   1.0000000   8.0000000   6.0000000

  Atom       141         142         143         144         145         146         147         148         149         150
 IAtWgt=           1           1           1          12           1           1           1          12           1           1
 AtmWgt=   1.0078250   1.0078250   1.0078250  12.0000000   1.0078250   1.0078250   1.0078250  12.0000000   1.0078250   1.0078250
 NucSpn=           1           1           1           0           1           1           1           0           1           1
 AtZEff=   0.0000000   0.0000000   0.0000000   0.0000000   0.0000000   0.0000000   0.0000000   0.0000000   0.0000000   0.0000000
 NQMom=    0.0000000   0.0000000   0.0000000   0.0000000   0.0000000   0.0000000   0.0000000   0.0000000   0.0000000   0.0000000
 NMagM=    2.7928460   2.7928460   2.7928460   0.0000000   2.7928460   2.7928460   2.7928460   0.0000000   2.7928460   2.7928460
 AtZNuc=   1.0000000   1.0000000   1.0000000   6.0000000   1.0000000   1.0000000   1.0000000   6.0000000   1.0000000   1.0000000

  Atom       151         152         153         154         155         156         157
 IAtWgt=           1          12           1           1           1          32          32
 AtmWgt=   1.0078250  12.0000000   1.0078250   1.0078250   1.0078250  31.9720718  31.9720718
 NucSpn=           1           0           1           1           1           0           0
 AtZEff=   0.0000000   0.0000000   0.0000000   0.0000000   0.0000000   0.0000000   0.0000000
 NQMom=    0.0000000   0.0000000   0.0000000   0.0000000   0.0000000   0.0000000   0.0000000
 NMagM=    2.7928460   0.0000000   2.7928460   2.7928460   2.7928460   0.0000000   0.0000000
 AtZNuc=   1.0000000   6.0000000   1.0000000   1.0000000   1.0000000  16.0000000  16.0000000
 Leave Link  101 at Tue Dec 17 09:05:54 2019, MaxMem=  4294967296 cpu:               7.0 elap:               0.7
 (Enter /home/cwagen/sw/g16/g16/l103.exe)

 GradGradGradGradGradGradGradGradGradGradGradGradGradGradGradGradGradGrad
 Berny optimization.
 Initialization pass.
                           ----------------------------
                           !    Initial Parameters    !
                           ! (Angstroms and Degrees)  !
 --------------------------                            --------------------------
 ! Name  Definition              Value          Derivative Info.                !
 --------------------------------------------------------------------------------
 ! R1    R(1,2)                  1.3963         calculate D2E/DX2 analytically  !
 ! R2    R(1,6)                  1.3861         calculate D2E/DX2 analytically  !
 ! R3    R(1,68)                 1.085          calculate D2E/DX2 analytically  !
 ! R4    R(2,3)                  1.3854         calculate D2E/DX2 analytically  !
 ! R5    R(2,8)                  1.4939         calculate D2E/DX2 analytically  !
 ! R6    R(3,4)                  1.4056         calculate D2E/DX2 analytically  !
 ! R7    R(3,69)                 1.0862         calculate D2E/DX2 analytically  !
 ! R8    R(4,5)                  1.3967         calculate D2E/DX2 analytically  !
 ! R9    R(4,7)                  1.3997         calculate D2E/DX2 analytically  !
 ! R10   R(5,6)                  1.396          calculate D2E/DX2 analytically  !
 ! R11   R(5,70)                 1.0822         calculate D2E/DX2 analytically  !
 ! R12   R(6,63)                 1.5004         calculate D2E/DX2 analytically  !
 ! R13   R(7,11)                 1.3602         calculate D2E/DX2 analytically  !
 ! R14   R(7,71)                 1.0233         calculate D2E/DX2 analytically  !
 ! R15   R(8,9)                  1.2108         calculate D2E/DX2 analytically  !
 ! R16   R(8,10)                 1.3388         calculate D2E/DX2 analytically  !
 ! R17   R(10,36)                1.4357         calculate D2E/DX2 analytically  !
 ! R18   R(11,12)                1.3562         calculate D2E/DX2 analytically  !
 ! R19   R(11,157)               1.6847         calculate D2E/DX2 analytically  !
 ! R20   R(12,13)                1.4461         calculate D2E/DX2 analytically  !
 ! R21   R(12,72)                1.0199         calculate D2E/DX2 analytically  !
 ! R22   R(13,14)                1.5692         calculate D2E/DX2 analytically  !
 ! R23   R(13,38)                1.5415         calculate D2E/DX2 analytically  !
 ! R24   R(13,73)                1.0948         calculate D2E/DX2 analytically  !
 ! R25   R(14,15)                1.5347         calculate D2E/DX2 analytically  !
 ! R26   R(14,16)                1.5374         calculate D2E/DX2 analytically  !
 ! R27   R(14,17)                1.5444         calculate D2E/DX2 analytically  !
 ! R28   R(15,74)                1.094          calculate D2E/DX2 analytically  !
 ! R29   R(15,75)                1.0956         calculate D2E/DX2 analytically  !
 ! R30   R(15,76)                1.0959         calculate D2E/DX2 analytically  !
 ! R31   R(16,77)                1.0951         calculate D2E/DX2 analytically  !
 ! R32   R(16,78)                1.0947         calculate D2E/DX2 analytically  !
 ! R33   R(16,79)                1.095          calculate D2E/DX2 analytically  !
 ! R34   R(17,18)                1.5306         calculate D2E/DX2 analytically  !
 ! R35   R(17,80)                1.0976         calculate D2E/DX2 analytically  !
 ! R36   R(17,81)                1.0952         calculate D2E/DX2 analytically  !
 ! R37   R(18,19)                1.432          calculate D2E/DX2 analytically  !
 ! R38   R(18,82)                1.0942         calculate D2E/DX2 analytically  !
 ! R39   R(18,83)                1.0943         calculate D2E/DX2 analytically  !
 ! R40   R(19,20)                1.3446         calculate D2E/DX2 analytically  !
 ! R41   R(20,21)                1.2084         calculate D2E/DX2 analytically  !
 ! R42   R(20,22)                1.4923         calculate D2E/DX2 analytically  !
 ! R43   R(22,23)                1.3854         calculate D2E/DX2 analytically  !
 ! R44   R(22,27)                1.3953         calculate D2E/DX2 analytically  !
 ! R45   R(23,24)                1.4017         calculate D2E/DX2 analytically  !
 ! R46   R(23,84)                1.0843         calculate D2E/DX2 analytically  !
 ! R47   R(24,25)                1.3971         calculate D2E/DX2 analytically  !
 ! R48   R(24,28)                1.3994         calculate D2E/DX2 analytically  !
 ! R49   R(25,26)                1.3981         calculate D2E/DX2 analytically  !
 ! R50   R(25,85)                1.0815         calculate D2E/DX2 analytically  !
 ! R51   R(26,27)                1.3883         calculate D2E/DX2 analytically  !
 ! R52   R(26,59)                1.5031         calculate D2E/DX2 analytically  !
 ! R53   R(27,86)                1.0847         calculate D2E/DX2 analytically  !
 ! R54   R(28,29)                1.3583         calculate D2E/DX2 analytically  !
 ! R55   R(28,87)                1.0247         calculate D2E/DX2 analytically  !
 ! R56   R(29,30)                1.3536         calculate D2E/DX2 analytically  !
 ! R57   R(29,156)               1.687          calculate D2E/DX2 analytically  !
 ! R58   R(30,31)                1.4473         calculate D2E/DX2 analytically  !
 ! R59   R(30,88)                1.0224         calculate D2E/DX2 analytically  !
 ! R60   R(31,32)                1.5991         calculate D2E/DX2 analytically  !
 ! R61   R(31,37)                1.5376         calculate D2E/DX2 analytically  !
 ! R62   R(31,89)                1.0925         calculate D2E/DX2 analytically  !
 ! R63   R(32,33)                1.5405         calculate D2E/DX2 analytically  !
 ! R64   R(32,34)                1.5326         calculate D2E/DX2 analytically  !
 ! R65   R(32,35)                1.5562         calculate D2E/DX2 analytically  !
 ! R66   R(33,90)                1.0953         calculate D2E/DX2 analytically  !
 ! R67   R(33,91)                1.0933         calculate D2E/DX2 analytically  !
 ! R68   R(33,92)                1.0953         calculate D2E/DX2 analytically  !
 ! R69   R(34,93)                1.0962         calculate D2E/DX2 analytically  !
 ! R70   R(34,94)                1.0944         calculate D2E/DX2 analytically  !
 ! R71   R(34,95)                1.0936         calculate D2E/DX2 analytically  !
 ! R72   R(35,36)                1.5249         calculate D2E/DX2 analytically  !
 ! R73   R(35,96)                1.0952         calculate D2E/DX2 analytically  !
 ! R74   R(35,97)                1.0982         calculate D2E/DX2 analytically  !
 ! R75   R(36,98)                1.0928         calculate D2E/DX2 analytically  !
 ! R76   R(36,99)                1.0904         calculate D2E/DX2 analytically  !
 ! R77   R(37,49)                1.2284         calculate D2E/DX2 analytically  !
 ! R78   R(37,50)                1.3579         calculate D2E/DX2 analytically  !
 ! R79   R(38,39)                1.2346         calculate D2E/DX2 analytically  !
 ! R80   R(38,40)                1.3536         calculate D2E/DX2 analytically  !
 ! R81   R(39,121)               1.9342         calculate D2E/DX2 analytically  !
 ! R82   R(40,41)                1.4849         calculate D2E/DX2 analytically  !
 ! R83   R(40,44)                1.4215         calculate D2E/DX2 analytically  !
 ! R84   R(41,42)                1.5377         calculate D2E/DX2 analytically  !
 ! R85   R(41,100)               1.0887         calculate D2E/DX2 analytically  !
 ! R86   R(41,101)               1.0945         calculate D2E/DX2 analytically  !
 ! R87   R(42,43)                1.5065         calculate D2E/DX2 analytically  !
 ! R88   R(42,102)               1.0925         calculate D2E/DX2 analytically  !
 ! R89   R(42,103)               1.0956         calculate D2E/DX2 analytically  !
 ! R90   R(43,44)                1.3974         calculate D2E/DX2 analytically  !
 ! R91   R(43,45)                1.385          calculate D2E/DX2 analytically  !
 ! R92   R(44,48)                1.3927         calculate D2E/DX2 analytically  !
 ! R93   R(45,46)                1.396          calculate D2E/DX2 analytically  !
 ! R94   R(45,104)               1.0863         calculate D2E/DX2 analytically  !
 ! R95   R(46,47)                1.3917         calculate D2E/DX2 analytically  !
 ! R96   R(46,105)               1.0851         calculate D2E/DX2 analytically  !
 ! R97   R(47,48)                1.3958         calculate D2E/DX2 analytically  !
 ! R98   R(47,106)               1.0857         calculate D2E/DX2 analytically  !
 ! R99   R(48,107)               1.0785         calculate D2E/DX2 analytically  !
 ! R100  R(50,51)                1.4777         calculate D2E/DX2 analytically  !
 ! R101  R(50,54)                1.4202         calculate D2E/DX2 analytically  !
 ! R102  R(51,52)                1.5381         calculate D2E/DX2 analytically  !
 ! R103  R(51,108)               1.0958         calculate D2E/DX2 analytically  !
 ! R104  R(51,109)               1.0903         calculate D2E/DX2 analytically  !
 ! R105  R(52,53)                1.5075         calculate D2E/DX2 analytically  !
 ! R106  R(52,110)               1.0961         calculate D2E/DX2 analytically  !
 ! R107  R(52,111)               1.0923         calculate D2E/DX2 analytically  !
 ! R108  R(53,54)                1.3956         calculate D2E/DX2 analytically  !
 ! R109  R(53,55)                1.3873         calculate D2E/DX2 analytically  !
 ! R110  R(54,58)                1.3911         calculate D2E/DX2 analytically  !
 ! R111  R(55,56)                1.3958         calculate D2E/DX2 analytically  !
 ! R112  R(55,112)               1.0864         calculate D2E/DX2 analytically  !
 ! R113  R(56,57)                1.3949         calculate D2E/DX2 analytically  !
 ! R114  R(56,113)               1.0853         calculate D2E/DX2 analytically  !
 ! R115  R(57,58)                1.3943         calculate D2E/DX2 analytically  !
 ! R116  R(57,114)               1.0878         calculate D2E/DX2 analytically  !
 ! R117  R(58,115)               1.0794         calculate D2E/DX2 analytically  !
 ! R118  R(59,60)                1.3399         calculate D2E/DX2 analytically  !
 ! R119  R(59,61)                1.3443         calculate D2E/DX2 analytically  !
 ! R120  R(59,62)                1.3418         calculate D2E/DX2 analytically  !
 ! R121  R(63,64)                1.3541         calculate D2E/DX2 analytically  !
 ! R122  R(63,65)                1.3384         calculate D2E/DX2 analytically  !
 ! R123  R(63,66)                1.3378         calculate D2E/DX2 analytically  !
 ! R124  R(67,71)                2.1468         calculate D2E/DX2 analytically  !
 ! R125  R(67,87)                2.1292         calculate D2E/DX2 analytically  !
 ! R126  R(80,130)               1.9699         calculate D2E/DX2 analytically  !
 ! R127  R(116,117)              1.0919         calculate D2E/DX2 analytically  !
 ! R128  R(116,118)              1.0942         calculate D2E/DX2 analytically  !
 ! R129  R(116,119)              1.0949         calculate D2E/DX2 analytically  !
 ! R130  R(116,120)              1.4255         calculate D2E/DX2 analytically  !
 ! R131  R(120,121)              0.9789         calculate D2E/DX2 analytically  !
 ! R132  R(120,126)              2.0731         calculate D2E/DX2 analytically  !
 ! R133  R(122,123)              1.5231         calculate D2E/DX2 analytically  !
 ! R134  R(122,126)              1.5193         calculate D2E/DX2 analytically  !
 ! R135  R(122,128)              1.0993         calculate D2E/DX2 analytically  !
 ! R136  R(122,133)              1.3987         calculate D2E/DX2 analytically  !
 ! R137  R(123,124)              1.5199         calculate D2E/DX2 analytically  !
 ! R138  R(123,127)              1.0994         calculate D2E/DX2 analytically  !
 ! R139  R(123,134)              1.4032         calculate D2E/DX2 analytically  !
 ! R140  R(124,125)              1.5286         calculate D2E/DX2 analytically  !
 ! R141  R(124,131)              1.0995         calculate D2E/DX2 analytically  !
 ! R142  R(124,135)              1.4021         calculate D2E/DX2 analytically  !
 ! R143  R(125,129)              1.0962         calculate D2E/DX2 analytically  !
 ! R144  R(125,132)              1.47           calculate D2E/DX2 analytically  !
 ! R145  R(125,136)              1.5104         calculate D2E/DX2 analytically  !
 ! R146  R(126,130)              1.0875         calculate D2E/DX2 analytically  !
 ! R147  R(126,132)              1.272          calculate D2E/DX2 analytically  !
 ! R148  R(133,140)              1.4149         calculate D2E/DX2 analytically  !
 ! R149  R(134,144)              1.4161         calculate D2E/DX2 analytically  !
 ! R150  R(135,148)              1.417          calculate D2E/DX2 analytically  !
 ! R151  R(136,137)              1.0984         calculate D2E/DX2 analytically  !
 ! R152  R(136,138)              1.1018         calculate D2E/DX2 analytically  !
 ! R153  R(136,139)              1.4048         calculate D2E/DX2 analytically  !
 ! R154  R(139,152)              1.4112         calculate D2E/DX2 analytically  !
 ! R155  R(140,141)              1.0905         calculate D2E/DX2 analytically  !
 ! R156  R(140,142)              1.0998         calculate D2E/DX2 analytically  !
 ! R157  R(140,143)              1.0976         calculate D2E/DX2 analytically  !
 ! R158  R(144,145)              1.099          calculate D2E/DX2 analytically  !
 ! R159  R(144,146)              1.0963         calculate D2E/DX2 analytically  !
 ! R160  R(144,147)              1.0913         calculate D2E/DX2 analytically  !
 ! R161  R(148,149)              1.0979         calculate D2E/DX2 analytically  !
 ! R162  R(148,150)              1.092          calculate D2E/DX2 analytically  !
 ! R163  R(148,151)              1.0969         calculate D2E/DX2 analytically  !
 ! R164  R(152,153)              1.0908         calculate D2E/DX2 analytically  !
 ! R165  R(152,154)              1.0981         calculate D2E/DX2 analytically  !
 ! R166  R(152,155)              1.0997         calculate D2E/DX2 analytically  !
 ! A1    A(2,1,6)              118.3057         calculate D2E/DX2 analytically  !
 ! A2    A(2,1,68)             119.7898         calculate D2E/DX2 analytically  !
 ! A3    A(6,1,68)             121.897          calculate D2E/DX2 analytically  !
 ! A4    A(1,2,3)              120.5764         calculate D2E/DX2 analytically  !
 ! A5    A(1,2,8)              117.794          calculate D2E/DX2 analytically  !
 ! A6    A(3,2,8)              121.5897         calculate D2E/DX2 analytically  !
 ! A7    A(2,3,4)              120.6561         calculate D2E/DX2 analytically  !
 ! A8    A(2,3,69)             119.4163         calculate D2E/DX2 analytically  !
 ! A9    A(4,3,69)             119.8512         calculate D2E/DX2 analytically  !
 ! A10   A(3,4,5)              119.2019         calculate D2E/DX2 analytically  !
 ! A11   A(3,4,7)              114.5093         calculate D2E/DX2 analytically  !
 ! A12   A(5,4,7)              126.2103         calculate D2E/DX2 analytically  !
 ! A13   A(4,5,6)              118.9305         calculate D2E/DX2 analytically  !
 ! A14   A(4,5,70)             120.6101         calculate D2E/DX2 analytically  !
 ! A15   A(6,5,70)             120.4281         calculate D2E/DX2 analytically  !
 ! A16   A(1,6,5)              122.2619         calculate D2E/DX2 analytically  !
 ! A17   A(1,6,63)             119.245          calculate D2E/DX2 analytically  !
 ! A18   A(5,6,63)             118.1833         calculate D2E/DX2 analytically  !
 ! A19   A(4,7,11)             133.0412         calculate D2E/DX2 analytically  !
 ! A20   A(4,7,71)             110.891          calculate D2E/DX2 analytically  !
 ! A21   A(11,7,71)            113.7221         calculate D2E/DX2 analytically  !
 ! A22   A(2,8,9)              123.0139         calculate D2E/DX2 analytically  !
 ! A23   A(2,8,10)             113.196          calculate D2E/DX2 analytically  !
 ! A24   A(9,8,10)             123.7619         calculate D2E/DX2 analytically  !
 ! A25   A(8,10,36)            115.3814         calculate D2E/DX2 analytically  !
 ! A26   A(7,11,12)            112.0306         calculate D2E/DX2 analytically  !
 ! A27   A(7,11,157)           125.9177         calculate D2E/DX2 analytically  !
 ! A28   A(12,11,157)          122.0139         calculate D2E/DX2 analytically  !
 ! A29   A(11,12,13)           123.3014         calculate D2E/DX2 analytically  !
 ! A30   A(11,12,72)           117.7008         calculate D2E/DX2 analytically  !
 ! A31   A(13,12,72)           118.8837         calculate D2E/DX2 analytically  !
 ! A32   A(12,13,14)           111.1716         calculate D2E/DX2 analytically  !
 ! A33   A(12,13,38)           108.6438         calculate D2E/DX2 analytically  !
 ! A34   A(12,13,73)           107.5187         calculate D2E/DX2 analytically  !
 ! A35   A(14,13,38)           112.1802         calculate D2E/DX2 analytically  !
 ! A36   A(14,13,73)           107.3596         calculate D2E/DX2 analytically  !
 ! A37   A(38,13,73)           109.8561         calculate D2E/DX2 analytically  !
 ! A38   A(13,14,15)           107.7917         calculate D2E/DX2 analytically  !
 ! A39   A(13,14,16)           108.9912         calculate D2E/DX2 analytically  !
 ! A40   A(13,14,17)           111.6017         calculate D2E/DX2 analytically  !
 ! A41   A(15,14,16)           108.7934         calculate D2E/DX2 analytically  !
 ! A42   A(15,14,17)           109.1961         calculate D2E/DX2 analytically  !
 ! A43   A(16,14,17)           110.3905         calculate D2E/DX2 analytically  !
 ! A44   A(14,15,74)           110.6045         calculate D2E/DX2 analytically  !
 ! A45   A(14,15,75)           110.7993         calculate D2E/DX2 analytically  !
 ! A46   A(14,15,76)           111.6684         calculate D2E/DX2 analytically  !
 ! A47   A(74,15,75)           107.081          calculate D2E/DX2 analytically  !
 ! A48   A(74,15,76)           107.65           calculate D2E/DX2 analytically  !
 ! A49   A(75,15,76)           108.8732         calculate D2E/DX2 analytically  !
 ! A50   A(14,16,77)           110.7195         calculate D2E/DX2 analytically  !
 ! A51   A(14,16,78)           109.8561         calculate D2E/DX2 analytically  !
 ! A52   A(14,16,79)           112.7086         calculate D2E/DX2 analytically  !
 ! A53   A(77,16,78)           107.7859         calculate D2E/DX2 analytically  !
 ! A54   A(77,16,79)           108.6375         calculate D2E/DX2 analytically  !
 ! A55   A(78,16,79)           106.946          calculate D2E/DX2 analytically  !
 ! A56   A(14,17,18)           115.8909         calculate D2E/DX2 analytically  !
 ! A57   A(14,17,80)           109.8262         calculate D2E/DX2 analytically  !
 ! A58   A(14,17,81)           109.069          calculate D2E/DX2 analytically  !
 ! A59   A(18,17,80)           105.8009         calculate D2E/DX2 analytically  !
 ! A60   A(18,17,81)           108.8815         calculate D2E/DX2 analytically  !
 ! A61   A(80,17,81)           106.9937         calculate D2E/DX2 analytically  !
 ! A62   A(17,18,19)           106.9351         calculate D2E/DX2 analytically  !
 ! A63   A(17,18,82)           111.247          calculate D2E/DX2 analytically  !
 ! A64   A(17,18,83)           113.7953         calculate D2E/DX2 analytically  !
 ! A65   A(19,18,82)           108.1092         calculate D2E/DX2 analytically  !
 ! A66   A(19,18,83)           109.299          calculate D2E/DX2 analytically  !
 ! A67   A(82,18,83)           107.3231         calculate D2E/DX2 analytically  !
 ! A68   A(18,19,20)           117.0983         calculate D2E/DX2 analytically  !
 ! A69   A(19,20,21)           123.545          calculate D2E/DX2 analytically  !
 ! A70   A(19,20,22)           111.2897         calculate D2E/DX2 analytically  !
 ! A71   A(21,20,22)           125.0937         calculate D2E/DX2 analytically  !
 ! A72   A(20,22,23)           119.3507         calculate D2E/DX2 analytically  !
 ! A73   A(20,22,27)           120.0897         calculate D2E/DX2 analytically  !
 ! A74   A(23,22,27)           120.4426         calculate D2E/DX2 analytically  !
 ! A75   A(22,23,24)           121.3135         calculate D2E/DX2 analytically  !
 ! A76   A(22,23,84)           119.6715         calculate D2E/DX2 analytically  !
 ! A77   A(24,23,84)           119.0034         calculate D2E/DX2 analytically  !
 ! A78   A(23,24,25)           118.8694         calculate D2E/DX2 analytically  !
 ! A79   A(23,24,28)           113.2875         calculate D2E/DX2 analytically  !
 ! A80   A(25,24,28)           127.829          calculate D2E/DX2 analytically  !
 ! A81   A(24,25,26)           118.7967         calculate D2E/DX2 analytically  !
 ! A82   A(24,25,85)           120.7553         calculate D2E/DX2 analytically  !
 ! A83   A(26,25,85)           120.4477         calculate D2E/DX2 analytically  !
 ! A84   A(25,26,27)           122.6617         calculate D2E/DX2 analytically  !
 ! A85   A(25,26,59)           118.5027         calculate D2E/DX2 analytically  !
 ! A86   A(27,26,59)           118.7532         calculate D2E/DX2 analytically  !
 ! A87   A(22,27,26)           117.9129         calculate D2E/DX2 analytically  !
 ! A88   A(22,27,86)           120.374          calculate D2E/DX2 analytically  !
 ! A89   A(26,27,86)           121.7118         calculate D2E/DX2 analytically  !
 ! A90   A(24,28,29)           134.3311         calculate D2E/DX2 analytically  !
 ! A91   A(24,28,87)           111.1514         calculate D2E/DX2 analytically  !
 ! A92   A(29,28,87)           114.504          calculate D2E/DX2 analytically  !
 ! A93   A(28,29,30)           111.3884         calculate D2E/DX2 analytically  !
 ! A94   A(28,29,156)          125.2085         calculate D2E/DX2 analytically  !
 ! A95   A(30,29,156)          123.3718         calculate D2E/DX2 analytically  !
 ! A96   A(29,30,31)           125.7999         calculate D2E/DX2 analytically  !
 ! A97   A(29,30,88)           119.4767         calculate D2E/DX2 analytically  !
 ! A98   A(31,30,88)           114.6839         calculate D2E/DX2 analytically  !
 ! A99   A(30,31,32)           114.2768         calculate D2E/DX2 analytically  !
 ! A100  A(30,31,37)           104.8861         calculate D2E/DX2 analytically  !
 ! A101  A(30,31,89)           105.8862         calculate D2E/DX2 analytically  !
 ! A102  A(32,31,37)           114.439          calculate D2E/DX2 analytically  !
 ! A103  A(32,31,89)           107.1596         calculate D2E/DX2 analytically  !
 ! A104  A(37,31,89)           109.8598         calculate D2E/DX2 analytically  !
 ! A105  A(31,32,33)           107.1606         calculate D2E/DX2 analytically  !
 ! A106  A(31,32,34)           109.8493         calculate D2E/DX2 analytically  !
 ! A107  A(31,32,35)           114.9342         calculate D2E/DX2 analytically  !
 ! A108  A(33,32,34)           107.4977         calculate D2E/DX2 analytically  !
 ! A109  A(33,32,35)           107.0363         calculate D2E/DX2 analytically  !
 ! A110  A(34,32,35)           110.0337         calculate D2E/DX2 analytically  !
 ! A111  A(32,33,90)           109.9107         calculate D2E/DX2 analytically  !
 ! A112  A(32,33,91)           110.4465         calculate D2E/DX2 analytically  !
 ! A113  A(32,33,92)           111.8667         calculate D2E/DX2 analytically  !
 ! A114  A(90,33,91)           108.5919         calculate D2E/DX2 analytically  !
 ! A115  A(90,33,92)           107.4742         calculate D2E/DX2 analytically  !
 ! A116  A(91,33,92)           108.4456         calculate D2E/DX2 analytically  !
 ! A117  A(32,34,93)           109.2664         calculate D2E/DX2 analytically  !
 ! A118  A(32,34,94)           112.2498         calculate D2E/DX2 analytically  !
 ! A119  A(32,34,95)           110.5412         calculate D2E/DX2 analytically  !
 ! A120  A(93,34,94)           108.392          calculate D2E/DX2 analytically  !
 ! A121  A(93,34,95)           107.8298         calculate D2E/DX2 analytically  !
 ! A122  A(94,34,95)           108.4393         calculate D2E/DX2 analytically  !
 ! A123  A(32,35,36)           119.4652         calculate D2E/DX2 analytically  !
 ! A124  A(32,35,96)           112.0099         calculate D2E/DX2 analytically  !
 ! A125  A(32,35,97)           106.345          calculate D2E/DX2 analytically  !
 ! A126  A(36,35,96)           108.4016         calculate D2E/DX2 analytically  !
 ! A127  A(36,35,97)           103.9701         calculate D2E/DX2 analytically  !
 ! A128  A(96,35,97)           105.428          calculate D2E/DX2 analytically  !
 ! A129  A(10,36,35)           115.1644         calculate D2E/DX2 analytically  !
 ! A130  A(10,36,98)           107.9964         calculate D2E/DX2 analytically  !
 ! A131  A(10,36,99)           104.4613         calculate D2E/DX2 analytically  !
 ! A132  A(35,36,98)           108.4334         calculate D2E/DX2 analytically  !
 ! A133  A(35,36,99)           111.6408         calculate D2E/DX2 analytically  !
 ! A134  A(98,36,99)           108.9328         calculate D2E/DX2 analytically  !
 ! A135  A(31,37,49)           119.4117         calculate D2E/DX2 analytically  !
 ! A136  A(31,37,50)           117.9515         calculate D2E/DX2 analytically  !
 ! A137  A(49,37,50)           122.6364         calculate D2E/DX2 analytically  !
 ! A138  A(13,38,39)           118.8133         calculate D2E/DX2 analytically  !
 ! A139  A(13,38,40)           118.4732         calculate D2E/DX2 analytically  !
 ! A140  A(39,38,40)           122.5715         calculate D2E/DX2 analytically  !
 ! A141  A(38,39,121)          156.0454         calculate D2E/DX2 analytically  !
 ! A142  A(38,40,41)           124.3607         calculate D2E/DX2 analytically  !
 ! A143  A(38,40,44)           124.5898         calculate D2E/DX2 analytically  !
 ! A144  A(41,40,44)           109.1343         calculate D2E/DX2 analytically  !
 ! A145  A(40,41,42)           104.8424         calculate D2E/DX2 analytically  !
 ! A146  A(40,41,100)          110.847          calculate D2E/DX2 analytically  !
 ! A147  A(40,41,101)          107.9156         calculate D2E/DX2 analytically  !
 ! A148  A(42,41,100)          111.8357         calculate D2E/DX2 analytically  !
 ! A149  A(42,41,101)          112.1191         calculate D2E/DX2 analytically  !
 ! A150  A(100,41,101)         109.1603         calculate D2E/DX2 analytically  !
 ! A151  A(41,42,43)           103.3295         calculate D2E/DX2 analytically  !
 ! A152  A(41,42,102)          111.4309         calculate D2E/DX2 analytically  !
 ! A153  A(41,42,103)          111.1511         calculate D2E/DX2 analytically  !
 ! A154  A(43,42,102)          112.793          calculate D2E/DX2 analytically  !
 ! A155  A(43,42,103)          110.5274         calculate D2E/DX2 analytically  !
 ! A156  A(102,42,103)         107.6407         calculate D2E/DX2 analytically  !
 ! A157  A(42,43,44)           110.2322         calculate D2E/DX2 analytically  !
 ! A158  A(42,43,45)           129.2499         calculate D2E/DX2 analytically  !
 ! A159  A(44,43,45)           120.4908         calculate D2E/DX2 analytically  !
 ! A160  A(40,44,43)           109.5527         calculate D2E/DX2 analytically  !
 ! A161  A(40,44,48)           129.4913         calculate D2E/DX2 analytically  !
 ! A162  A(43,44,48)           120.9532         calculate D2E/DX2 analytically  !
 ! A163  A(43,45,46)           119.2116         calculate D2E/DX2 analytically  !
 ! A164  A(43,45,104)          120.1482         calculate D2E/DX2 analytically  !
 ! A165  A(46,45,104)          120.6402         calculate D2E/DX2 analytically  !
 ! A166  A(45,46,47)           119.9224         calculate D2E/DX2 analytically  !
 ! A167  A(45,46,105)          120.0122         calculate D2E/DX2 analytically  !
 ! A168  A(47,46,105)          120.0654         calculate D2E/DX2 analytically  !
 ! A169  A(46,47,48)           121.4566         calculate D2E/DX2 analytically  !
 ! A170  A(46,47,106)          119.705          calculate D2E/DX2 analytically  !
 ! A171  A(48,47,106)          118.8376         calculate D2E/DX2 analytically  !
 ! A172  A(44,48,47)           117.9614         calculate D2E/DX2 analytically  !
 ! A173  A(44,48,107)          121.0812         calculate D2E/DX2 analytically  !
 ! A174  A(47,48,107)          120.9562         calculate D2E/DX2 analytically  !
 ! A175  A(37,50,51)           126.1616         calculate D2E/DX2 analytically  !
 ! A176  A(37,50,54)           124.9279         calculate D2E/DX2 analytically  !
 ! A177  A(51,50,54)           108.8062         calculate D2E/DX2 analytically  !
 ! A178  A(50,51,52)           104.514          calculate D2E/DX2 analytically  !
 ! A179  A(50,51,108)          109.179          calculate D2E/DX2 analytically  !
 ! A180  A(50,51,109)          111.0954         calculate D2E/DX2 analytically  !
 ! A181  A(52,51,108)          110.4516         calculate D2E/DX2 analytically  !
 ! A182  A(52,51,109)          112.6536         calculate D2E/DX2 analytically  !
 ! A183  A(108,51,109)         108.86           calculate D2E/DX2 analytically  !
 ! A184  A(51,52,53)           102.7615         calculate D2E/DX2 analytically  !
 ! A185  A(51,52,110)          110.9366         calculate D2E/DX2 analytically  !
 ! A186  A(51,52,111)          111.5069         calculate D2E/DX2 analytically  !
 ! A187  A(53,52,110)          110.3622         calculate D2E/DX2 analytically  !
 ! A188  A(53,52,111)          113.401          calculate D2E/DX2 analytically  !
 ! A189  A(110,52,111)         107.867          calculate D2E/DX2 analytically  !
 ! A190  A(52,53,54)           109.8786         calculate D2E/DX2 analytically  !
 ! A191  A(52,53,55)           129.6286         calculate D2E/DX2 analytically  !
 ! A192  A(54,53,55)           120.3972         calculate D2E/DX2 analytically  !
 ! A193  A(50,54,53)           109.5249         calculate D2E/DX2 analytically  !
 ! A194  A(50,54,58)           129.3048         calculate D2E/DX2 analytically  !
 ! A195  A(53,54,58)           121.1679         calculate D2E/DX2 analytically  !
 ! A196  A(53,55,56)           119.1235         calculate D2E/DX2 analytically  !
 ! A197  A(53,55,112)          120.1853         calculate D2E/DX2 analytically  !
 ! A198  A(56,55,112)          120.6912         calculate D2E/DX2 analytically  !
 ! A199  A(55,56,57)           119.9857         calculate D2E/DX2 analytically  !
 ! A200  A(55,56,113)          119.9671         calculate D2E/DX2 analytically  !
 ! A201  A(57,56,113)          120.0471         calculate D2E/DX2 analytically  !
 ! A202  A(56,57,58)           121.3278         calculate D2E/DX2 analytically  !
 ! A203  A(56,57,114)          119.999          calculate D2E/DX2 analytically  !
 ! A204  A(58,57,114)          118.673          calculate D2E/DX2 analytically  !
 ! A205  A(54,58,57)           117.9968         calculate D2E/DX2 analytically  !
 ! A206  A(54,58,115)          120.6173         calculate D2E/DX2 analytically  !
 ! A207  A(57,58,115)          121.3779         calculate D2E/DX2 analytically  !
 ! A208  A(26,59,60)           112.209          calculate D2E/DX2 analytically  !
 ! A209  A(26,59,61)           111.5231         calculate D2E/DX2 analytically  !
 ! A210  A(26,59,62)           111.6828         calculate D2E/DX2 analytically  !
 ! A211  A(60,59,61)           106.8331         calculate D2E/DX2 analytically  !
 ! A212  A(60,59,62)           107.5422         calculate D2E/DX2 analytically  !
 ! A213  A(61,59,62)           106.7389         calculate D2E/DX2 analytically  !
 ! A214  A(6,63,64)            110.4706         calculate D2E/DX2 analytically  !
 ! A215  A(6,63,65)            112.3776         calculate D2E/DX2 analytically  !
 ! A216  A(6,63,66)            112.5796         calculate D2E/DX2 analytically  !
 ! A217  A(64,63,65)           106.543          calculate D2E/DX2 analytically  !
 ! A218  A(64,63,66)           106.5655         calculate D2E/DX2 analytically  !
 ! A219  A(65,63,66)           107.9552         calculate D2E/DX2 analytically  !
 ! A220  A(71,67,87)           160.4053         calculate D2E/DX2 analytically  !
 ! A221  A(7,71,67)            152.845          calculate D2E/DX2 analytically  !
 ! A222  A(17,80,130)          141.8144         calculate D2E/DX2 analytically  !
 ! A223  A(117,116,118)        108.4353         calculate D2E/DX2 analytically  !
 ! A224  A(117,116,119)        110.1695         calculate D2E/DX2 analytically  !
 ! A225  A(117,116,120)        107.6725         calculate D2E/DX2 analytically  !
 ! A226  A(118,116,119)        109.6829         calculate D2E/DX2 analytically  !
 ! A227  A(118,116,120)        109.851          calculate D2E/DX2 analytically  !
 ! A228  A(119,116,120)        110.9735         calculate D2E/DX2 analytically  !
 ! A229  A(116,120,121)        106.9175         calculate D2E/DX2 analytically  !
 ! A230  A(116,120,126)        118.8093         calculate D2E/DX2 analytically  !
 ! A231  A(121,120,126)         93.3524         calculate D2E/DX2 analytically  !
 ! A232  A(39,121,120)         130.7866         calculate D2E/DX2 analytically  !
 ! A233  A(123,122,126)        111.9393         calculate D2E/DX2 analytically  !
 ! A234  A(123,122,128)        105.6174         calculate D2E/DX2 analytically  !
 ! A235  A(123,122,133)        110.9514         calculate D2E/DX2 analytically  !
 ! A236  A(126,122,128)        107.3            calculate D2E/DX2 analytically  !
 ! A237  A(126,122,133)        110.1645         calculate D2E/DX2 analytically  !
 ! A238  A(128,122,133)        110.7232         calculate D2E/DX2 analytically  !
 ! A239  A(122,123,124)        107.3959         calculate D2E/DX2 analytically  !
 ! A240  A(122,123,127)        110.0219         calculate D2E/DX2 analytically  !
 ! A241  A(122,123,134)        108.1677         calculate D2E/DX2 analytically  !
 ! A242  A(124,123,127)        109.9793         calculate D2E/DX2 analytically  !
 ! A243  A(124,123,134)        109.1979         calculate D2E/DX2 analytically  !
 ! A244  A(127,123,134)        111.9529         calculate D2E/DX2 analytically  !
 ! A245  A(123,124,125)        110.3347         calculate D2E/DX2 analytically  !
 ! A246  A(123,124,131)        108.6777         calculate D2E/DX2 analytically  !
 ! A247  A(123,124,135)        109.9039         calculate D2E/DX2 analytically  !
 ! A248  A(125,124,131)        109.1356         calculate D2E/DX2 analytically  !
 ! A249  A(125,124,135)        107.8722         calculate D2E/DX2 analytically  !
 ! A250  A(131,124,135)        110.9128         calculate D2E/DX2 analytically  !
 ! A251  A(124,125,129)        109.2689         calculate D2E/DX2 analytically  !
 ! A252  A(124,125,132)        111.6462         calculate D2E/DX2 analytically  !
 ! A253  A(124,125,136)        113.3009         calculate D2E/DX2 analytically  !
 ! A254  A(129,125,132)        104.5758         calculate D2E/DX2 analytically  !
 ! A255  A(129,125,136)        110.6994         calculate D2E/DX2 analytically  !
 ! A256  A(132,125,136)        106.9904         calculate D2E/DX2 analytically  !
 ! A257  A(120,126,122)         99.4453         calculate D2E/DX2 analytically  !
 ! A258  A(120,126,130)         87.5126         calculate D2E/DX2 analytically  !
 ! A259  A(120,126,132)         96.7847         calculate D2E/DX2 analytically  !
 ! A260  A(122,126,130)        119.9437         calculate D2E/DX2 analytically  !
 ! A261  A(122,126,132)        124.6386         calculate D2E/DX2 analytically  !
 ! A262  A(130,126,132)        113.2993         calculate D2E/DX2 analytically  !
 ! A263  A(80,130,126)         149.3921         calculate D2E/DX2 analytically  !
 ! A264  A(125,132,126)        122.901          calculate D2E/DX2 analytically  !
 ! A265  A(122,133,140)        114.2416         calculate D2E/DX2 analytically  !
 ! A266  A(123,134,144)        113.731          calculate D2E/DX2 analytically  !
 ! A267  A(124,135,148)        113.7001         calculate D2E/DX2 analytically  !
 ! A268  A(125,136,137)        109.6899         calculate D2E/DX2 analytically  !
 ! A269  A(125,136,138)        107.7967         calculate D2E/DX2 analytically  !
 ! A270  A(125,136,139)        109.3149         calculate D2E/DX2 analytically  !
 ! A271  A(137,136,138)        108.0801         calculate D2E/DX2 analytically  !
 ! A272  A(137,136,139)        110.7684         calculate D2E/DX2 analytically  !
 ! A273  A(138,136,139)        111.1304         calculate D2E/DX2 analytically  !
 ! A274  A(136,139,152)        111.2953         calculate D2E/DX2 analytically  !
 ! A275  A(133,140,141)        106.6314         calculate D2E/DX2 analytically  !
 ! A276  A(133,140,142)        111.7827         calculate D2E/DX2 analytically  !
 ! A277  A(133,140,143)        110.716          calculate D2E/DX2 analytically  !
 ! A278  A(141,140,142)        109.0982         calculate D2E/DX2 analytically  !
 ! A279  A(141,140,143)        109.3719         calculate D2E/DX2 analytically  !
 ! A280  A(142,140,143)        109.1792         calculate D2E/DX2 analytically  !
 ! A281  A(134,144,145)        110.9232         calculate D2E/DX2 analytically  !
 ! A282  A(134,144,146)        111.0929         calculate D2E/DX2 analytically  !
 ! A283  A(134,144,147)        106.9171         calculate D2E/DX2 analytically  !
 ! A284  A(145,144,146)        109.2517         calculate D2E/DX2 analytically  !
 ! A285  A(145,144,147)        109.2312         calculate D2E/DX2 analytically  !
 ! A286  A(146,144,147)        109.3747         calculate D2E/DX2 analytically  !
 ! A287  A(135,148,149)        111.1938         calculate D2E/DX2 analytically  !
 ! A288  A(135,148,150)        106.8811         calculate D2E/DX2 analytically  !
 ! A289  A(135,148,151)        110.4159         calculate D2E/DX2 analytically  !
 ! A290  A(149,148,150)        109.2009         calculate D2E/DX2 analytically  !
 ! A291  A(149,148,151)        109.2205         calculate D2E/DX2 analytically  !
 ! A292  A(150,148,151)        109.8945         calculate D2E/DX2 analytically  !
 ! A293  A(139,152,153)        107.2764         calculate D2E/DX2 analytically  !
 ! A294  A(139,152,154)        111.1532         calculate D2E/DX2 analytically  !
 ! A295  A(139,152,155)        110.9054         calculate D2E/DX2 analytically  !
 ! A296  A(153,152,154)        109.575          calculate D2E/DX2 analytically  !
 ! A297  A(153,152,155)        109.466          calculate D2E/DX2 analytically  !
 ! A298  A(154,152,155)        108.4465         calculate D2E/DX2 analytically  !
 ! A299  L(28,87,67,19,-1)     180.564          calculate D2E/DX2 analytically  !
 ! A300  L(28,87,67,19,-2)     177.0679         calculate D2E/DX2 analytically  !
 ! D1    D(6,1,2,3)              1.1701         calculate D2E/DX2 analytically  !
 ! D2    D(6,1,2,8)            178.9097         calculate D2E/DX2 analytically  !
 ! D3    D(68,1,2,3)          -177.8526         calculate D2E/DX2 analytically  !
 ! D4    D(68,1,2,8)            -0.113          calculate D2E/DX2 analytically  !
 ! D5    D(2,1,6,5)              0.1908         calculate D2E/DX2 analytically  !
 ! D6    D(2,1,6,63)          -173.2992         calculate D2E/DX2 analytically  !
 ! D7    D(68,1,6,5)           179.1918         calculate D2E/DX2 analytically  !
 ! D8    D(68,1,6,63)            5.7018         calculate D2E/DX2 analytically  !
 ! D9    D(1,2,3,4)             -0.3771         calculate D2E/DX2 analytically  !
 ! D10   D(1,2,3,69)           176.4419         calculate D2E/DX2 analytically  !
 ! D11   D(8,2,3,4)           -178.0296         calculate D2E/DX2 analytically  !
 ! D12   D(8,2,3,69)            -1.2106         calculate D2E/DX2 analytically  !
 ! D13   D(1,2,8,9)             -7.6393         calculate D2E/DX2 analytically  !
 ! D14   D(1,2,8,10)           170.496          calculate D2E/DX2 analytically  !
 ! D15   D(3,2,8,9)            170.0761         calculate D2E/DX2 analytically  !
 ! D16   D(3,2,8,10)           -11.7886         calculate D2E/DX2 analytically  !
 ! D17   D(2,3,4,5)             -1.7755         calculate D2E/DX2 analytically  !
 ! D18   D(2,3,4,7)            175.2031         calculate D2E/DX2 analytically  !
 ! D19   D(69,3,4,5)          -178.5807         calculate D2E/DX2 analytically  !
 ! D20   D(69,3,4,7)            -1.6021         calculate D2E/DX2 analytically  !
 ! D21   D(3,4,5,6)              3.0643         calculate D2E/DX2 analytically  !
 ! D22   D(3,4,5,70)          -178.9641         calculate D2E/DX2 analytically  !
 ! D23   D(7,4,5,6)           -173.5281         calculate D2E/DX2 analytically  !
 ! D24   D(7,4,5,70)             4.4435         calculate D2E/DX2 analytically  !
 ! D25   D(3,4,7,11)          -173.4271         calculate D2E/DX2 analytically  !
 ! D26   D(3,4,7,71)           -12.4097         calculate D2E/DX2 analytically  !
 ! D27   D(5,4,7,11)             3.3039         calculate D2E/DX2 analytically  !
 ! D28   D(5,4,7,71)           164.3214         calculate D2E/DX2 analytically  !
 ! D29   D(4,5,6,1)             -2.3239         calculate D2E/DX2 analytically  !
 ! D30   D(4,5,6,63)           171.2322         calculate D2E/DX2 analytically  !
 ! D31   D(70,5,6,1)           179.7007         calculate D2E/DX2 analytically  !
 ! D32   D(70,5,6,63)           -6.7432         calculate D2E/DX2 analytically  !
 ! D33   D(1,6,63,64)           90.0891         calculate D2E/DX2 analytically  !
 ! D34   D(1,6,63,65)          -28.7513         calculate D2E/DX2 analytically  !
 ! D35   D(1,6,63,66)         -150.9098         calculate D2E/DX2 analytically  !
 ! D36   D(5,6,63,64)          -83.6666         calculate D2E/DX2 analytically  !
 ! D37   D(5,6,63,65)          157.493          calculate D2E/DX2 analytically  !
 ! D38   D(5,6,63,66)           35.3345         calculate D2E/DX2 analytically  !
 ! D39   D(4,7,11,12)          159.7891         calculate D2E/DX2 analytically  !
 ! D40   D(4,7,11,157)         -22.4227         calculate D2E/DX2 analytically  !
 ! D41   D(71,7,11,12)          -0.8241         calculate D2E/DX2 analytically  !
 ! D42   D(71,7,11,157)        176.964          calculate D2E/DX2 analytically  !
 ! D43   D(4,7,71,67)          -96.4506         calculate D2E/DX2 analytically  !
 ! D44   D(11,7,71,67)          68.4986         calculate D2E/DX2 analytically  !
 ! D45   D(2,8,10,36)         -172.6322         calculate D2E/DX2 analytically  !
 ! D46   D(9,8,10,36)            5.4871         calculate D2E/DX2 analytically  !
 ! D47   D(8,10,36,35)         -81.4374         calculate D2E/DX2 analytically  !
 ! D48   D(8,10,36,98)          39.8914         calculate D2E/DX2 analytically  !
 ! D49   D(8,10,36,99)         155.7461         calculate D2E/DX2 analytically  !
 ! D50   D(7,11,12,13)         167.4344         calculate D2E/DX2 analytically  !
 ! D51   D(7,11,12,72)          -8.6316         calculate D2E/DX2 analytically  !
 ! D52   D(157,11,12,13)       -10.453          calculate D2E/DX2 analytically  !
 ! D53   D(157,11,12,72)       173.481          calculate D2E/DX2 analytically  !
 ! D54   D(11,12,13,14)       -166.3352         calculate D2E/DX2 analytically  !
 ! D55   D(11,12,13,38)         69.7515         calculate D2E/DX2 analytically  !
 ! D56   D(11,12,13,73)        -49.0911         calculate D2E/DX2 analytically  !
 ! D57   D(72,12,13,14)          9.6868         calculate D2E/DX2 analytically  !
 ! D58   D(72,12,13,38)       -114.2266         calculate D2E/DX2 analytically  !
 ! D59   D(72,12,13,73)        126.9309         calculate D2E/DX2 analytically  !
 ! D60   D(12,13,14,15)        164.9971         calculate D2E/DX2 analytically  !
 ! D61   D(12,13,14,16)         47.0759         calculate D2E/DX2 analytically  !
 ! D62   D(12,13,14,17)        -75.1041         calculate D2E/DX2 analytically  !
 ! D63   D(38,13,14,15)        -73.1246         calculate D2E/DX2 analytically  !
 ! D64   D(38,13,14,16)        168.9542         calculate D2E/DX2 analytically  !
 ! D65   D(38,13,14,17)         46.7742         calculate D2E/DX2 analytically  !
 ! D66   D(73,13,14,15)         47.6561         calculate D2E/DX2 analytically  !
 ! D67   D(73,13,14,16)        -70.2651         calculate D2E/DX2 analytically  !
 ! D68   D(73,13,14,17)        167.5549         calculate D2E/DX2 analytically  !
 ! D69   D(12,13,38,39)         42.8619         calculate D2E/DX2 analytically  !
 ! D70   D(12,13,38,40)       -141.3566         calculate D2E/DX2 analytically  !
 ! D71   D(14,13,38,39)        -80.4483         calculate D2E/DX2 analytically  !
 ! D72   D(14,13,38,40)         95.3332         calculate D2E/DX2 analytically  !
 ! D73   D(73,13,38,39)        160.2238         calculate D2E/DX2 analytically  !
 ! D74   D(73,13,38,40)        -23.9947         calculate D2E/DX2 analytically  !
 ! D75   D(13,14,15,74)        178.134          calculate D2E/DX2 analytically  !
 ! D76   D(13,14,15,75)        -63.2798         calculate D2E/DX2 analytically  !
 ! D77   D(13,14,15,76)         58.271          calculate D2E/DX2 analytically  !
 ! D78   D(16,14,15,74)        -63.8175         calculate D2E/DX2 analytically  !
 ! D79   D(16,14,15,75)         54.7688         calculate D2E/DX2 analytically  !
 ! D80   D(16,14,15,76)        176.3196         calculate D2E/DX2 analytically  !
 ! D81   D(17,14,15,74)         56.7256         calculate D2E/DX2 analytically  !
 ! D82   D(17,14,15,75)        175.3118         calculate D2E/DX2 analytically  !
 ! D83   D(17,14,15,76)        -63.1374         calculate D2E/DX2 analytically  !
 ! D84   D(13,14,16,77)         47.5045         calculate D2E/DX2 analytically  !
 ! D85   D(13,14,16,78)        166.4401         calculate D2E/DX2 analytically  !
 ! D86   D(13,14,16,79)        -74.4122         calculate D2E/DX2 analytically  !
 ! D87   D(15,14,16,77)        -69.7834         calculate D2E/DX2 analytically  !
 ! D88   D(15,14,16,78)         49.1522         calculate D2E/DX2 analytically  !
 ! D89   D(15,14,16,79)        168.2998         calculate D2E/DX2 analytically  !
 ! D90   D(17,14,16,77)        170.413          calculate D2E/DX2 analytically  !
 ! D91   D(17,14,16,78)        -70.6514         calculate D2E/DX2 analytically  !
 ! D92   D(17,14,16,79)         48.4962         calculate D2E/DX2 analytically  !
 ! D93   D(13,14,17,18)        170.9709         calculate D2E/DX2 analytically  !
 ! D94   D(13,14,17,80)         51.186          calculate D2E/DX2 analytically  !
 ! D95   D(13,14,17,81)        -65.7728         calculate D2E/DX2 analytically  !
 ! D96   D(15,14,17,18)        -69.9611         calculate D2E/DX2 analytically  !
 ! D97   D(15,14,17,80)        170.254          calculate D2E/DX2 analytically  !
 ! D98   D(15,14,17,81)         53.2952         calculate D2E/DX2 analytically  !
 ! D99   D(16,14,17,18)         49.5994         calculate D2E/DX2 analytically  !
 ! D100  D(16,14,17,80)        -70.1855         calculate D2E/DX2 analytically  !
 ! D101  D(16,14,17,81)        172.8557         calculate D2E/DX2 analytically  !
 ! D102  D(14,17,18,19)        -96.4006         calculate D2E/DX2 analytically  !
 ! D103  D(14,17,18,82)        145.7592         calculate D2E/DX2 analytically  !
 ! D104  D(14,17,18,83)         24.3862         calculate D2E/DX2 analytically  !
 ! D105  D(80,17,18,19)         25.5489         calculate D2E/DX2 analytically  !
 ! D106  D(80,17,18,82)        -92.2913         calculate D2E/DX2 analytically  !
 ! D107  D(80,17,18,83)        146.3356         calculate D2E/DX2 analytically  !
 ! D108  D(81,17,18,19)        140.245          calculate D2E/DX2 analytically  !
 ! D109  D(81,17,18,82)         22.4047         calculate D2E/DX2 analytically  !
 ! D110  D(81,17,18,83)        -98.9683         calculate D2E/DX2 analytically  !
 ! D111  D(14,17,80,130)       -79.4818         calculate D2E/DX2 analytically  !
 ! D112  D(18,17,80,130)       154.7555         calculate D2E/DX2 analytically  !
 ! D113  D(81,17,80,130)        38.769          calculate D2E/DX2 analytically  !
 ! D114  D(17,18,19,20)       -165.3103         calculate D2E/DX2 analytically  !
 ! D115  D(82,18,19,20)        -45.4336         calculate D2E/DX2 analytically  !
 ! D116  D(83,18,19,20)         71.0824         calculate D2E/DX2 analytically  !
 ! D117  D(18,19,20,21)        -11.2133         calculate D2E/DX2 analytically  !
 ! D118  D(18,19,20,22)        165.8464         calculate D2E/DX2 analytically  !
 ! D119  D(19,20,22,23)         -4.8218         calculate D2E/DX2 analytically  !
 ! D120  D(19,20,22,27)        179.0926         calculate D2E/DX2 analytically  !
 ! D121  D(21,20,22,23)        172.183          calculate D2E/DX2 analytically  !
 ! D122  D(21,20,22,27)         -3.9025         calculate D2E/DX2 analytically  !
 ! D123  D(20,22,23,24)       -175.5653         calculate D2E/DX2 analytically  !
[...]
                        Self-field    : sphere-specific E.n sum rule (ISelfD= 2).
 1st derivatives      : Analytical E(r).r(x)/FMM algorithm (CHGder, D1EAlg=3).
                        Cavity 1st derivative terms included.
 2nd derivatives      : Analytical E(r).r(xy)/FMM algorithm (CHGder, D2EAlg=3).
                        Cavity 2nd derivative terms included.
 Solvent              : DiethylEther, Eps=   4.240000 Eps(inf)=   1.829527
 ------------------------------------------------------------------------------
 GePol: Number of generator spheres                  =     157
 GePol: Total number of spheres                      =     157
 GePol: Number of exposed spheres                    =     155 ( 98.73%)
 GePol: Number of points                             =    8945
 GePol: Average weight of points                     =       0.11
 GePol: Minimum weight of points                     =   0.17D-09
 GePol: Maximum weight of points                     =    0.21501
 GePol: Number of points with low weight             =     637
 GePol: Fraction of low-weight points (<1% of avg)   =       7.12%
 GePol: Cavity surface area                          =   1004.551 Ang**2
 GePol: Cavity volume                                =   1322.585 Ang**3
 ------------------------------------------------------------------------------
 Atomic radii for non-electrostatic terms: SMD-CDS.
 ------------------------------------------------------------------------------
 PCM non-electrostatic energy =        -0.0232905490 Hartrees.
 Nuclear repulsion after PCM non-electrostatic terms =    19703.8676517056 Hartrees.
 Leave Link  301 at Tue Dec 17 09:05:55 2019, MaxMem=  4294967296 cpu:               5.2 elap:               0.5
 (Enter /home/cwagen/sw/g16/g16/l302.exe)
 NPDir=0 NMtPBC=     1 NCelOv=     1 NCel=       1 NClECP=     1 NCelD=      1
         NCelK=      1 NCelE2=     1 NClLst=     1 CellRange=     0.0.
 One-electron integrals computed using PRISM.
 One-electron integral symmetry used in STVInt
 NBasis=  1444 RedAO= T EigKep=  3.46D-04  NBF=  1444
 NBsUse=  1444 1.00D-06 EigRej= -1.00D+00 NBFU=  1444
 Precomputing XC quadrature grid using
 IXCGrd= 4 IRadAn=           5 IRanWt=          -1 IRanGd=           0 AccXCQ= 0.00D+00.
 Generated NRdTot=       0 NPtTot=           0 NUsed=           0 NTot=          32
 NSgBfM=  1191  1181  1181  1186  1191 MxSgAt=   157 MxSgA2=   157.
 Leave Link  302 at Tue Dec 17 09:06:27 2019, MaxMem=  4294967296 cpu:             470.5 elap:              31.4
 (Enter /home/cwagen/sw/g16/g16/l303.exe)
 DipDrv:  MaxL=1.
 Leave Link  303 at Tue Dec 17 09:06:28 2019, MaxMem=  4294967296 cpu:               8.0 elap:               1.1
 (Enter /home/cwagen/sw/g16/g16/l401.exe)
 ExpMin= 1.17D-01 ExpMax= 2.52D+04 ExpMxC= 3.78D+03 IAcc=3 IRadAn=         5 AccDes= 0.00D+00
 Harris functional with IExCor= 1009 and IRadAn=       5 diagonalized for initial guess.
 HarFok:  IExCor= 1009 AccDes= 0.00D+00 IRadAn=         5 IDoV= 1 UseB2=F ITyADJ=14
 ICtDFT=  3500011 ScaDFX=  1.000000  1.000000  1.000000  1.000000
 FoFCou: FMM=F IPFlag=           0 FMFlag=      100000 FMFlg1=        2001
         NFxFlg=           0 DoJE=T BraDBF=F KetDBF=T FulRan=T
         wScrn=  0.000000 ICntrl=       500 IOpCl=  0 I1Cent=   200000004 NGrid=           0
         NMat0=    1 NMatS0=      1 NMatT0=    0 NMatD0=    1 NMtDS0=    0 NMtDT0=    0
 Petite list used in FoFCou.
 Harris En= -5373.24274917874    
 JPrj=0 DoOrth=F DoCkMO=F.
 Leave Link  401 at Tue Dec 17 09:07:48 2019, MaxMem=  4294967296 cpu:             940.0 elap:              80.0
 (Enter /home/cwagen/sw/g16/g16/l502.exe)
 Integral symmetry usage will be decided dynamically.
 Closed shell SCF:
 Using DIIS extrapolation, IDIIS=  1040.
 NGot=  4294967296 LenX=  4290758284 LenY=  4288671704
 Requested convergence on RMS density matrix=1.00D-08 within 128 cycles.
 Requested convergence on MAX density matrix=1.00D-06.
 Requested convergence on             energy=1.00D-06.
 No special actions if energy rises.
 Fock matrices will be formed incrementally for  20 cycles.

 Cycle   1  Pass 1  IDiag  1:
 FoFJK:  IHMeth= 1 ICntrl=       0 DoSepK=F KAlg= 0 I1Cent=           0 FoldK=F
 IRaf= 690000000 NMat=       1 IRICut=       1 DoRegI=T DoRafI=F ISym2E= 0 IDoP0=0 IntGTp=1.
 FoFCou: FMM=T IPFlag=           0 FMFlag=      100000 FMFlg1=        2001
         NFxFlg=           0 DoJE=F BraDBF=F KetDBF=F FulRan=T
         wScrn=  0.000000 ICntrl=         0 IOpCl=  0 I1Cent=           0 NGrid=           0
         NMat0=    1 NMatS0=      1 NMatT0=    0 NMatD0=    1 NMtDS0=    0 NMtDT0=    0
 Symmetry not used in FoFCou.
 FMM levels:  10  Number of levels for PrismC:   9
 Inv3:  Mode=1 IEnd=   240039075.
 Iteration    1 A*A^-1 deviation from unit magnitude is 1.05D-14 for   8938.
 Iteration    1 A*A^-1 deviation from orthogonality  is 5.54D-15 for   8931   8814.
 Iteration    1 A^-1*A deviation from unit magnitude is 1.20D-14 for   8938.
 Iteration    1 A^-1*A deviation from orthogonality  is 7.49D-15 for   8934   8703.
 E= -5374.66789534116    
 DIIS: error= 1.74D-02 at cycle   1 NSaved=   1.
 NSaved= 1 IEnMin= 1 EnMin= -5374.66789534116     IErMin= 1 ErrMin= 1.74D-02
 ErrMax= 1.74D-02  0.00D+00 EMaxC= 1.00D-01 BMatC= 2.00D+00 BMatP= 2.00D+00
 IDIUse=3 WtCom= 8.26D-01 WtEn= 1.74D-01
 Coeff-Com:  0.100D+01
 Coeff-En:   0.100D+01
 Coeff:      0.100D+01
 Gap=     0.330 Goal=   None    Shift=    0.000
 GapD=    0.330 DampG=1.000 DampE=0.500 DampFc=0.5000 IDamp=-1.
 Damping current iteration by 5.00D-01
 RMSDP=1.69D-03 MaxDP=1.46D-01              OVMax= 1.65D-01

 Cycle   2  Pass 1  IDiag  1:
 RMSU=  8.36D-04    CP:  9.87D-01
 E= -5375.47389862372     Delta-E=       -0.806003282563 Rises=F Damp=T
 DIIS: error= 7.95D-03 at cycle   2 NSaved=   2.
 NSaved= 2 IEnMin= 2 EnMin= -5375.47389862372     IErMin= 2 ErrMin= 7.95D-03
 ErrMax= 7.95D-03  0.00D+00 EMaxC= 1.00D-01 BMatC= 2.02D-01 BMatP= 2.00D+00
 IDIUse=3 WtCom= 9.20D-01 WtEn= 7.95D-02
 Coeff-Com: -0.935D-01 0.109D+01
 Coeff-En:   0.000D+00 0.100D+01
 Coeff:     -0.861D-01 0.109D+01
 Gap=     0.250 Goal=   None    Shift=    0.000
 RMSDP=5.07D-04 MaxDP=7.00D-02 DE=-8.06D-01 OVMax= 9.97D-02

 Cycle   3  Pass 1  IDiag  1:
 RMSU=  4.96D-04    CP:  9.79D-01  1.09D+00
 E= -5376.21016442411     Delta-E=       -0.736265800388 Rises=F Damp=F
 DIIS: error= 5.64D-03 at cycle   3 NSaved=   3.
 NSaved= 3 IEnMin= 3 EnMin= -5376.21016442411     IErMin= 3 ErrMin= 5.64D-03
 ErrMax= 5.64D-03  0.00D+00 EMaxC= 1.00D-01 BMatC= 9.88D-02 BMatP= 2.02D-01
 IDIUse=3 WtCom= 9.44D-01 WtEn= 5.64D-02
 Coeff-Com: -0.117D+00 0.475D+00 0.643D+00
 Coeff-En:   0.000D+00 0.000D+00 0.100D+01
 Coeff:     -0.111D+00 0.448D+00 0.663D+00
 Gap=     0.248 Goal=   None    Shift=    0.000
 RMSDP=2.75D-04 MaxDP=4.71D-02 DE=-7.36D-01 OVMax= 5.44D-02

 Cycle   4  Pass 1  IDiag  1:
 RMSU=  1.89D-04    CP:  9.81D-01  1.20D+00  6.36D-01
 E= -5376.27084596581     Delta-E=       -0.060681541705 Rises=F Damp=F
 DIIS: error= 2.78D-03 at cycle   4 NSaved=   4.
 NSaved= 4 IEnMin= 4 EnMin= -5376.27084596581     IErMin= 4 ErrMin= 2.78D-03
 ErrMax= 2.78D-03  0.00D+00 EMaxC= 1.00D-01 BMatC= 2.10D-02 BMatP= 9.88D-02
 IDIUse=3 WtCom= 9.72D-01 WtEn= 2.78D-02
 Coeff-Com: -0.420D-01 0.106D+00 0.356D+00 0.580D+00
 Coeff-En:   0.000D+00 0.000D+00 0.166D+00 0.834D+00
 Coeff:     -0.409D-01 0.103D+00 0.351D+00 0.587D+00
 Gap=     0.244 Goal=   None    Shift=    0.000
 RMSDP=1.07D-04 MaxDP=1.91D-02 DE=-6.07D-02 OVMax= 1.71D-02

 Cycle   5  Pass 1  IDiag  1:
 RMSU=  4.75D-05    CP:  9.80D-01  1.19D+00  7.50D-01  5.93D-01
 E= -5376.28708894112     Delta-E=       -0.016242975307 Rises=F Damp=F
 DIIS: error= 3.74D-04 at cycle   5 NSaved=   5.
 NSaved= 5 IEnMin= 5 EnMin= -5376.28708894112     IErMin= 5 ErrMin= 3.74D-04
 ErrMax= 3.74D-04  0.00D+00 EMaxC= 1.00D-01 BMatC= 7.13D-04 BMatP= 2.10D-02
 IDIUse=3 WtCom= 9.96D-01 WtEn= 3.74D-03
 Coeff-Com: -0.124D-01 0.249D-01 0.126D+00 0.262D+00 0.599D+00
 Coeff-En:   0.000D+00 0.000D+00 0.000D+00 0.000D+00 0.100D+01
 Coeff:     -0.123D-01 0.248D-01 0.125D+00 0.261D+00 0.601D+00
 Gap=     0.243 Goal=   None    Shift=    0.000
 RMSDP=2.15D-05 MaxDP=3.18D-03 DE=-1.62D-02 OVMax= 3.59D-03

 Cycle   6  Pass 1  IDiag  1:
 RMSU=  1.44D-05    CP:  9.80D-01  1.19D+00  7.54D-01  6.36D-01  7.20D-01
 E= -5376.28766343423     Delta-E=       -0.000574493108 Rises=F Damp=F
 DIIS: error= 1.08D-04 at cycle   6 NSaved=   6.
 NSaved= 6 IEnMin= 6 EnMin= -5376.28766343423     IErMin= 6 ErrMin= 1.08D-04
 ErrMax= 1.08D-04  0.00D+00 EMaxC= 1.00D-01 BMatC= 5.31D-05 BMatP= 7.13D-04
 IDIUse=3 WtCom= 9.99D-01 WtEn= 1.08D-03
 Coeff-Com: -0.116D-02 0.625D-03 0.191D-01 0.519D-01 0.250D+00 0.680D+00
 Coeff-En:   0.000D+00 0.000D+00 0.000D+00 0.000D+00 0.000D+00 0.100D+01
 Coeff:     -0.116D-02 0.625D-03 0.191D-01 0.518D-01 0.250D+00 0.680D+00
 Gap=     0.242 Goal=   None    Shift=    0.000
 RMSDP=6.44D-06 MaxDP=9.57D-04 DE=-5.74D-04 OVMax= 9.86D-04

 Cycle   7  Pass 1  IDiag  1:
 RMSU=  5.11D-06    CP:  9.80D-01  1.19D+00  7.56D-01  6.40D-01  7.80D-01
                    CP:  8.53D-01
 E= -5376.28770744351     Delta-E=       -0.000044009277 Rises=F Damp=F
 DIIS: error= 4.09D-05 at cycle   7 NSaved=   7.
 NSaved= 7 IEnMin= 7 EnMin= -5376.28770744351     IErMin= 7 ErrMin= 4.09D-05
 ErrMax= 4.09D-05  0.00D+00 EMaxC= 1.00D-01 BMatC= 6.65D-06 BMatP= 5.31D-05
 IDIUse=1 WtCom= 1.00D+00 WtEn= 0.00D+00
 Coeff-Com:  0.103D-02-0.289D-02-0.658D-02-0.959D-02 0.429D-01 0.286D+00
 Coeff-Com:  0.689D+00
 Coeff:      0.103D-02-0.289D-02-0.658D-02-0.959D-02 0.429D-01 0.286D+00
 Coeff:      0.689D+00
 Gap=     0.242 Goal=   None    Shift=    0.000
 RMSDP=2.82D-06 MaxDP=4.17D-04 DE=-4.40D-05 OVMax= 6.09D-04

 Cycle   8  Pass 1  IDiag  1:
 RMSU=  2.03D-06    CP:  9.80D-01  1.19D+00  7.57D-01  6.42D-01  8.04D-01
                    CP:  9.43D-01  8.64D-01
 E= -5376.28771371060     Delta-E=       -0.000006267095 Rises=F Damp=F
 DIIS: error= 2.17D-05 at cycle   8 NSaved=   8.
 NSaved= 8 IEnMin= 8 EnMin= -5376.28771371060     IErMin= 8 ErrMin= 2.17D-05
 ErrMax= 2.17D-05  0.00D+00 EMaxC= 1.00D-01 BMatC= 1.44D-06 BMatP= 6.65D-06
 IDIUse=1 WtCom= 1.00D+00 WtEn= 0.00D+00
 Coeff-Com:  0.700D-03-0.153D-02-0.602D-02-0.134D-01-0.174D-01 0.264D-01
 Coeff-Com:  0.345D+00 0.666D+00
 Coeff:      0.700D-03-0.153D-02-0.602D-02-0.134D-01-0.174D-01 0.264D-01
 Coeff:      0.345D+00 0.666D+00
 Gap=     0.242 Goal=   None    Shift=    0.000
 RMSDP=1.16D-06 MaxDP=2.15D-04 DE=-6.27D-06 OVMax= 2.55D-04

 Cycle   9  Pass 1  IDiag  1:
 RMSU=  6.79D-07    CP:  9.80D-01  1.19D+00  7.58D-01  6.42D-01  8.13D-01
                    CP:  9.64D-01  9.93D-01  8.33D-01
 E= -5376.28771511174     Delta-E=       -0.000001401138 Rises=F Damp=F
 DIIS: error= 5.73D-06 at cycle   9 NSaved=   9.
 NSaved= 9 IEnMin= 9 EnMin= -5376.28771511174     IErMin= 9 ErrMin= 5.73D-06
 ErrMax= 5.73D-06  0.00D+00 EMaxC= 1.00D-01 BMatC= 1.73D-07 BMatP= 1.44D-06
 IDIUse=1 WtCom= 1.00D+00 WtEn= 0.00D+00
 Coeff-Com:  0.213D-03-0.382D-03-0.192D-02-0.534D-02-0.137D-01-0.248D-01
 Coeff-Com:  0.749D-01 0.308D+00 0.663D+00
 Coeff:      0.213D-03-0.382D-03-0.192D-02-0.534D-02-0.137D-01-0.248D-01
 Coeff:      0.749D-01 0.308D+00 0.663D+00
 Gap=     0.242 Goal=   None    Shift=    0.000
 RMSDP=4.44D-07 MaxDP=4.34D-05 DE=-1.40D-06 OVMax= 1.03D-04

 Cycle  10  Pass 1  IDiag  1:
 RMSU=  2.81D-07    CP:  9.80D-01  1.19D+00  7.58D-01  6.42D-01  8.14D-01
                    CP:  9.75D-01  1.03D+00  9.31D-01  8.50D-01
 E= -5376.28771529472     Delta-E=       -0.000000182979 Rises=F Damp=F
 DIIS: error= 1.87D-06 at cycle  10 NSaved=  10.
 NSaved=10 IEnMin=10 EnMin= -5376.28771529472     IErMin=10 ErrMin= 1.87D-06
 ErrMax= 1.87D-06  0.00D+00 EMaxC= 1.00D-01 BMatC= 1.55D-08 BMatP= 1.73D-07
 IDIUse=1 WtCom= 1.00D+00 WtEn= 0.00D+00
 Coeff-Com: -0.293D-04 0.906D-04 0.340D-03 0.225D-03-0.187D-02-0.120D-01
 Coeff-Com: -0.270D-01-0.835D-03 0.226D+00 0.815D+00
 Coeff:     -0.293D-04 0.906D-04 0.340D-03 0.225D-03-0.187D-02-0.120D-01
 Coeff:     -0.270D-01-0.835D-03 0.226D+00 0.815D+00
 Gap=     0.242 Goal=   None    Shift=    0.000
 RMSDP=1.78D-07 MaxDP=2.29D-05 DE=-1.83D-07 OVMax= 6.06D-05

 Cycle  11  Pass 1  IDiag  1:
 RMSU=  1.01D-07    CP:  9.80D-01  1.19D+00  7.58D-01  6.42D-01  8.15D-01
                    CP:  9.78D-01  1.04D+00  9.60D-01  9.89D-01  9.81D-01
 E= -5376.28771531748     Delta-E=       -0.000000022763 Rises=F Damp=F
 DIIS: error= 8.27D-07 at cycle  11 NSaved=  11.
 NSaved=11 IEnMin=11 EnMin= -5376.28771531748     IErMin=11 ErrMin= 8.27D-07
 ErrMax= 8.27D-07  0.00D+00 EMaxC= 1.00D-01 BMatC= 2.86D-09 BMatP= 1.55D-08
 IDIUse=1 WtCom= 1.00D+00 WtEn= 0.00D+00
 Coeff-Com: -0.350D-04 0.788D-04 0.385D-03 0.727D-03 0.781D-03-0.228D-02
 Coeff-Com: -0.203D-01-0.373D-01 0.187D-01 0.367D+00 0.672D+00
 Coeff:     -0.350D-04 0.788D-04 0.385D-03 0.727D-03 0.781D-03-0.228D-02
 Coeff:     -0.203D-01-0.373D-01 0.187D-01 0.367D+00 0.672D+00
 Gap=     0.242 Goal=   None    Shift=    0.000
 RMSDP=5.83D-08 MaxDP=7.28D-06 DE=-2.28D-08 OVMax= 1.99D-05

 Cycle  12  Pass 1  IDiag  1:
 RMSU=  3.47D-08    CP:  9.80D-01  1.19D+00  7.58D-01  6.42D-01  8.16D-01
                    CP:  9.78D-01  1.04D+00  9.70D-01  1.01D+00  1.09D+00
                    CP:  8.62D-01
 E= -5376.28771532049     Delta-E=       -0.000000003005 Rises=F Damp=F
 DIIS: error= 2.45D-07 at cycle  12 NSaved=  12.
 NSaved=12 IEnMin=12 EnMin= -5376.28771532049     IErMin=12 ErrMin= 2.45D-07
 ErrMax= 2.45D-07  0.00D+00 EMaxC= 1.00D-01 BMatC= 2.77D-10 BMatP= 2.86D-09
 IDIUse=1 WtCom= 1.00D+00 WtEn= 0.00D+00
 Coeff-Com: -0.947D-05 0.190D-04 0.116D-03 0.266D-03 0.513D-03 0.455D-03
 Coeff-Com: -0.489D-02-0.157D-01-0.206D-01 0.552D-01 0.267D+00 0.718D+00
 Coeff:     -0.947D-05 0.190D-04 0.116D-03 0.266D-03 0.513D-03 0.455D-03
 Coeff:     -0.489D-02-0.157D-01-0.206D-01 0.552D-01 0.267D+00 0.718D+00
 Gap=     0.242 Goal=   None    Shift=    0.000
 RMSDP=2.02D-08 MaxDP=3.00D-06 DE=-3.00D-09 OVMax= 5.75D-06

 Cycle  13  Pass 1  IDiag  1:
 RMSU=  1.27D-08    CP:  9.80D-01  1.19D+00  7.58D-01  6.42D-01  8.16D-01
                    CP:  9.78D-01  1.04D+00  9.71D-01  1.02D+00  1.12D+00
                    CP:  9.55D-01  9.04D-01
 E= -5376.28771532092     Delta-E=       -0.000000000429 Rises=F Damp=F
 DIIS: error= 1.33D-07 at cycle  13 NSaved=  13.
 NSaved=13 IEnMin=13 EnMin= -5376.28771532092     IErMin=13 ErrMin= 1.33D-07
 ErrMax= 1.33D-07  0.00D+00 EMaxC= 1.00D-01 BMatC= 5.21D-11 BMatP= 2.77D-10
 IDIUse=1 WtCom= 1.00D+00 WtEn= 0.00D+00
 Coeff-Com:  0.158D-05-0.428D-05-0.607D-05 0.951D-05 0.113D-03 0.559D-03
 Coeff-Com:  0.950D-03-0.160D-02-0.121D-01-0.285D-01 0.162D-01 0.330D+00
 Coeff-Com:  0.695D+00
 Coeff:      0.158D-05-0.428D-05-0.607D-05 0.951D-05 0.113D-03 0.559D-03
 Coeff:      0.950D-03-0.160D-02-0.121D-01-0.285D-01 0.162D-01 0.330D+00
 Coeff:      0.695D+00
 Gap=     0.242 Goal=   None    Shift=    0.000
 RMSDP=7.98D-09 MaxDP=8.81D-07 DE=-4.29D-10 OVMax= 2.41D-06

 Error on total polarization charges =  0.06566
 SCF Done:  E(RM062X) =  -5376.28771532     A.U. after   13 cycles
            NFock= 13  Conv=0.80D-08     -V/T= 2.0069
 KE= 5.339300350025D+03 PE=-5.201554424232D+04 EE= 2.159608852527D+04
 SMD-CDS (non-electrostatic) energy       (kcal/mol) =     -14.62
 (included in total energy above)
 Leave Link  502 at Tue Dec 17 10:22:18 2019, MaxMem=  4294967296 cpu:           57470.4 elap:            4470.2
 (Enter /home/cwagen/sw/g16/g16/l801.exe)
 DoSCS=F DFT=T ScalE2(SS,OS)=  1.000000  1.000000
 Range of M.O.s used for correlation:     1  1444
 NBasis=  1444 NAE=   333 NBE=   333 NFC=     0 NFV=     0
 NROrb=   1444 NOA=   333 NOB=   333 NVA=  1111 NVB=  1111

 **** Warning!!: The largest alpha MO coefficient is  0.11628837D+02

 Leave Link  801 at Tue Dec 17 10:22:19 2019, MaxMem=  4294967296 cpu:               5.0 elap:               0.6
 (Enter /home/cwagen/sw/g16/g16/l1101.exe)
 Using compressed storage, NAtomX=   157.
 Will process    158 centers per pass.
 PrsmSu:  requested number of processors reduced to:   8 ShMem   1 Linda.
 Leave Link 1101 at Tue Dec 17 10:23:00 2019, MaxMem=  4294967296 cpu:             486.7 elap:              40.5
 (Enter /home/cwagen/sw/g16/g16/l1102.exe)
 Symmetrizing basis deriv contribution to polar:
 IMax=3 JMax=2 DiffMx= 0.00D+00
 Leave Link 1102 at Tue Dec 17 10:23:01 2019, MaxMem=  4294967296 cpu:               9.9 elap:               1.0
 (Enter /home/cwagen/sw/g16/g16/l1110.exe)
 Forming Gx(P) for the SCF density, NAtomX=   157.
 Integral derivatives from FoFJK, PRISM(SPDF).
 Do as many integral derivatives as possible in FoFJK.
 G2DrvN: MDV=    4294955856.
 G2DrvN: will do    53 centers at a time, making    3 passes.
 G2DrvN:  IPasSy=1 do centers    0 through   52.
 Calling FoFCou, ICntrl=  3107 FMM=T I1Cent=   0 AccDes= 0.00D+00.
 FoFJK:  IHMeth= 1 ICntrl=    3107 DoSepK=F KAlg= 0 I1Cent=           0 FoldK=F
 IRaf=         0 NMat=       1 IRICut=       1 DoRegI=T DoRafI=F ISym2E= 0 IDoP0=0 IntGTp=1.
 FoFCou: FMM=T IPFlag=           0 FMFlag=      100000 FMFlg1=        2001
         NFxFlg=           0 DoJE=F BraDBF=F KetDBF=F FulRan=T
         wScrn=  0.000000 ICntrl=      3107 IOpCl=  0 I1Cent=           0 NGrid=           0
         NMat0=    1 NMatS0=      1 NMatT0=    0 NMatD0=    1 NMtDS0=    0 NMtDT0=    0
 Symmetry not used in FoFCou.
 FMM levels:  10  Number of levels for PrismC:   9
 G2DrvN:  IPasSy=1 do centers   53 through  105.
 Calling FoFCou, ICntrl=  3107 FMM=T I1Cent=   0 AccDes= 0.00D+00.
 G2DrvN:  IPasSy=1 do centers  106 through  157.
 Calling FoFCou, ICntrl=  3107 FMM=T I1Cent=   0 AccDes= 0.00D+00.
 NEqPCM:  Using equilibrium solvation (IEInf=0, Eps=   4.2400, EpsInf=   1.8295)
 G2PCM: DoFxE=T DoFxN=T DoGrad=T DoDP/DQ/DG/TGxP=FFFF NFrqRd=   0 IEInf=0 SqF1=F DoCFld=F IF1Alg=4.
 GePol: Maximum number of non-zero 1st derivatives   =     321
 End of G2Drv F.D. properties file   721 does not exist.
 End of G2Drv F.D. properties file   722 does not exist.
 End of G2Drv F.D. properties file   788 does not exist.
 Leave Link 1110 at Tue Dec 17 19:54:16 2019, MaxMem=  4294967296 cpu:          479721.1 elap:           34275.1
 (Enter /home/cwagen/sw/g16/g16/l1002.exe)
 Minotr:  Closed shell wavefunction.
          IDoAtm=11111111111111111111111111111111111111111111111111
          IDoAtm=11111111111111111111111111111111111111111111111111
          IDoAtm=11111111111111111111111111111111111111111111111111
          IDoAtm=1111111
 NEqPCM:  Using equilibrium solvation (IEInf=0, Eps=   4.2400, EpsInf=   1.8295)
          Direct CPHF calculation.
          Differentiating once with respect to nuclear coordinates.
          Requested convergence is 1.0D-08 RMS, and 1.0D-07 maximum.
          Secondary convergence is 1.0D-12 RMS, and 1.0D-12 maximum.
          NewPWx=T KeepS1=F KeepF1=F KeepIn=T MapXYZ=F SortEE=F KeepMc=T.
        48348 words used for storage of precomputed grid.
 Two-electron integrals replicated using symmetry.
          MDV=    4294967296 using IRadAn=       1.
          Solving linear equations simultaneously, MaxMat=      72.
 FoF2E skips out because all densities are zero.
 CalDSu exits because no D1Ps are significant.
 FoFJK:  IHMeth= 1 ICntrl=       0 DoSepK=F KAlg= 0 I1Cent=           0 FoldK=F
 IRaf= 620000000 NMat=      72 IRICut=       1 DoRegI=T DoRafI=F ISym2E= 2 IDoP0=0 IntGTp=1.
          There are   474 degrees of freedom in the 1st order CPHF.  IDoFFX=6 NUNeed=     0.
    471 vectors produced by pass  0 Test12= 3.70D-13 1.00D-09 XBig12= 1.36D-01 1.00D-01.
 AX will form    72 AO Fock derivatives at one time.
    471 vectors produced by pass  1 Test12= 3.70D-13 1.00D-09 XBig12= 2.22D-02 2.70D-02.
    471 vectors produced by pass  2 Test12= 3.70D-13 1.00D-09 XBig12= 5.35D-04 3.19D-03.
    469 vectors produced by pass  3 Test12= 3.70D-13 1.00D-09 XBig12= 4.76D-06 1.63D-04.
    468 vectors produced by pass  4 Test12= 3.70D-13 1.00D-09 XBig12= 2.65D-08 1.17D-05.
    468 vectors produced by pass  5 Test12= 3.70D-13 1.00D-09 XBig12= 9.85D-11 8.39D-07.
