
                                 *****************
                                 * O   R   C   A *
                                 *****************

                                            #,                                       
                                            ###                                      
                                            ####                                     
                                            #####                                    
                                            ######                                   
                                           ########,                                 
                                     ,,################,,,,,                         
                               ,,#################################,,                 
                          ,,##########################################,,             
                       ,#########################################, ''#####,          
                    ,#############################################,,   '####,        
                  ,##################################################,,,,####,       
                ,###########''''           ''''###############################       
              ,#####''   ,,,,##########,,,,          '''####'''          '####       
            ,##' ,,,,###########################,,,                        '##       
           ' ,,###''''                  '''############,,,                           
         ,,##''                                '''############,,,,        ,,,,,,###''
      ,#''                                            '''#######################'''  
     '                                                          ''''####''''         
             ,#######,   #######,   ,#######,      ##                                
            ,#'     '#,  ##    ##  ,#'     '#,    #''#        ######   ,####,        
            ##       ##  ##   ,#'  ##            #'  '#       #        #'  '#        
            ##       ##  #######   ##           ,######,      #####,   #    #        
            '#,     ,#'  ##    ##  '#,     ,#' ,#      #,         ##   #,  ,#        
             '#######'   ##     ##  '#######'  #'      '#     #####' # '####'        



                  #######################################################
                  #                        -***-                        #
                  #          Department of theory and spectroscopy      #
                  #    Directorship and core code : Frank Neese         #
                  #        Max Planck Institute fuer Kohlenforschung    #
                  #                Kaiser Wilhelm Platz 1               #
                  #                 D-45470 Muelheim/Ruhr               #
                  #                      Germany                        #
                  #                                                     #
                  #                  All rights reserved                #
                  #                        -***-                        #
                  #######################################################


                         Program Version 5.0.3 -  RELEASE  -


 With contributions from (in alphabetic order):
   Daniel Aravena         : Magnetic Suceptibility
   Michael Atanasov       : Ab Initio Ligand Field Theory (pilot matlab implementation)
   Alexander A. Auer      : GIAO ZORA, VPT2 properties, NMR spectrum
   Ute Becker             : Parallelization
   Giovanni Bistoni       : ED, misc. LED, open-shell LED, HFLD
   Martin Brehm           : Molecular dynamics
   Dmytro Bykov           : SCF Hessian
   Vijay G. Chilkuri      : MRCI spin determinant printing, contributions to CSF-ICE
   Dipayan Datta          : RHF DLPNO-CCSD density
   Achintya Kumar Dutta   : EOM-CC, STEOM-CC
   Dmitry Ganyushin       : Spin-Orbit,Spin-Spin,Magnetic field MRCI
   Miquel Garcia          : C-PCM and meta-GGA Hessian, CC/C-PCM, Gaussian charge scheme
   Yang Guo               : DLPNO-NEVPT2, F12-NEVPT2, CIM, IAO-localization
   Andreas Hansen         : Spin unrestricted coupled pair/coupled cluster methods
   Benjamin Helmich-Paris : MC-RPA, TRAH-SCF, COSX integrals
   Lee Huntington         : MR-EOM, pCC
   Robert Izsak           : Overlap fitted RIJCOSX, COSX-SCS-MP3, EOM
   Marcus Kettner         : VPT2
   Christian Kollmar      : KDIIS, OOCD, Brueckner-CCSD(T), CCSD density, CASPT2, CASPT2-K
   Simone Kossmann        : Meta GGA functionals, TD-DFT gradient, OOMP2, MP2 Hessian
   Martin Krupicka        : Initial AUTO-CI
   Lucas Lang             : DCDCAS
   Marvin Lechner         : AUTO-CI (C++ implementation), FIC-MRCC
   Dagmar Lenk            : GEPOL surface, SMD
   Dimitrios Liakos       : Extrapolation schemes; Compound Job, initial MDCI parallelization
   Dimitrios Manganas     : Further ROCIS development; embedding schemes
   Dimitrios Pantazis     : SARC Basis sets
   Anastasios Papadopoulos: AUTO-CI, single reference methods and gradients
   Taras Petrenko         : DFT Hessian,TD-DFT gradient, ASA, ECA, R-Raman, ABS, FL, XAS/XES, NRVS
   Peter Pinski           : DLPNO-MP2, DLPNO-MP2 Gradient
   Christoph Reimann      : Effective Core Potentials
   Marius Retegan         : Local ZFS, SOC
   Christoph Riplinger    : Optimizer, TS searches, QM/MM, DLPNO-CCSD(T), (RO)-DLPNO pert. Triples
   Tobias Risthaus        : Range-separated hybrids, TD-DFT gradient, RPA, STAB
   Michael Roemelt        : Original ROCIS implementation
   Masaaki Saitow         : Open-shell DLPNO-CCSD energy and density
   Barbara Sandhoefer     : DKH picture change effects
   Avijit Sen             : IP-ROCIS
   Kantharuban Sivalingam : CASSCF convergence, NEVPT2, FIC-MRCI
   Bernardo de Souza      : ESD, SOC TD-DFT
   Georgi Stoychev        : AutoAux, RI-MP2 NMR, DLPNO-MP2 response
   Willem Van den Heuvel  : Paramagnetic NMR
   Boris Wezisla          : Elementary symmetry handling
   Frank Wennmohs         : Technical directorship


 We gratefully acknowledge several colleagues who have allowed us to
 interface, adapt or use parts of their codes:
   Stefan Grimme, W. Hujo, H. Kruse, P. Pracht,  : VdW corrections, initial TS optimization,
                  C. Bannwarth, S. Ehlert          DFT functionals, gCP, sTDA/sTD-DF
   Ed Valeev, F. Pavosevic, A. Kumar             : LibInt (2-el integral package), F12 methods
   Garnet Chan, S. Sharma, J. Yang, R. Olivares  : DMRG
   Ulf Ekstrom                                   : XCFun DFT Library
   Mihaly Kallay                                 : mrcc  (arbitrary order and MRCC methods)
   Jiri Pittner, Ondrej Demel                    : Mk-CCSD
   Frank Weinhold                                : gennbo (NPA and NBO analysis)
   Christopher J. Cramer and Donald G. Truhlar   : smd solvation model
   Lars Goerigk                                  : TD-DFT with DH, B97 family of functionals
   V. Asgeirsson, H. Jonsson                     : NEB implementation
   FAccTs GmbH                                   : IRC, NEB, NEB-TS, DLPNO-Multilevel, CI-OPT
                                                   MM, QMMM, 2- and 3-layer-ONIOM, Crystal-QMMM,
                                                   LR-CPCM, SF, NACMEs, symmetry and pop. for TD-DFT,
                                                   nearIR, NL-DFT gradient (VV10), updates on ESD,
                                                   ML-optimized integration grids
   S Lehtola, MJT Oliveira, MAL Marques          : LibXC Library
   Liviu Ungur et al                             : ANISO software


 Your calculation uses the libint2 library for the computation of 2-el integrals
 For citations please refer to: http://libint.valeyev.net

 Your ORCA version has been built with support for libXC version: 5.1.0
 For citations please refer to: https://tddft.org/programs/libxc/

 This ORCA versions uses:
   CBLAS   interface :  Fast vector & matrix operations
   LAPACKE interface :  Fast linear algebra routines
   SCALAPACK package :  Parallel linear algebra routines
   Shared memory     :  Shared parallel matrices


================================================================================

----- Orbital basis set information -----
Your calculation utilizes the basis: cc-pVTZ 
       H, B-Ne : Obtained from the ccRepo (grant-hill.group.shef.ac.uk/ccrepo) Feb. 2017
                 T. H. Dunning, Jr., J. Chem. Phys. 90, 1007 (1989)
            He : Obtained from the ccRepo (grant-hill.group.shef.ac.uk/ccrepo) Feb. 2017
                 D. E. Woon, T. H. Dunning, Jr., J. Chem. Phys. 100, 2975 (1994)
  Li-Be, Na-Mg : Obtained from the ccRepo (grant-hill.group.shef.ac.uk/ccrepo) Feb. 2017
                 B. P. Prascher, D. E. Woon, K. A. Peterson, T. H. Dunning, Jr., A. K. Wilson, Theor. Chem. Acc. 128, 69 (2011)
         Al-Ar : Obtained from the ccRepo (grant-hill.group.shef.ac.uk/ccrepo) Feb. 2017
                 D. E. Woon, T. H. Dunning, Jr., J. Chem. Phys. 98, 1358 (1993)
            Ca : Obtained from the Peterson Research Group Website (tyr0.chem.wsu.edu/~kipeters) Feb. 2017
                 J. Koput, K. A. Peterson, J. Phys. Chem. 106, 9595 (2002)
         Sc-Zn : Obtained from the ccRepo (grant-hill.group.shef.ac.uk/ccrepo) Feb. 2017
                 N. B. Balabanov, K. A. Peterson, J. Chem. Phys. 123, 064107 (2005)
                 N. B. Balabanov, K. A. Peterson, J. Chem. Phys. 125, 074110 (2006)
         Ga-Kr : Obtained from the ccRepo (grant-hill.group.shef.ac.uk/ccrepo) Feb. 2017
                 A. K. Wilson, D. E. Woon, K. A. Peterson, T. H. Dunning, Jr., J. Chem. Phys. 110, 7667 (1999)
             Y : Obtained from the ccRepo (grant-hill.group.shef.ac.uk/ccrepo) Feb. 2017
                 K. A. Peterson, D. Figgen, M. Dolg, H. Stoll, J. Chem. Phys. 126, 124101 (2007)
        Ag, Au : Obtained from the Peterson Research Group Website (tyr0.chem.wsu.edu/~kipeters) Feb. 2017
                 K. A. Peterson, C. Puzzarini, Theor. Chem. Acc. 114, 283 (2005)

----- AuxC basis set information -----
Your calculation utilizes the auxiliary basis: cc-pVTZ/C 
  Obtained from the EMSL Basis Set Exchange (bse.pnl.gov) Feb. 2017
  H-He, B-F, Al-Ar, Ga-Kr : F. Weigend, A. Kohn, C. Hattig, J. Chem. Phys. 116, 3175 (2002)
             Li-Be, Na-Mg : C. Haettig, Phys. Chem. Chem. Phys. 7, 59 (2005)
                       Ne : C. Haettig, Phys. Chem. Chem. Phys. 7, 59 (2005)
                            F. Weigend, A. Kohn, C. Hattig, J. Chem. Phys. 116, 3175 (2002)
                    Sc-Zn : J. G. Hill, J. A. Platts, J. Chem. Phys. 128, 044104 (2008)

================================================================================
                                        WARNINGS
                       Please study these warnings very carefully!
================================================================================


WARNING: Post HF methods need fully converged wavefunctions
  ===> : Setting SCFConvForced true
         You can overwrite this default with %scf ConvForced false 


WARNING: MDCI localization with Augmented Hessian Foster-Boys
  ===> : Switching off randomization!

INFO   : the flag for use of the SHARK integral package has been found!

================================================================================
                                       INPUT FILE
================================================================================
NAME = H2O_dlpno_ccsdt.inp
|  1> ! cc-pVTZ cc-pVTZ/C DLPNO-CCSD(T) TightSCF TightPNO
|  2> %mdci
|  3>      density none
|  4> end
|  5> %maxcore 1000
|  6>  
|  7> * xyz 0 1
|  8> O   0.0000   0.0000   0.0626
|  9> H  -0.7920   0.0000  -0.4973
| 10> H   0.7920   0.0000  -0.4973
| 11> *
| 12> 
| 13> 
| 14> 
| 15>                          ****END OF INPUT****
================================================================================

                       ****************************
                       * Single Point Calculation *
                       ****************************

---------------------------------
CARTESIAN COORDINATES (ANGSTROEM)
---------------------------------
  O      0.000000    0.000000    0.062600
  H     -0.792000    0.000000   -0.497300
  H      0.792000    0.000000   -0.497300

----------------------------
CARTESIAN COORDINATES (A.U.)
----------------------------
  NO LB      ZA    FRAG     MASS         X           Y           Z
   0 O     8.0000    0    15.999    0.000000    0.000000    0.118297
   1 H     1.0000    0     1.008   -1.496663    0.000000   -0.939761
   2 H     1.0000    0     1.008    1.496663    0.000000   -0.939761

--------------------------------
INTERNAL COORDINATES (ANGSTROEM)
--------------------------------
 O      0   0   0     0.000000000000     0.00000000     0.00000000
 H      1   0   0     0.969923713495     0.00000000     0.00000000
 H      1   2   0     0.969923713495   109.48362320     0.00000000

---------------------------
INTERNAL COORDINATES (A.U.)
---------------------------
 O      0   0   0     0.000000000000     0.00000000     0.00000000
 H      1   0   0     1.832890189302     0.00000000     0.00000000
 H      1   2   0     1.832890189302   109.48362320     0.00000000

---------------------
BASIS SET INFORMATION
---------------------
There are 2 groups of distinct atoms

 Group   1 Type O   : 18s5p2d1f contracted to 4s3p2d1f pattern {8811/311/11/1}
 Group   2 Type H   : 5s2p1d contracted to 3s2p1d pattern {311/11/1}

Atom   0O    basis set group =>   1
Atom   1H    basis set group =>   2
Atom   2H    basis set group =>   2
---------------------------------
AUXILIARY/C BASIS SET INFORMATION
---------------------------------
There are 2 groups of distinct atoms

 Group   1 Type O   : 8s6p5d3f1g contracted to 8s6p5d3f1g pattern {11111111/111111/11111/111/1}
 Group   2 Type H   : 4s3p2d1f contracted to 4s3p2d1f pattern {1111/111/11/1}

Atom   0O    basis set group =>   1
Atom   1H    basis set group =>   2
Atom   2H    basis set group =>   2
------------------------------------------------------------------------------
                           ORCA GTO INTEGRAL CALCULATION
------------------------------------------------------------------------------
------------------------------------------------------------------------------
                   ___                                                        
                  /   \      - P O W E R E D   B Y -                         
                 /     \                                                     
                 |  |  |   _    _      __       _____    __    __             
                 |  |  |  | |  | |    /  \     |  _  \  |  |  /  |          
                  \  \/   | |  | |   /    \    | | | |  |  | /  /          
                 / \  \   | |__| |  /  /\  \   | |_| |  |  |/  /          
                |  |  |   |  __  | /  /__\  \  |    /   |      \           
                |  |  |   | |  | | |   __   |  |    \   |  |\   \          
                \     /   | |  | | |  |  |  |  | |\  \  |  | \   \       
                 \___/    |_|  |_| |__|  |__|  |_| \__\ |__|  \__/        
                                                                              
                      - O R C A' S   B I G   F R I E N D -                    
                                      &                                       
                       - I N T E G R A L  F E E D E R -                       
                                                                              
 v1 FN, 2020, v2 2021                                                         
------------------------------------------------------------------------------


Reading SHARK input file H2O_dlpno_ccsdt.SHARKINP.tmp ... ok
----------------------
SHARK INTEGRAL PACKAGE
----------------------

Number of atoms                             ...      3
Number of basis functions                   ...     64
Number of shells                            ...     28
Maximum angular momentum                    ...      3
Integral batch strategy                     ... SHARK/LIBINT Hybrid
RI-J (if used) integral strategy            ... SPLIT-RIJ (Revised 2003 algorithm where possible)
Printlevel                                  ...      1
Contraction scheme used                     ... PARTIAL GENERAL contraction
Coulomb Range Separation                    ... NOT USED
Exchange Range Separation                   ... NOT USED
Finite Nucleus Model                        ... NOT USED
Auxiliary Coulomb fitting basis             ... NOT available
Auxiliary J/K fitting basis                 ... NOT available
Auxiliary Correlation fitting basis         ... AVAILABLE
   # of basis functions in Aux-C            ...    141
   # of shells in Aux-C                     ...     43
   Maximum angular momentum in Aux-C        ...      4
Auxiliary 'external' fitting basis          ... NOT available
Integral threshold                          ...     2.500000e-11
Primitive cut-off                           ...     2.500000e-12
Primitive pair pre-selection threshold      ...     2.500000e-12

Calculating pre-screening integrals         ... done (  0.0 sec) Dimension = 28
Calculating pre-screening integrals (ORCA)  ... done (  0.0 sec) Dimension = 22
Organizing shell pair data                  ... done (  0.0 sec)
Shell pair information
Total number of shell pairs                 ...       406
Shell pairs after pre-screening             ...       406
Total number of primitive shell pairs       ...       604
Primitive shell pairs kept                  ...       587
          la=0 lb=0:    136 shell pairs
          la=1 lb=0:    112 shell pairs
          la=1 lb=1:     28 shell pairs
          la=2 lb=0:     64 shell pairs
          la=2 lb=1:     28 shell pairs
          la=2 lb=2:     10 shell pairs
          la=3 lb=0:     16 shell pairs
          la=3 lb=1:      7 shell pairs
          la=3 lb=2:      4 shell pairs
          la=3 lb=3:      1 shell pairs

Calculating one electron integrals          ... done (  0.0 sec)
Calculating RI/C V-Matrix + Cholesky decomp.... done (  0.0 sec)
Calculating Nuclear repulsion               ... done (  0.0 sec) ENN=      9.063459269773 Eh

SHARK setup successfully completed in   0.2 seconds

Maximum memory used throughout the entire GTOINT-calculation: 17.4 MB
-------------------------------------------------------------------------------
                                 ORCA SCF
-------------------------------------------------------------------------------

------------
SCF SETTINGS
------------
Hamiltonian:
 Ab initio Hamiltonian  Method          .... Hartree-Fock(GTOs)


General Settings:
 Integral files         IntName         .... H2O_dlpno_ccsdt
 Hartree-Fock type      HFTyp           .... RHF
 Total Charge           Charge          ....    0
 Multiplicity           Mult            ....    1
 Number of Electrons    NEL             ....   10
 Basis Dimension        Dim             ....   58
 Nuclear Repulsion      ENuc            ....      9.0634592698 Eh

Convergence Acceleration:
 DIIS                   CNVDIIS         .... on
   Start iteration      DIISMaxIt       ....    12
   Startup error        DIISStart       ....  0.200000
   # of expansion vecs  DIISMaxEq       ....     5
   Bias factor          DIISBfac        ....   1.050
   Max. coefficient     DIISMaxC        ....  10.000
 Trust-Rad. Augm. Hess. CNVTRAH         .... auto
   Auto Start mean grad. ratio tolernc. ....  1.125000
   Auto Start start iteration           ....    20
   Auto Start num. interpolation iter.  ....    10
   Max. Number of Micro iterations      ....    16
   Max. Number of Macro iterations      .... Maxiter - #DIIS iter
   Number of Davidson start vectors     ....     2
   Converg. threshold I  (grad. norm)   ....   1.000e-05
   Converg. threshold II (energy diff.) ....   1.000e-08
   Grad. Scal. Fac. for Micro threshold ....   0.100
   Minimum threshold for Micro iter.    ....   0.010
   NR start threshold (gradient norm)   ....   0.001
   Initial trust radius                 ....   0.400
   Minimum AH scaling param. (alpha)    ....   1.000
   Maximum AH scaling param. (alpha)    .... 1000.000
   Orbital update algorithm             .... Taylor
   White noise on init. David. guess    .... on
   Maximum white noise                  ....   0.010
   Quad. conv. algorithm                .... NR
 SOSCF                  CNVSOSCF        .... on
   Start iteration      SOSCFMaxIt      ....   150
   Startup grad/error   SOSCFStart      ....  0.003300
 Level Shifting         CNVShift        .... on
   Level shift para.    LevelShift      ....    0.2500
   Turn off err/grad.   ShiftErr        ....    0.0010
 Zerner damping         CNVZerner       .... off
 Static damping         CNVDamp         .... on
   Fraction old density DampFac         ....    0.7000
   Max. Damping (<1)    DampMax         ....    0.9800
   Min. Damping (>=0)   DampMin         ....    0.0000
   Turn off err/grad.   DampErr         ....    0.1000
 Fernandez-Rico         CNVRico         .... off

SCF Procedure:
 Maximum # iterations   MaxIter         ....   125
 SCF integral mode      SCFMode         .... Direct
   Integral package                     .... SHARK and LIBINT hybrid scheme
 Reset frequency        DirectResetFreq ....    20
 Integral Threshold     Thresh          ....  2.500e-11 Eh
 Primitive CutOff       TCut            ....  2.500e-12 Eh

Convergence Tolerance:
 Convergence Check Mode ConvCheckMode   .... Total+1el-Energy
 Convergence forced     ConvForced      .... 1
 Energy Change          TolE            ....  1.000e-08 Eh
 1-El. energy change                    ....  1.000e-05 Eh
 Orbital Gradient       TolG            ....  1.000e-05
 Orbital Rotation angle TolX            ....  1.000e-05
 DIIS Error             TolErr          ....  5.000e-07


Diagonalization of the overlap matrix:
Smallest eigenvalue                        ... 2.550e-03
Time for diagonalization                   ...    0.001 sec
Threshold for overlap eigenvalues          ... 1.000e-08
Number of eigenvalues below threshold      ... 0
Time for construction of square roots      ...    0.001 sec
Total time needed                          ...    0.002 sec

Time for model grid setup =    0.019 sec

------------------------------
INITIAL GUESS: MODEL POTENTIAL
------------------------------
Loading Hartree-Fock densities                     ... done
Calculating cut-offs                               ... done
Initializing the effective Hamiltonian             ... done
Setting up the integral package (SHARK)            ... done
Starting the Coulomb interaction                   ... done (   0.0 sec)
Reading the grid                                   ... done
Mapping shells                                     ... done
Starting the XC term evaluation                    ... done (   0.0 sec)
Transforming the Hamiltonian                       ... done (   0.0 sec)
Diagonalizing the Hamiltonian                      ... done (   0.0 sec)
Back transforming the eigenvectors                 ... done (   0.0 sec)
Now organizing SCF variables                       ... done
                      ------------------
                      INITIAL GUESS DONE (   0.0 sec)
                      ------------------
--------------
SCF ITERATIONS
--------------
ITER       Energy         Delta-E        Max-DP      RMS-DP      [F,P]     Damp
               ***  Starting incremental Fock matrix formation  ***
  0    -75.9515029596   0.000000000000 0.03452294  0.00167986  0.3912117 0.7000
  1    -75.9927115790  -0.041208619439 0.02369848  0.00114951  0.2318257 0.7000
                               ***Turning on DIIS***
  2    -76.0142865520  -0.021574972964 0.01144955  0.00063334  0.1264476 0.7000
  3    -76.1804649501  -0.166178398110 0.02676541  0.00099871  0.0848700 0.0000
  4    -76.0368112003   0.143653749787 0.00554712  0.00023521  0.0143823 0.0000
  5    -76.0583875528  -0.021576352472 0.00160228  0.00010357  0.0034097 0.0000
                      *** Initiating the SOSCF procedure ***
                           *** Shutting down DIIS ***
                      *** Re-Reading the Fockian *** 
                      *** Removing any level shift *** 
ITER      Energy       Delta-E        Grad      Rot      Max-DP    RMS-DP
  6    -76.05576016   0.0026273919  0.000916  0.000916  0.001116  0.000060
               *** Restarting incremental Fock matrix formation ***
  7    -76.05547542   0.0002847405  0.000280  0.000395  0.000619  0.000023
  8    -76.05547594  -0.0000005178  0.000114  0.000294  0.000349  0.000015
  9    -76.05547606  -0.0000001234  0.000026  0.000021  0.000029  0.000001
 10    -76.05547606  -0.0000000019  0.000010  0.000006  0.000017  0.000001
                  ***Gradient check signals convergence***
              ***Rediagonalizing the Fockian in SOSCF/NRSCF***

               *****************************************************
               *                     SUCCESS                       *
               *           SCF CONVERGED AFTER  11 CYCLES          *
               *****************************************************


----------------
TOTAL SCF ENERGY
----------------

Total Energy       :          -76.05547606 Eh           -2069.57472 eV

Components:
Nuclear Repulsion  :            9.06345927 Eh             246.62927 eV
Electronic Energy  :          -85.11893533 Eh           -2316.20398 eV
One Electron Energy:         -122.89991557 Eh           -3344.27672 eV
Two Electron Energy:           37.78098024 Eh            1028.07274 eV

Virial components:
Potential Energy   :         -152.00343293 Eh           -4136.22369 eV
Kinetic Energy     :           75.94795686 Eh            2066.64897 eV
Virial Ratio       :            2.00141570


---------------
SCF CONVERGENCE
---------------

  Last Energy change         ...   -5.9734e-10  Tolerance :   1.0000e-08
  Last MAX-Density change    ...    4.7555e-06  Tolerance :   1.0000e-07
  Last RMS-Density change    ...    1.7106e-07  Tolerance :   5.0000e-09
  Last Orbital Gradient      ...    1.4487e-06  Tolerance :   1.0000e-05
  Last Orbital Rotation      ...    1.7604e-06  Tolerance :   1.0000e-05

             **** THE GBW FILE WAS UPDATED (H2O_dlpno_ccsdt.gbw) ****
             **** DENSITY H2O_dlpno_ccsdt.scfp WAS UPDATED ****
             **** ENERGY FILE WAS UPDATED (H2O_dlpno_ccsdt.en.tmp) ****
             **** THE GBW FILE WAS UPDATED (H2O_dlpno_ccsdt.gbw) ****
             **** DENSITY H2O_dlpno_ccsdt.scfp WAS UPDATED ****
----------------
ORBITAL ENERGIES
----------------

  NO   OCC          E(Eh)            E(eV) 
   0   2.0000     -20.554351      -559.3123 
   1   2.0000      -1.335565       -36.3426 
   2   2.0000      -0.711796       -19.3690 
   3   2.0000      -0.565551       -15.3894 
   4   2.0000      -0.501719       -13.6525 
   5   0.0000       0.141611         3.8534 
   6   0.0000       0.201901         5.4940 
   7   0.0000       0.548083        14.9141 
   8   0.0000       0.576320        15.6825 
   9   0.0000       0.675374        18.3779 
  10   0.0000       0.788284        21.4503 
  11   0.0000       0.801813        21.8185 
  12   0.0000       0.826397        22.4874 
  13   0.0000       0.848208        23.0809 
  14   0.0000       0.974761        26.5246 
  15   0.0000       1.135569        30.9004 
  16   0.0000       1.175452        31.9857 
  17   0.0000       1.528495        41.5925 
  18   0.0000       1.536413        41.8079 
  19   0.0000       2.007521        54.6274 
  20   0.0000       2.072243        56.3886 
  21   0.0000       2.075110        56.4666 
  22   0.0000       2.147925        58.4480 
  23   0.0000       2.243424        61.0467 
  24   0.0000       2.625765        71.4507 
  25   0.0000       2.936199        79.8980 
  26   0.0000       3.398688        92.4830 
  27   0.0000       3.506786        95.4245 
  28   0.0000       3.534309        96.1734 
  29   0.0000       3.605090        98.0995 
  30   0.0000       3.796267       103.3017 
  31   0.0000       3.871636       105.3526 
  32   0.0000       3.876731       105.4912 
  33   0.0000       3.938502       107.1721 
  34   0.0000       4.031205       109.6947 
  35   0.0000       4.087931       111.2383 
  36   0.0000       4.168167       113.4216 
  37   0.0000       4.324473       117.6749 
  38   0.0000       4.422309       120.3371 
  39   0.0000       4.471100       121.6648 
  40   0.0000       4.676931       127.2658 
  41   0.0000       4.841576       131.7460 
  42   0.0000       5.076960       138.1511 
  43   0.0000       5.251945       142.9127 
  44   0.0000       5.543845       150.8557 
  45   0.0000       5.997028       163.1874 
  46   0.0000       6.439253       175.2210 
  47   0.0000       6.905881       187.9186 
  48   0.0000       6.927831       188.5159 
  49   0.0000       6.977430       189.8655 
  50   0.0000       6.991967       190.2611 
  51   0.0000       7.120560       193.7603 
  52   0.0000       7.128154       193.9669 
  53   0.0000       7.193918       195.7565 
  54   0.0000       7.485531       203.6917 
  55   0.0000       7.731516       210.3852 
  56   0.0000       8.198929       223.1042 
  57   0.0000      12.697915       345.5278 

                    ********************************
                    * MULLIKEN POPULATION ANALYSIS *
                    ********************************

-----------------------
MULLIKEN ATOMIC CHARGES
-----------------------
   0 O :   -0.503589
   1 H :    0.251794
   2 H :    0.251794
Sum of atomic charges:    0.0000000

--------------------------------
MULLIKEN REDUCED ORBITAL CHARGES
--------------------------------
  0 O s       :     3.776488  s :     3.776488
      pz      :     1.588888  p :     4.707746
      px      :     1.192298
      py      :     1.926560
      dz2     :     0.001738  d :     0.018381
      dxz     :     0.012215
      dyz     :     0.001703
      dx2y2   :     0.002724
      dxy     :     0.000000
      f0      :     0.000036  f :     0.000974
      f+1     :    -0.000001
      f-1     :     0.000010
      f+2     :     0.000510
      f-2     :     0.000000
      f+3     :     0.000298
      f-3     :     0.000121
  1 H s       :     0.661701  s :     0.661701
      pz      :     0.026803  p :     0.079662
      px      :     0.019946
      py      :     0.032914
      dz2     :     0.001114  d :     0.006843
      dxz     :     0.001898
      dyz     :     0.000891
      dx2y2   :     0.000942
      dxy     :     0.001998
  2 H s       :     0.661701  s :     0.661701
      pz      :     0.026803  p :     0.079662
      px      :     0.019946
      py      :     0.032914
      dz2     :     0.001114  d :     0.006843
      dxz     :     0.001898
      dyz     :     0.000891
      dx2y2   :     0.000942
      dxy     :     0.001998


                     *******************************
                     * LOEWDIN POPULATION ANALYSIS *
                     *******************************

----------------------
LOEWDIN ATOMIC CHARGES
----------------------
   0 O :    0.337740
   1 H :   -0.168870
   2 H :   -0.168870

-------------------------------
LOEWDIN REDUCED ORBITAL CHARGES
-------------------------------
  0 O s       :     3.180361  s :     3.180361
      pz      :     1.527926  p :     4.441397
      px      :     1.214574
      py      :     1.698897
      dz2     :     0.000660  d :     0.037811
      dxz     :     0.026448
      dyz     :     0.000565
      dx2y2   :     0.010137
      dxy     :    -0.000000
      f0      :     0.000462  f :     0.002691
      f+1     :     0.000781
      f-1     :     0.000032
      f+2     :     0.000763
      f-2     :    -0.000000
      f+3     :     0.000189
      f-3     :     0.000464
  1 H s       :     0.716763  s :     0.716763
      pz      :     0.128072  p :     0.355457
      px      :     0.114391
      py      :     0.112994
      dz2     :     0.017850  d :     0.096650
      dxz     :     0.027035
      dyz     :     0.011832
      dx2y2   :     0.014739
      dxy     :     0.025194
  2 H s       :     0.716763  s :     0.716763
      pz      :     0.128072  p :     0.355457
      px      :     0.114391
      py      :     0.112994
      dz2     :     0.017850  d :     0.096650
      dxz     :     0.027035
      dyz     :     0.011832
      dx2y2   :     0.014739
      dxy     :     0.025194


                      *****************************
                      * MAYER POPULATION ANALYSIS *
                      *****************************

  NA   - Mulliken gross atomic population
  ZA   - Total nuclear charge
  QA   - Mulliken gross atomic charge
  VA   - Mayer's total valence
  BVA  - Mayer's bonded valence
  FA   - Mayer's free valence

  ATOM       NA         ZA         QA         VA         BVA        FA
  0 O      8.5036     8.0000    -0.5036     1.9683     1.9683    -0.0000
  1 H      0.7482     1.0000     0.2518     1.0001     1.0001     0.0000
  2 H      0.7482     1.0000     0.2518     1.0001     1.0001    -0.0000

  Mayer bond orders larger than 0.100000
B(  0-O ,  1-H ) :   0.9841 B(  0-O ,  2-H ) :   0.9841 

-------
TIMINGS
-------

Total SCF time: 0 days 0 hours 0 min 1 sec 

Total time                  ....       1.002 sec
Sum of individual times     ....       0.783 sec  ( 78.1%)

Fock matrix formation       ....       0.720 sec  ( 71.8%)
Diagonalization             ....       0.004 sec  (  0.4%)
Density matrix formation    ....       0.000 sec  (  0.0%)
Population analysis         ....       0.008 sec  (  0.8%)
Initial guess               ....       0.026 sec  (  2.6%)
Orbital Transformation      ....       0.000 sec  (  0.0%)
Orbital Orthonormalization  ....       0.000 sec  (  0.0%)
DIIS solution               ....       0.004 sec  (  0.4%)
SOSCF solution              ....       0.002 sec  (  0.2%)

Maximum memory used throughout the entire SCF-calculation: 229.7 MB


--------------------------------------------------------------------------------
                             ORCA-MATRIX DRIVEN CI
--------------------------------------------------------------------------------


Wavefunction type
-----------------
Correlation treatment                      ...      CCSD     
Single excitations                         ... ON
Orbital optimization                       ... OFF
Calculation of Z vector                    ... OFF
Calculation of Brueckner orbitals          ... OFF
Perturbative triple excitations            ... ON
Calculation of F12 correction              ... OFF
Frozen core treatment                      ... chemical core (2 el)
Reference Wavefunction                     ... RHF
  Internal Orbitals:     1 ...    4 (  4 MO's/  8 electrons)
  Virtual  Orbitals:     5 ...   57 ( 53 MO's              )
Number of AO's                             ...     58
Number of electrons                        ...     10
Number of correlated electrons             ...      8

Algorithmic settings
--------------------
Integral transformation                    ... All integrals via the RI transformation
K(C) Formation                             ... RI-DLPNO
   PNO-Integral Storage                    ... ON DISK
   PNO occupation number cut-off           ... 1.000e-07
   Singles PNO occupation number cut-off   ... 3.000e-09
   PNO Mulliken prescreening cut-off       ... 1.000e-03
   Domain cut-off (Mulliken population)    ... 1.000e-03
   PNO Normalization                       ...    1
Maximum number of iterations               ...        50
Convergence tolerance (max. residuum)      ... 1.000e-05
Level shift for amplitude update           ... 2.000e-01
Maximum number of DIIS vectors             ...         7
DIIS turned on at iteration                ...         0
Damping before turning on DIIS             ...     0.500
Damping after turning on DIIS              ...     0.000
Pair specific amplitude update             ... OFF
Natural orbital iterations                 ... OFF
Perturbative natural orbital generation    ... OFF
Printlevel                                 ... 2

Singles Fock matrix elements calculated using PNOs.

Memory handling:
----------------
Maximum memory for working arrays          ...   1000 MB
Data storage in matrix containers          ... UNCOMPRESSED
Data type for integral storage             ... DOUBLE
In-Core Storage of quantities:
   Amplitudes+Sigma Vector      ... NO
   J+K operators                ... NO
   DIIS vectors                 ... NO
   3-external integrals         ... NO
   4-external integrals         ... NO

Localization treatment:
-----------------------
Localization option                        ...    6
Localization threshhold                    ... -1.0e+00
Using relative localization threshhold     ... 1.0e-08
Neglect threshold for strong pairs         ... 1.000e-05 Eh
Prescreening threshold for very weak pairs ... 1.000e-07 Eh

Initializing the integral package          ... done
Localizing the valence orbitals
------------------------------------------------------------------------------
                           ORCA ORBITAL LOCALIZATION
------------------------------------------------------------------------------

Input orbitals are from                  ... H2O_dlpno_ccsdt.gbw
Output orbitals are to                   ... H2O_dlpno_ccsdt.loc
Max. number of iterations                ... 128
Localizations seeded randomly            ... off
Convergence tolerance                    ... 1.000e-06
Using relative localization threshhold   ... 1.000e-08
Treshold for strong local MOs            ... 9.500e-01
Treshold for bond MOs                    ... 8.500e-01
Operator                                 ... 0
Orbital range for localization           ... 1 to 4
Localization criterion                   ... FOSTER-BOYS (AUGMENTED HESSIAN)
Doing the dipole integrals     ... o.k.
Initial value of the localization sum :     0.226553
ITERATION   0 : L=    2.3882073609 DL=  2.16e+00 (AVERGE_DL)=    0.6002296896 
ITERATION   1 : L=    2.4625458732 DL=  7.43e-02 (AVERGE_DL)=    0.1113092631 
ITERATION   2 : L=    2.4779860660 DL=  1.54e-02 (AVERGE_DL)=    0.0507283498 
ITERATION   3 : L=    2.4803034055 DL=  2.32e-03 (AVERGE_DL)=    0.0196525637 
ITERATION   4 : L=    2.4805125176 DL=  2.09e-04 (AVERGE_DL)=    0.0059035589 
ITERATION   5 : L=    2.4805357846 DL=  2.33e-05 (AVERGE_DL)=    0.0019692223 
ITERATION   6 : L=    2.4805381818 DL=  2.40e-06 (AVERGE_DL)=    0.0006320821 
ITERATION   7 : L=    2.4805384315 DL=  2.50e-07 (AVERGE_DL)=    0.0002039981 
LOCALIZATION SUM CONVERGED

------------------------------------------------------
AUGMENTED HESSIAN OPTIMIZATION OF FOSTER-BOYS ORBITALS
------------------------------------------------------

Spin operator:           0
Orbital window:          1 to 4
Number of iterations:    128
Gradient tolerance:      1.000e-06
Number of pairs:         6
Davidson threshold:      2000
Diagonalization method:  LAPACK
Iter:    0   L: 2.4805384315   Grad. norm: 3.007826e-04
   *** Likely close to a maximum now. ***
       Augmented Hessian eigenvalues:  5.71e-08 -1.23e+00 -3.28e+00 -4.84e+00 ... 
Iter:    1   L: 2.4805384600   Grad. norm: 2.649777e-08
LOCALIZATION HAS CONVERGED.

Eigenvalues of the Hessian:
  0 -1.230e+00
  1 -3.282e+00
  2 -4.839e+00
  3 -5.319e+00
  4 -7.213e+00
  5 -9.992e+00


--------------------------------------------------------------------------------
                    LOCALIZED MOLECULAR ORBITAL COMPOSITIONS
--------------------------------------------------------------------------------

The Mulliken populations for each LMO on each atom are computed
The LMO`s will be ordered according to atom index and type
  (A) Strongly localized MO`s have populations of >=0.950 on one atom
  (B) Two center bond orbitals have populations of >=0.850 on two atoms
  (C) Other MO`s are considered to be `delocalized`

FOUND  -   2 strongly local MO`s
       -   2 two center bond MO`s
       -   0 significantly delocalized MO`s

Rather strongly localized orbitals:
MO   2:   0O  -   0.991526
MO   1:   0O  -   0.991526
Bond-like localized orbitals:
MO   4:   2H  -   0.372931  and   0O  -   0.634539
MO   3:   1H  -   0.372931  and   0O  -   0.634539
Localized MO's were stored in: H2O_dlpno_ccsdt.loc

Localizing the core orbitals
------------------------------------------------------------------------------
                           ORCA ORBITAL LOCALIZATION
------------------------------------------------------------------------------

Input orbitals are from                  ... H2O_dlpno_ccsdt.loc
Output orbitals are to                   ... H2O_dlpno_ccsdt.loc
Max. number of iterations                ... 128
Localizations seeded randomly            ... off
Convergence tolerance                    ... 1.000e-06
Using relative localization threshhold   ... 1.000e-08
Treshold for strong local MOs            ... 9.500e-01
Treshold for bond MOs                    ... 8.500e-01
Operator                                 ... 0
Orbital range for localization           ... 0 to 0
Localization criterion                   ... FOSTER-BOYS (AUGMENTED HESSIAN)
Doing the dipole integrals     ... o.k.

ORCA_LOC: ONLY ONE ORBITAL - SKIPPING LOCALIZATION


--------------------------------------------------------------------------------
                    LOCALIZED MOLECULAR ORBITAL COMPOSITIONS
--------------------------------------------------------------------------------

The Mulliken populations for each LMO on each atom are computed
The LMO`s will be ordered according to atom index and type
  (A) Strongly localized MO`s have populations of >=0.950 on one atom
  (B) Two center bond orbitals have populations of >=0.850 on two atoms
  (C) Other MO`s are considered to be `delocalized`

FOUND  -   1 strongly local MO`s
       -   0 two center bond MO`s
       -   0 significantly delocalized MO`s

Rather strongly localized orbitals:
MO   0:   0O  -   0.999665
Localized MO's were stored in: H2O_dlpno_ccsdt.loc

Warning: reference  - re-canonicalizations have been set to INT 1 VIRT 1
Warning: internal orbitals are localized - no re-canonicalization of internal orbitals
Warning: UsePNO is turned on - no re-canonicalization of internal and virtual orbitals

--------------------------
CLOSED-SHELL FOCK OPERATOR
--------------------------

Restoring SHARK [2] ... ok
Time needed for Fock operator              ...            0.110 sec
Reference energy                           ...    -76.055476064

--------------
DLPNO SETTINGS (2015 fully linear scaling implementation)
--------------

TCutMKN:           1.000e-03
TCutPAO:           1.000e-03
TCutPNO:           1.000e-07
TCutPNOSingles:    3.000e-09
TCutEN:            9.700e-01
TCutPAOExt:        1.000e-01
TCutPairs:         1.000e-05
TCutPre:           1.000e-07
TCutOSV:           1.000e-06
TCutDOij:          1.000e-05
TCutDO:            5.000e-03
TCutC:             1.000e-04
TCutCPAO:          1.000e-03
TCutCMO:           1.000e-03
TScaleDOMP2PreScr: 2.000e+00
TScaleMKNMP2PreScr:1.000e+01
TScalePNOMP2PreScr:1.000e+00
PAO overlap thresh 1.000e-08
Using PNOs for Singles Fock computation
Use new domains
Use fully linear algorithm
TCutTNO:           1.000e-09
TCutMP2Pairs:      1.000e-06
TCutDOStrong:      2.000e-03
TCutMKNStrong:     1.000e-02
TCutMKNWeak:       1.000e-01
TCutDOWeak:        4.000e-03
NTCutTNO:          1

--------------------------
Mulliken population of the LMOs            ... ok
Performing proximity check                 ... No problems found
Calculating differential overlap integrals ... ok

--------------------------
ELECTRON PAIR PRESCREENING
--------------------------

Dipole-based pair screening          .... used

   TCutDOij = 1.000000e-05
   TCutPre  = 1.000000e-07
   .... Finished loop over pairs
Total time spent in the prescreening                  ...     0.000 sec
sum of pair energies estimated for screened out pairs ...       0.000000000000 Eh
Thresholds for map construction and integral transformation for crude MP2:
   TCutMKN                    ...     1.0e-02
   TCutDO                     ...     1.0e-02
   TCutPairs                  ...     1.0e-05
   TCutPNO_CrudeMP2           ...     1.0e-07
   TCutPNOSingles_CrudeMP2    ...     3.0e-09
--------------------------------
LOCAL RI TRANSFORMATION (IAVPAO)
--------------------------------

Orbital window:       1 to 4
Number of PAOs:      58
Basis functions:     58 (22 shells)
Aux. functions:     141 (43 shells)
Use SHARK:           on

Processing maps (0.0 sec)
Average map sizes:
   Aux shells -> MOs               4.0
   Aux shells -> PAOs             58.0
   MOs        -> AO shells        22.0
   PAOs       -> AO shells        22.0

Calculating integrals (0.1 sec, 0.251 MB)
Sorting integrals (0.0 sec, 0.250 MB)
Total time for the integral transformation: 0.1 sec
--------------------------------
INITIAL GUESS AND PNO GENERATION
--------------------------------

PNO truncation parameters                   .... 
    PAOOverlapThresh   =        1.000e-08

    TCutPairs          =        1.000e-05
    TCutPNO            =        1.000e-07
    TCutPNOSingles     =        3.000e-09
    TCutMP2Pairs       =        1.000e-06
    TCutMKN            =        1.000e-02
    TCutDO             =        1.000e-02

Pair selection                          .... not used
Type of local MP2 treatment                 .... semi-local MP2
Strategy for PNO selection                  .... occupation number selection
Pair density normalization                  .... MP2 norm
Spin component scaling                      .... not used

   .... Finished loop over pairs
Making pair pair interaction lists          ... done

                       ===========================
                         10 OF   10 PAIRS ARE KEPT CCSD PAIRS
                          0 OF   10 PAIRS ARE KEPT MP2 PAIRS FOR (T)
                          0 OF   10 PAIRS ARE SKIPPED
                       ===========================

Total time spent in the initial guess                 ...     0.026 sec
SL-MP2 correlation energy (all non-screened pairs)    ...      -0.254455633671 Eh

Initial PNO correlation energy                        ...      -0.254440865322 Eh
sum of pair energies prescreened and skipped MP2 pairs...       0.000000000000 Eh
sum of pair energies of crude MP2 skipped pairs only  ...       0.000000000000 Eh
sum of MP2 pair energies for pairs that were not kept ...       0.000000000000 Eh
sum of PNO error estimates for the kept pairs         ...      -0.000014768349 Eh
                                                          --------------------
sum of all corrections                                         -0.000014768349
Initial total correlation energy                               -0.254455633671
Thresholds for map construction and integral transformation for fine MP2 and CCSD(T) calculation:
   TCutMKN   ...     1.0e-03
   TCutDO    ...     5.0e-03
   TCutPairs ...     1.0e-05
   TCutCMO   ...     1.0e-03
   TCutCPAO  ...     1.0e-03

Thresholds for map construction and integral transformation for strong Triples:
   TCutMKN   ...     1.0e-02
   TCutDO    ...     1.0e-02
   TCutCMO   ...     1.0e-03
   TCutCPAO  ...     1.0e-03

Thresholds for map construction and integral transformation for weak Triples:
   TCutMKN   ...     1.0e-01
   TCutDO    ...     2.0e-02
   TCutCMO   ...     1.0e-03
   TCutCPAO  ...     1.0e-03

--------------------------------
LOCAL RI TRANSFORMATION (IAVPAO)
--------------------------------

Orbital window:       1 to 4
Number of PAOs:      58
Basis functions:     58 (22 shells)
Aux. functions:     141 (43 shells)
Use SHARK:           on

Processing maps (0.0 sec)
Average map sizes:
   Aux shells -> MOs               4.0
   Aux shells -> PAOs             58.0
   MOs        -> AO shells        22.0
   PAOs       -> AO shells        22.0

Calculating integrals (0.1 sec, 0.251 MB)
Sorting integrals (0.0 sec, 0.250 MB)
Total time for the integral transformation: 0.1 sec
--------------------------------
INITIAL GUESS AND PNO GENERATION
--------------------------------

PNO truncation parameters                   .... 
    ScaleTCutPNO       =        1.000e-02
    PAOOverlapThresh   =        1.000e-08

    TCutPairs          =        1.000e-05
    TCutPNO            =        1.000e-07
    TCutPNOSingles     =        3.000e-09
    TCutMP2Pairs       =        1.000e-06
    TCutMKN            =        1.000e-03
    TCutDO             =        5.000e-03

Pair selection                          .... not used
Type of local MP2 treatment                 .... full local PMP2
Strategy for PNO selection                  .... occupation number selection
Pair density normalization                  .... MP2 norm
Spin component scaling                      .... not used

PASS-1: Formation of initial guess LMP2 amplitudes
Initial amplitudes guess done. Entering LMP2 iteration loop:
   Max. no of iterations          ...  50
   Energy convergence tolerance   ...    1.0e-07
   Residual convergence tolerance ...    5.0e-07
   Fock matrix cutoff             ...    1.0e-05 Eh
   DIIS convergence acceleration parameters:
        Max # vectors in DIIS     ... 7
        Start iteration of DIIS   ... 0
        Levelshift                ... 2.000e-01
        Damping factor 1          ... 5.000e-01
        Damping factor 2          ... 1.000e+00
   L-MP2 PNO cut-off              ...   1.0e-09
   L-MP2 PNO cut-off (core)       ...   1.0e-11
                           *** Turning on DIIS ***
LMP2-Iter=   0:  ELMP2= -0.259071709804  DE=   4.6e-03 RMAX=   9.4e-03
LMP2-Iter=   1:  ELMP2= -0.261561524025  DE=   2.5e-03 RMAX=   2.0e-03
LMP2-Iter=   2:  ELMP2= -0.261902306623  DE=   3.4e-04 RMAX=   5.3e-04
LMP2-Iter=   3:  ELMP2= -0.261942950107  DE=   4.1e-05 RMAX=   1.7e-04
LMP2-Iter=   4:  ELMP2= -0.261946435422  DE=   3.5e-06 RMAX=   2.5e-05
LMP2-Iter=   5:  ELMP2= -0.261946340412  DE=   9.5e-08 RMAX=   7.3e-06
LMP2-Iter=   6:  ELMP2= -0.261946303321  DE=   3.7e-08 RMAX=   6.3e-07
LMP2-Iter=   7:  ELMP2= -0.261946297155  DE=   6.2e-09 RMAX=   2.3e-07
LMP2-Iter=   8:  ELMP2= -0.261946298587  DE=   1.4e-09 RMAX=   2.4e-08 => CONVERGED
PASS-2: Formation of Pair natural orbitals
   .... Finished loop over pairs

 PNO Occupation Number Statistics: 
  | Av. % of trace(Dij) retained        ...  99.997785077777
  | sigma^2 in % of trace(Dij) retained ...   6.81e-07
  | Av. % of trace(Di) retained         ...  99.999976916563
  | sigma^2 in % of trace(Di) retained  ...   5.33e-10
 Distributions of % trace(Dij) recovered:
  |       >= 99.9  ...    10 (100.0 % of all pairs)
 Distributions of % trace(Di) recovered :
  |       >= 99.9  ...     4 (100.0 % of all I-pairs )

Making pair pair interaction lists          ... done

                       ===========================
                         10 OF   10 PAIRS ARE KEPT
                       ===========================

Total time spent in the initial guess                 ...     0.353 sec
L-MP2 correlation energy (all non-screened pairs)     ...      -0.261946298587 Eh
L-MP2 PNO error correction                            ...       0.000000000000 Eh
                                                          --------------------
Initial total L-MP2 energy (non-screened pairs)       ...      -0.261946298587 Eh

Initial PNO correlation energy                        ...      -0.261928476870 Eh
sum of pair energies estimated for screened out pairs ...       0.000000000000 Eh
sum of MP2 pair energies for pairs that were not kept ...       0.000000000000 Eh
sum of PNO error estimates for the kept pairs         ...      -0.000017821717 Eh
                                                          --------------------
sum of all corrections                                         -0.000017821717
Initial total correlation energy                               -0.261946298587
Thresholds for map construction and integral transformation for fine MP2 and CCSD(T) calculation:
   TCutMKN   ...     1.0e-03
   TCutDO    ...     5.0e-03
   TCutPairs ...     1.0e-05
   TCutCMO   ...     1.0e-03
   TCutCPAO  ...     1.0e-03

Time for aux screen maps:            0.000
Time for maps after fine MP2:            0.000
-----------------------------
LOCAL RI TRANSFORMATION (IJV)
-----------------------------

Orbital window:       1 to 4
Basis functions:     58 (22 shells)
Aux. functions:     141 (43 shells)
Use SHARK:           on

Processing maps (0.0 sec)
Average map sizes:
   Aux shells -> MOs(i)            4.0
   Aux shells -> MOs(j)            4.0
   MOs        -> AO shells        22.0

Calculating integrals (0.1 sec, 0.019 MB)
Sorting integrals (0.0 sec, 0.017 MB)
Total time for the integral transformation: 0.1 sec
--------------------------------
LOCAL RI TRANSFORMATION (VABPAO)
--------------------------------

Number of PAOs:      58
Basis functions:     58 (22 shells)
Aux. functions:     141 (43 shells)
Use SHARK:           on

Processing maps (0.0 sec)
Average map sizes:
   Aux shells -> PAOs             58.0
   PAOs       -> AO shells        22.0

Calculating integrals (0.1 sec, 3.620 MB)
Finished


-------------------------------------
Pair Pair Term precalculation with     
RI-(ij|mn) and (im|jn) transformation  
ON THE FLY                             
-------------------------------------

   IBatch   1 (of   1)              ... done (    0.356 sec)
Total EXT                           ...           0.356 sec

---------------------
RI-PNO TRANSFORMATION
---------------------

Total Number of PNOs                   ...   457
Average number of PNOs per pair        ...    45
Maximal number of PNOs per pair        ...    51
   #pairs with  1 -  5 PNOs   :    0
   #pairs with  6 - 10 PNOs   :    0
   #pairs with 11 - 15 PNOs   :    0
   #pairs with 16 - 20 PNOs   :    0
   #pairs with 21 - 25 PNOs   :    0
   #pairs with 26 - 30 PNOs   :    0
   #pairs with 31 - 35 PNOs   :    0
   #pairs with 36 - 40 PNOs   :    0
   #pairs with 41 - 45 PNOs   :    5
   #pairs with 46 - 50 PNOs   :    4
   #pairs with 51 - 55 PNOs   :    1

Generation of (ij|ab)[P] integrals            ... on
Generation of (ia|bc)[P],(ja|bc)[P] integrals ... on
Storage of 3 and 4 external integrals         ... on
Generation of ALL (ka|bc)[P] integrals        ... on
Keep RI integrals in memory                   ... off

Ibatch:  1 (of  1)
Starting 2-4 index PNO integral generation ... done

Timings:
Total PNO integral transformation time     ...          0.430 sec
Size of the 3-external file                ...         7 MB
Size of the 4-external file                ...        44 MB
Size of the IKJL file                      ...         0 MB
Size of the all 3-external file            ...        15 MB
Size of the 1-external file                ...         0 MB

Making pair/pair overlap matrices          ... done (    0.012 sec)
Size of the pair overlap file              ... 1 MB
Redoing the guess amplitudes               ... done (    0.000 sec)

-------------------------
FINAL STARTUP INFORMATION
-------------------------

E(0)                                       ...    -76.055476064
E(L-MP2)                                   ...     -0.261946299
E(L-MP2) including corrections             ...     -0.261946299
Initial E(tot)                             ...    -76.317422363
<T|T>                                      ...      0.055454156
Number of pairs included                   ... 10
Total number of pairs                      ... 10

------------------------------------------------
                  RHF COUPLED CLUSTER ITERATIONS
------------------------------------------------

Number of PNO amplitudes to be optimized   ...        20987
Number of non-PNO amplitudes               ...        28090
Untruncated number of regular amplitudes   ...        28090

Iter       E(tot)           E(Corr)          Delta-E          Residual     Time
  0    -76.309942967     -0.254449081      0.007497217      0.014024429    1.59
                           *** Turning on DIIS ***
  1    -76.316560812     -0.261066926     -0.006617845      0.006891176    1.55
  2    -76.322167863     -0.266673977     -0.005607051      0.001966816    1.58
  3    -76.323212375     -0.267718489     -0.001044512      0.000900101    1.61
  4    -76.323449048     -0.267955162     -0.000236673      0.000231791    1.62
  5    -76.323491191     -0.267997305     -0.000042143      0.000150048    1.54
  6    -76.323500243     -0.268006358     -0.000009052      0.000060226    1.62
  7    -76.323500816     -0.268006931     -0.000000573      0.000027574    1.62
  8    -76.323501577     -0.268007691     -0.000000760      0.000007831    1.64
               --- The Coupled-Cluster iterations have converged ---

----------------------
COUPLED CLUSTER ENERGY
----------------------

E(0)                                       ...    -76.055476064
E(CORR)(strong-pairs)                      ...     -0.268007691
E(CORR)(weak-pairs)                        ...     -0.000017822
E(CORR)(corrected)                         ...     -0.268025513
E(TOT)                                     ...    -76.323501577
Singles Norm <S|S>**1/2                    ...      0.018601135  
T1 diagnostic                              ...      0.006576494  

------------------
LARGEST AMPLITUDES
------------------
   3->  7   3->  7       0.033217
   4->  7   4->  7       0.033217
   3->  5   3->  5       0.024835
   4->  5   4->  5       0.024835
   1-> 10   1-> 10       0.023531
   2-> 10   2-> 10       0.023531
   3->  5   3->  7       0.019390
   3->  7   3->  5       0.019390
   4->  5   4->  7       0.019390
   4->  7   4->  5       0.019390
   2->  8   1->  8       0.019310
   4->  8   4->  8       0.018421
   3->  8   3->  8       0.018421
   3-> 15   3->  7       0.018326
   3->  7   3-> 15       0.018326
   4->  7   4-> 15       0.018326


-------------------------------------------
DLPNO BASED TRIPLES CORRECTION
-------------------------------------------

Singles multiplier          ...  1.000000
TCutTNO                     ... 1.000e-09
TCutMP2Pairs                ... 1.000e-06
TCutDOStrong                ... 1.000e-02
TCutMKNStrong               ... 1.000e-02
TCutDOWeak                  ... 2.000e-02
TCutMKNWeak                 ... 1.000e-01

Fragment selection                          .... not used
Fock matrix occ-virt block is zero --> Setting DT_in_Triples to false.
Number of Triples that are to be computed   ...        16

 . . . . . . . . .
10% done  
20% done  
30% done  
40% done  
50% done  
60% done  
70% done  
80% done  
90% done               (      0.287 sec)
Triples timings:
Total time for T0               ...     0.316 sec
Total time for Iterative (T)    ...     0.000 sec
Total time of overall (T)       ...     0.316 sec

Triples List generation         ...     0.000 sec
TNO generation                  ...     0.029 sec
Pair density generation         ...     0.000 sec
Look up tables                  ...     0.000 sec
Generating 3-index integrals    ...     0.076 sec
  Make 4-ind.int. from 3-ind.int...     0.079 sec
  Projecting amplitudes (D + S) ...     0.013 sec
  Downprojecting integrals      ...     0.000 sec
  Energy contr. (sum over a,b,c)...     0.048 sec
Fitting ET(->0)                 ...     0.000 sec

Everything after 3-index        ...     0.211 sec

Timing details:
 TNO integrals                  ...     0.142 sec
   Reading 3-index integrals    ...     0.002 sec
   Sorting integrals            ...     0.050 sec
       Sorting integrals 1      ...     0.000 sec
       Sorting integrals 2      ...     0.007 sec
       Sorting integrals 3      ...     0.002 sec
       Sorting integrals 4      ...     0.000 sec
       Sorting integrals 5      ...     0.000 sec
       Sorting integrals 6      ...     0.039 sec
   Calculating local VM**-1/2   ...     0.004 sec
   Orthogonal. integrals        ...     0.009 sec
   Multipl. 3-index integrals   ...     0.077 sec
   All concerning IRIab (w/TNO) ...     0.021 sec

 Calculate W0/W1                ...     0.067 sec
 W 3-ext contribution           ...     0.027 sec
 W 3-int contribution           ...     0.008 sec
 Sorting W                      ...     0.021 sec

 V exchange contribution        ...     0.019 sec

 Timings for Triples without generation
     of 3-index integrals       ...     0.209 sec
       0 weak pairs             ...     0.209 sec
       1 weak pair              ...     0.000 sec
       2 weak pairs             ...     0.000 sec
       3 weak pairs             ...     0.000 sec
  Extra time for extrapolation  ...     0.000 sec

Number of Triples   (0, 1, 2, 3 weak pairs; overall):     16       0       0       0  (    16)
Number of Atoms     (0, 1, 2, 3 weak pairs; overall):    3.0     0.0     0.0     0.0  (     3)
Number of PAOs      (0, 1, 2, 3 weak pairs; overall):   58.0     0.0     0.0     0.0  (    58)
Number of AuxFcns   (0, 1, 2, 3 weak pairs; overall):  114.8     0.0     0.0     0.0  (   141)
Number of TNOs      (0, 1, 2, 3 weak pairs         ):   53.0     0.0     0.0     0.0
Aver. Number of NTNO, Atoms, PAOs, AuxFcns / Triples:     16    53.0     3.0    58.0   114.8

Triples Correction (T)                     ...     -0.007446077
Final correlation energy                   ...     -0.275471590
E(CCSD)                                    ...    -76.323501577
E(CCSD(T))                                 ...    -76.330947654



--------------------------------------------------------------------------------
                                    TIMINGS
--------------------------------------------------------------------------------


Total execution time                   ...       17.032 sec

Localization of occupied MO's          ...        0.265 sec (  1.6%)
Fock Matrix Formation                  ...        0.110 sec (  0.6%)
Global overlap, Fock, MKN matrices     ...        0.100 sec (  0.6%)
Differential overlap integrals         ...        0.071 sec (  0.4%)
Organizing maps                        ...        0.001 sec (  0.0%)
RI 3-index integral generations        ...        0.314 sec (  1.8%)
RI-PNO integral transformation         ...        1.010 sec (  5.9%)
Initial Guess                          ...        0.386 sec (  2.3%)
DIIS Solver                            ...        0.284 sec (  1.7%)
State Vector Update                    ...        0.000 sec (  0.0%)
Sigma-vector construction              ...       14.272 sec ( 83.8%)
  <D|H|D>(0-ext)                       ...        0.089 sec (  0.6% of sigma)
  <D|H|D>(2-ext Fock)                  ...        0.011 sec (  0.1% of sigma)
  <D|H|D>(2-ext)                       ...        0.238 sec (  1.7% of sigma)
  <D|H|D>(4-ext)                       ...        2.788 sec ( 19.5% of sigma)
  <D|H|D>(4-ext-corr)                  ...       10.184 sec ( 71.4% of sigma)
  CCSD doubles correction              ...        0.014 sec (  0.1% of sigma)
  <S|H|S>                              ...        0.047 sec (  0.3% of sigma)
  <S|H|D>(1-ext)                       ...        0.022 sec (  0.2% of sigma)
  <D|H|S>(1-ext)                       ...        0.002 sec (  0.0% of sigma)
  <S|H|D>(3-ext)                       ...        0.132 sec (  0.9% of sigma)
  Fock-dressing                        ...        0.367 sec (  2.6% of sigma)
  Singles amplitudes                   ...        0.006 sec (  0.0% of sigma)
  (ik|jl)-dressing                     ...        0.058 sec (  0.4% of sigma)
  (ij|ab),(ia|jb)-dressing             ...        0.166 sec (  1.2% of sigma)
Total Time for computing (T)           ...        0.317 sec (  1.9% of ALL)


Maximum memory used throughout the entire MDCI-calculation: 244.3 MB

-------------------------   --------------------
FINAL SINGLE POINT ENERGY       -76.330947653965
-------------------------   --------------------


                            ***************************************
                            *     ORCA property calculations      *
                            ***************************************


  WARNING: The energy has been calculated at the MDCI level but the densities
           used in the property calculations are still SCF densities
           MDCI response densities have not been calculated 
           use %mdci Density linearized end
           or  %mdci Density unrelaxed end
           or  %mdci Density orbopt end

                                    ---------------------
                                    Active property flags
                                    ---------------------
   (+) Dipole Moment


------------------------------------------------------------------------------
                       ORCA ELECTRIC PROPERTIES CALCULATION
------------------------------------------------------------------------------

Dipole Moment Calculation                       ... on
Quadrupole Moment Calculation                   ... off
Polarizability Calculation                      ... off
GBWName                                         ... H2O_dlpno_ccsdt.gbw
Electron density                                ... H2O_dlpno_ccsdt.scfp
The origin for moment calculation is the CENTER OF MASS  = ( 0.000000,  0.000000 -0.000107)

-------------
DIPOLE MOMENT
-------------
                                X             Y             Z
Electronic contribution:     -0.00000       0.00000       0.16365
Nuclear contribution   :      0.00000       0.00000      -0.93208
                        -----------------------------------------
Total Dipole Moment    :     -0.00000       0.00000      -0.76843
                        -----------------------------------------
Magnitude (a.u.)       :      0.76843
Magnitude (Debye)      :      1.95319



--------------------
Rotational spectrum 
--------------------
 
Rotational constants in cm-1:    30.034947    13.330794     9.232857 
Rotational constants in MHz : 900425.051220 399647.143338 276794.089602 

 Dipole components along the rotational axes: 
x,y,z [a.u.] :    -0.000000    -0.768427     0.000000 
x,y,z [Debye]:    -0.000000    -1.953187     0.000000 

 

Timings for individual modules:

Sum of individual times         ...       18.471 sec (=   0.308 min)
GTO integral calculation        ...        0.220 sec (=   0.004 min)   1.2 %
SCF iterations                  ...        1.085 sec (=   0.018 min)   5.9 %
MDCI module                     ...       17.166 sec (=   0.286 min)  92.9 %
                             ****ORCA TERMINATED NORMALLY****
TOTAL RUN TIME: 0 days 0 hours 0 minutes 18 seconds 625 msec
