 Entering Gaussian System, Link 0=g16
 Input=h2o_hpmodes.gjf
 Output=h2o_hpmodes.out
 Initial command:
 /n/sw/g16_nehalem/g16/l1.exe "/scratch/Gau-439734.inp" -scrdir="/scratch/"
 Entering Link 1 = /n/sw/g16_nehalem/g16/l1.exe PID=    439735.
  
 Copyright (c) 1988,1990,1992,1993,1995,1998,2003,2009,2016,
            Gaussian, Inc.  All Rights Reserved.
  
 This is part of the Gaussian(R) 16 program.  It is based on
 the Gaussian(R) 09 system (copyright 2009, Gaussian, Inc.),
 the Gaussian(R) 03 system (copyright 2003, Gaussian, Inc.),
 the Gaussian(R) 98 system (copyright 1998, Gaussian, Inc.),
 the Gaussian(R) 94 system (copyright 1995, Gaussian, Inc.),
 the Gaussian 92(TM) system (copyright 1992, Gaussian, Inc.),
 the Gaussian 90(TM) system (copyright 1990, Gaussian, Inc.),
 the Gaussian 88(TM) system (copyright 1988, Gaussian, Inc.),
 the Gaussian 86(TM) system (copyright 1986, Carnegie Mellon
 University), and the Gaussian 82(TM) system (copyright 1983,
 Carnegie Mellon University). Gaussian is a federally registered
 trademark of Gaussian, Inc.
  
 This software contains proprietary and confidential information,
 including trade secrets, belonging to Gaussian, Inc.
  
 This software is provided under written license and may be
 used, copied, transmitted, or stored only in accord with that
 written license.
  
 The following legend is applicable only to US Government
 contracts under FAR:
  
                    RESTRICTED RIGHTS LEGEND
  
 Use, reproduction and disclosure by the US Government is
 subject to restrictions as set forth in subparagraphs (a)
 and (c) of the Commercial Computer Software - Restricted
 Rights clause in FAR 52.227-19.
  
 Gaussian, Inc.
 340 Quinnipiac St., Bldg. 40, Wallingford CT 06492
  
  
 ---------------------------------------------------------------
 Warning -- This program may not be used in any manner that
 competes with the business of Gaussian, Inc. or will provide
 assistance to any competitor of Gaussian, Inc.  The licensee
 of this program is prohibited from giving any competitor of
 Gaussian, Inc. access to this program.  By using this program,
 the user acknowledges that Gaussian, Inc. is engaged in the
 business of creating and licensing software in the field of
 computational chemistry and represents and warrants to the
 licensee that it is not a competitor of Gaussian, Inc. and that
 it will not use this program in any manner prohibited above.
 ---------------------------------------------------------------
  

 Cite this work as:
 Gaussian 16, Revision A.03,
 M. J. Frisch, G. W. Trucks, H. B. Schlegel, G. E. Scuseria, 
 M. A. Robb, J. R. Cheeseman, G. Scalmani, V. Barone, 
 G. A. Petersson, H. Nakatsuji, X. Li, M. Caricato, A. V. Marenich, 
 J. Bloino, B. G. Janesko, R. Gomperts, B. Mennucci, H. P. Hratchian, 
 J. V. Ortiz, A. F. Izmaylov, J. L. Sonnenberg, D. Williams-Young, 
 F. Ding, F. Lipparini, F. Egidi, J. Goings, B. Peng, A. Petrone, 
 T. Henderson, D. Ranasinghe, V. G. Zakrzewski, J. Gao, N. Rega, 
 G. Zheng, W. Liang, M. Hada, M. Ehara, K. Toyota, R. Fukuda, 
 J. Hasegawa, M. Ishida, T. Nakajima, Y. Honda, O. Kitao, H. Nakai, 
 T. Vreven, K. Throssell, J. A. Montgomery, Jr., J. E. Peralta, 
 F. Ogliaro, M. J. Bearpark, J. J. Heyd, E. N. Brothers, K. N. Kudin, 
 V. N. Staroverov, T. A. Keith, R. Kobayashi, J. Normand, 
 K. Raghavachari, A. P. Rendell, J. C. Burant, S. S. Iyengar, 
 J. Tomasi, M. Cossi, J. M. Millam, M. Klene, C. Adamo, R. Cammi, 
 J. W. Ochterski, R. L. Martin, K. Morokuma, O. Farkas, 
 J. B. Foresman, and D. J. Fox, Gaussian, Inc., Wallingford CT, 2016.
 
 ******************************************
 Gaussian 16:  ES64L-G16RevA.03 25-Dec-2016
                25-Aug-2020 
 ******************************************
 ----------------------------------
 #p opt freq=hpmodes b3lyp/6-31g(d)
 ----------------------------------
 1/18=20,19=15,26=3,38=1/1,3;
 2/9=110,12=2,17=6,18=5,40=1/2;
 3/5=1,6=6,7=1,11=2,25=1,30=1,71=1,74=-5/1,2,3;
 4//1;
 5/5=2,38=5/2;
 6/7=2,8=2,9=2,10=2,28=1/1;
 7//1,2,3,16;
 1/18=20,19=15,26=3/3(2);
 2/9=110/2;
 99//99;
 2/9=110/2;
 3/5=1,6=6,7=1,11=2,25=1,30=1,71=1,74=-5/1,2,3;
 4/5=5,16=3,69=1/1;
 5/5=2,38=5/2;
 7//1,2,3,16;
 1/18=20,19=15,26=3/3(-5);
 2/9=110/2;
 6/7=2,8=2,9=2,10=2,19=2,28=1/1;
 99/9=1/99;
 Leave Link    1 at Tue Aug 25 16:47:35 2020, MaxMem=           0 cpu:               0.0 elap:               0.0
 (Enter /n/sw/g16_nehalem/g16/l101.exe)
 -----
 title
 -----
 Symbolic Z-matrix:
 Charge =  0 Multiplicity = 1
 O                     0.        0.        0. 
 H                     1.        0.        0. 
 H                     0.        1.        0. 
 
 ITRead=  0  0  0
 MicOpt= -1 -1 -1
 NAtoms=      3 NQM=        3 NQMF=       0 NMMI=      0 NMMIF=      0
                NMic=       0 NMicF=      0.
                    Isotopes and Nuclear Properties:
 (Nuclear quadrupole moments (NQMom) in fm**2, nuclear magnetic moments (NMagM)
  in nuclear magnetons)

  Atom         1           2           3
 IAtWgt=          16           1           1
 AtmWgt=  15.9949146   1.0078250   1.0078250
 NucSpn=           0           1           1
 AtZEff=   0.0000000   0.0000000   0.0000000
 NQMom=    0.0000000   0.0000000   0.0000000
 NMagM=    0.0000000   2.7928460   2.7928460
 AtZNuc=   8.0000000   1.0000000   1.0000000
 Leave Link  101 at Tue Aug 25 16:47:35 2020, MaxMem=   104857600 cpu:               0.2 elap:               0.2
 (Enter /n/sw/g16_nehalem/g16/l103.exe)

 GradGradGradGradGradGradGradGradGradGradGradGradGradGradGradGradGradGrad
 Berny optimization.
 Initialization pass.
                           ----------------------------
                           !    Initial Parameters    !
                           ! (Angstroms and Degrees)  !
 --------------------------                            --------------------------
 ! Name  Definition              Value          Derivative Info.                !
 --------------------------------------------------------------------------------
 ! R1    R(1,2)                  1.0            estimate D2E/DX2                !
 ! R2    R(1,3)                  1.0            estimate D2E/DX2                !
 ! A1    A(2,1,3)               90.0            estimate D2E/DX2                !
 --------------------------------------------------------------------------------
 Trust Radius=3.00D-01 FncErr=1.00D-07 GrdErr=1.00D-06 EigMax=2.50D+02 EigMin=1.00D-04
 Number of steps in this run=     20 maximum allowed number of steps=    100.
 GradGradGradGradGradGradGradGradGradGradGradGradGradGradGradGradGradGrad

 Leave Link  103 at Tue Aug 25 16:47:36 2020, MaxMem=   104857600 cpu:               0.0 elap:               0.0
 (Enter /n/sw/g16_nehalem/g16/l202.exe)
                          Input orientation:                          
 ---------------------------------------------------------------------
 Center     Atomic      Atomic             Coordinates (Angstroms)
 Number     Number       Type             X           Y           Z
 ---------------------------------------------------------------------
      1          8           0        0.000000    0.000000    0.000000
      2          1           0        1.000000    0.000000    0.000000
      3          1           0        0.000000    1.000000    0.000000
 ---------------------------------------------------------------------
                    Distance matrix (angstroms):
                    1          2          3
     1  O    0.000000
     2  H    1.000000   0.000000
     3  H    1.000000   1.414214   0.000000
 Stoichiometry    H2O
 Framework group  C2V[C2(O),SGV(H2)]
 Deg. of freedom     2
 Full point group                 C2V     NOp   4
 Largest Abelian subgroup         C2V     NOp   4
 Largest concise Abelian subgroup C2      NOp   2
                         Standard orientation:                         
 ---------------------------------------------------------------------
 Center     Atomic      Atomic             Coordinates (Angstroms)
 Number     Number       Type             X           Y           Z
 ---------------------------------------------------------------------
      1          8           0        0.000000    0.000000    0.141421
      2          1           0        0.000000    0.707107   -0.565685
      3          1           0        0.000000   -0.707107   -0.565685
 ---------------------------------------------------------------------
 Rotational constants (GHZ):         564.6475654         501.4551045         265.5892457
 Leave Link  202 at Tue Aug 25 16:47:36 2020, MaxMem=   104857600 cpu:               0.0 elap:               0.0
 (Enter /n/sw/g16_nehalem/g16/l301.exe)
 Standard basis: 6-31G(d) (6D, 7F)
 Ernie: Thresh=  0.10000D-02 Tol=  0.10000D-05 Strict=F.
 There are    10 symmetry adapted cartesian basis functions of A1  symmetry.
 There are     1 symmetry adapted cartesian basis functions of A2  symmetry.
 There are     3 symmetry adapted cartesian basis functions of B1  symmetry.
 There are     5 symmetry adapted cartesian basis functions of B2  symmetry.
 There are    10 symmetry adapted basis functions of A1  symmetry.
 There are     1 symmetry adapted basis functions of A2  symmetry.
 There are     3 symmetry adapted basis functions of B1  symmetry.
 There are     5 symmetry adapted basis functions of B2  symmetry.
    19 basis functions,    36 primitive gaussians,    19 cartesian basis functions
     5 alpha electrons        5 beta electrons
       nuclear repulsion energy         8.8410201690 Hartrees.
 IExCor=  402 DFT=T Ex+Corr=B3LYP ExCW=0 ScaHFX=  0.200000
 ScaDFX=  0.800000  0.720000  1.000000  0.810000 ScalE2=  1.000000  1.000000
 IRadAn=      5 IRanWt=     -1 IRanGd=            0 ICorTp=0 IEmpDi=  4
 NAtoms=    3 NActive=    3 NUniq=    2 SFac= 2.25D+00 NAtFMM=   60 NAOKFM=F Big=F
 Integral buffers will be    131072 words long.
 Raffenetti 2 integral format.
 Two-electron integral symmetry is turned on.
 Leave Link  301 at Tue Aug 25 16:47:36 2020, MaxMem=   104857600 cpu:               0.1 elap:               0.0
 (Enter /n/sw/g16_nehalem/g16/l302.exe)
 NPDir=0 NMtPBC=     1 NCelOv=     1 NCel=       1 NClECP=     1 NCelD=      1
         NCelK=      1 NCelE2=     1 NClLst=     1 CellRange=     0.0.
 One-electron integrals computed using PRISM.
 One-electron integral symmetry used in STVInt
 NBasis=    19 RedAO= T EigKep=  2.40D-02  NBF=    10     1     3     5
 NBsUse=    19 1.00D-06 EigRej= -1.00D+00 NBFU=    10     1     3     5
 Precomputing XC quadrature grid using
 IXCGrd= 4 IRadAn=           5 IRanWt=          -1 IRanGd=           0 AccXCQ= 0.00D+00.
 Generated NRdTot=       0 NPtTot=           0 NUsed=           0 NTot=          32
 NSgBfM=    19    19    19    19    19 MxSgAt=     3 MxSgA2=     3.
 Leave Link  302 at Tue Aug 25 16:47:37 2020, MaxMem=   104857600 cpu:               0.1 elap:               0.1
 (Enter /n/sw/g16_nehalem/g16/l303.exe)
 DipDrv:  MaxL=1.
 Leave Link  303 at Tue Aug 25 16:47:37 2020, MaxMem=   104857600 cpu:               0.0 elap:               0.0
 (Enter /n/sw/g16_nehalem/g16/l401.exe)
 ExpMin= 1.61D-01 ExpMax= 5.48D+03 ExpMxC= 8.25D+02 IAcc=3 IRadAn=         5 AccDes= 0.00D+00
 Harris functional with IExCor=  402 and IRadAn=       5 diagonalized for initial guess.
 HarFok:  IExCor=  402 AccDes= 0.00D+00 IRadAn=         5 IDoV= 1 UseB2=F ITyADJ=14
 ICtDFT=  3500011 ScaDFX=  1.000000  1.000000  1.000000  1.000000
 FoFCou: FMM=F IPFlag=           0 FMFlag=      100000 FMFlg1=           0
         NFxFlg=           0 DoJE=T BraDBF=F KetDBF=T FulRan=T
         wScrn=  0.000000 ICntrl=       500 IOpCl=  0 I1Cent=   200000004 NGrid=           0
         NMat0=    1 NMatS0=      1 NMatT0=    0 NMatD0=    1 NMtDS0=    0 NMtDT0=    0
 Petite list used in FoFCou.
 Harris En= -76.4378009631739    
 JPrj=0 DoOrth=F DoCkMO=F.
 Initial guess orbital symmetries:
       Occupied  (A1) (A1) (B2) (A1) (B1)
       Virtual   (A1) (B2) (B2) (A1) (B1) (A1) (B2) (A1) (A1) (A2)
                 (B1) (A1) (B2) (A1)
 The electronic state of the initial guess is 1-A1.
 Leave Link  401 at Tue Aug 25 16:47:37 2020, MaxMem=   104857600 cpu:               0.1 elap:               0.1
 (Enter /n/sw/g16_nehalem/g16/l502.exe)
 Keep R1 ints in memory in symmetry-blocked form, NReq=881193.
 FoFCou: FMM=F IPFlag=           0 FMFlag=           0 FMFlg1=           0
         NFxFlg=           0 DoJE=F BraDBF=F KetDBF=F FulRan=T
         wScrn=  0.000000 ICntrl=       600 IOpCl=  0 I1Cent=           0 NGrid=           0
         NMat0=    1 NMatS0=    190 NMatT0=    0 NMatD0=    1 NMtDS0=    0 NMtDT0=    0
 Petite list used in FoFCou.
 Closed shell SCF:
 Using DIIS extrapolation, IDIIS=  1040.
 NGot=   104857600 LenX=   104849670 LenY=   104848788
 Requested convergence on RMS density matrix=1.00D-08 within 128 cycles.
 Requested convergence on MAX density matrix=1.00D-06.
 Requested convergence on             energy=1.00D-06.
 No special actions if energy rises.
 Integral accuracy reduced to 1.0D-05 until final iterations.

 Cycle   1  Pass 0  IDiag  1:
 E= -76.3271456249451    
 DIIS: error= 7.29D-02 at cycle   1 NSaved=   1.
 NSaved= 1 IEnMin= 1 EnMin= -76.3271456249451     IErMin= 1 ErrMin= 7.29D-02
 ErrMax= 7.29D-02  0.00D+00 EMaxC= 1.00D-01 BMatC= 9.82D-02 BMatP= 9.82D-02
 IDIUse=3 WtCom= 2.71D-01 WtEn= 7.29D-01
 Coeff-Com:  0.100D+01
 Coeff-En:   0.100D+01
 Coeff:      0.100D+01
 Gap=     0.200 Goal=   None    Shift=    0.000
 GapD=    0.200 DampG=1.000 DampE=0.500 DampFc=0.5000 IDamp=-1.
 Damping current iteration by 5.00D-01
 RMSDP=3.18D-02 MaxDP=2.68D-01              OVMax= 2.22D-01

 Cycle   2  Pass 0  IDiag  1:
 E= -76.3495154923023     Delta-E=       -0.022369867357 Rises=F Damp=T
 DIIS: error= 2.26D-02 at cycle   2 NSaved=   2.
 NSaved= 2 IEnMin= 2 EnMin= -76.3495154923023     IErMin= 2 ErrMin= 2.26D-02
 ErrMax= 2.26D-02  0.00D+00 EMaxC= 1.00D-01 BMatC= 8.59D-03 BMatP= 9.82D-02
 IDIUse=3 WtCom= 7.74D-01 WtEn= 2.26D-01
 Coeff-Com:  0.216D+00 0.784D+00
 Coeff-En:   0.344D+00 0.656D+00
 Coeff:      0.245D+00 0.755D+00
 Gap=     0.328 Goal=   None    Shift=    0.000
 RMSDP=4.25D-03 MaxDP=4.81D-02 DE=-2.24D-02 OVMax= 1.24D-01

 Cycle   3  Pass 0  IDiag  1:
 E= -76.4025684802285     Delta-E=       -0.053052987926 Rises=F Damp=F
 DIIS: error= 4.66D-03 at cycle   3 NSaved=   3.
 NSaved= 3 IEnMin= 3 EnMin= -76.4025684802285     IErMin= 3 ErrMin= 4.66D-03
 ErrMax= 4.66D-03  0.00D+00 EMaxC= 1.00D-01 BMatC= 3.93D-04 BMatP= 8.59D-03
 IDIUse=3 WtCom= 9.53D-01 WtEn= 4.66D-02
 Coeff-Com:  0.488D-01-0.491D-01 0.100D+01
 Coeff-En:   0.000D+00 0.000D+00 0.100D+01
 Coeff:      0.465D-01-0.468D-01 0.100D+01
 Gap=     0.344 Goal=   None    Shift=    0.000
 RMSDP=7.24D-04 MaxDP=6.63D-03 DE=-5.31D-02 OVMax= 5.09D-03

 Cycle   4  Pass 0  IDiag  1:
 E= -76.4028439234352     Delta-E=       -0.000275443207 Rises=F Damp=F
 DIIS: error= 3.47D-04 at cycle   4 NSaved=   4.
 NSaved= 4 IEnMin= 4 EnMin= -76.4028439234352     IErMin= 4 ErrMin= 3.47D-04
 ErrMax= 3.47D-04  0.00D+00 EMaxC= 1.00D-01 BMatC= 1.84D-06 BMatP= 3.93D-04
 IDIUse=3 WtCom= 9.97D-01 WtEn= 3.47D-03
 Coeff-Com:  0.854D-02-0.222D-01 0.238D+00 0.776D+00
 Coeff-En:   0.000D+00 0.000D+00 0.000D+00 0.100D+01
 Coeff:      0.851D-02-0.222D-01 0.237D+00 0.777D+00
 Gap=     0.344 Goal=   None    Shift=    0.000
 RMSDP=4.72D-05 MaxDP=3.49D-04 DE=-2.75D-04 OVMax= 3.83D-04

 Cycle   5  Pass 0  IDiag  1:
 E= -76.4028453022249     Delta-E=       -0.000001378790 Rises=F Damp=F
 DIIS: error= 7.32D-05 at cycle   5 NSaved=   5.
 NSaved= 5 IEnMin= 5 EnMin= -76.4028453022249     IErMin= 5 ErrMin= 7.32D-05
 ErrMax= 7.32D-05  0.00D+00 EMaxC= 1.00D-01 BMatC= 8.46D-08 BMatP= 1.84D-06
 IDIUse=1 WtCom= 1.00D+00 WtEn= 0.00D+00
 Coeff-Com:  0.820D-03-0.733D-03 0.176D-02 0.106D-01 0.988D+00
 Coeff:      0.820D-03-0.733D-03 0.176D-02 0.106D-01 0.988D+00
 Gap=     0.344 Goal=   None    Shift=    0.000
 RMSDP=1.26D-05 MaxDP=1.20D-04 DE=-1.38D-06 OVMax= 7.87D-05

 Cycle   6  Pass 0  IDiag  1:
 E= -76.4028453662583     Delta-E=       -0.000000064033 Rises=F Damp=F
 DIIS: error= 1.39D-06 at cycle   6 NSaved=   6.
 NSaved= 6 IEnMin= 6 EnMin= -76.4028453662583     IErMin= 6 ErrMin= 1.39D-06
 ErrMax= 1.39D-06  0.00D+00 EMaxC= 1.00D-01 BMatC= 1.73D-11 BMatP= 8.46D-08
 IDIUse=1 WtCom= 1.00D+00 WtEn= 0.00D+00
 Coeff-Com: -0.310D-04 0.247D-04-0.364D-03-0.105D-02-0.293D-01 0.103D+01
 Coeff:     -0.310D-04 0.247D-04-0.364D-03-0.105D-02-0.293D-01 0.103D+01
 Gap=     0.344 Goal=   None    Shift=    0.000
 RMSDP=1.99D-07 MaxDP=1.98D-06 DE=-6.40D-08 OVMax= 1.59D-06

 Initial convergence to 1.0D-05 achieved.  Increase integral accuracy.
 Cycle   7  Pass 1  IDiag  1:
 E= -76.4028465985129     Delta-E=       -0.000001232255 Rises=F Damp=F
 DIIS: error= 5.58D-07 at cycle   1 NSaved=   1.
 NSaved= 1 IEnMin= 1 EnMin= -76.4028465985129     IErMin= 1 ErrMin= 5.58D-07
 ErrMax= 5.58D-07  0.00D+00 EMaxC= 1.00D-01 BMatC= 3.01D-12 BMatP= 3.01D-12
 IDIUse=1 WtCom= 1.00D+00 WtEn= 0.00D+00
 Coeff-Com:  0.100D+01
 Coeff:      0.100D+01
 Gap=     0.344 Goal=   None    Shift=    0.000
 RMSDP=1.99D-07 MaxDP=1.98D-06 DE=-1.23D-06 OVMax= 9.45D-07

 Cycle   8  Pass 1  IDiag  1:
 E= -76.4028465985130     Delta-E=        0.000000000000 Rises=F Damp=F
 DIIS: error= 3.83D-07 at cycle   2 NSaved=   2.
 NSaved= 2 IEnMin= 2 EnMin= -76.4028465985130     IErMin= 2 ErrMin= 3.83D-07
 ErrMax= 3.83D-07  0.00D+00 EMaxC= 1.00D-01 BMatC= 2.79D-12 BMatP= 3.01D-12
 IDIUse=1 WtCom= 1.00D+00 WtEn= 0.00D+00
 Coeff-Com:  0.488D+00 0.512D+00
 Coeff:      0.488D+00 0.512D+00
 Gap=     0.344 Goal=   None    Shift=    0.000
 RMSDP=7.50D-08 MaxDP=5.78D-07 DE=-1.42D-13 OVMax= 5.41D-07

 Cycle   9  Pass 1  IDiag  1:
 E= -76.4028465985148     Delta-E=       -0.000000000002 Rises=F Damp=F
 DIIS: error= 1.28D-07 at cycle   3 NSaved=   3.
 NSaved= 3 IEnMin= 3 EnMin= -76.4028465985148     IErMin= 3 ErrMin= 1.28D-07
 ErrMax= 1.28D-07  0.00D+00 EMaxC= 1.00D-01 BMatC= 2.23D-13 BMatP= 2.79D-12
 IDIUse=1 WtCom= 1.00D+00 WtEn= 0.00D+00
 Coeff-Com: -0.167D-01 0.214D+00 0.803D+00
 Coeff:     -0.167D-01 0.214D+00 0.803D+00
 Gap=     0.344 Goal=   None    Shift=    0.000
 RMSDP=1.67D-08 MaxDP=1.26D-07 DE=-1.83D-12 OVMax= 1.38D-07

 Cycle  10  Pass 1  IDiag  1:
 E= -76.4028465985151     Delta-E=        0.000000000000 Rises=F Damp=F
 DIIS: error= 2.95D-09 at cycle   4 NSaved=   4.
 NSaved= 4 IEnMin= 4 EnMin= -76.4028465985151     IErMin= 4 ErrMin= 2.95D-09
 ErrMax= 2.95D-09  0.00D+00 EMaxC= 1.00D-01 BMatC= 1.44D-16 BMatP= 2.23D-13
 IDIUse=1 WtCom= 1.00D+00 WtEn= 0.00D+00
 Coeff-Com: -0.142D-02-0.126D-01-0.171D-01 0.103D+01
 Coeff:     -0.142D-02-0.126D-01-0.171D-01 0.103D+01
 Gap=     0.344 Goal=   None    Shift=    0.000
 RMSDP=8.38D-10 MaxDP=7.77D-09 DE=-2.27D-13 OVMax= 8.06D-09

 SCF Done:  E(RB3LYP) =  -76.4028465985     A.U. after   10 cycles
            NFock= 10  Conv=0.84D-09     -V/T= 2.0087
 KE= 7.574748556960D+01 PE=-1.981838601531D+02 EE= 3.719250781594D+01
 Leave Link  502 at Tue Aug 25 16:47:38 2020, MaxMem=   104857600 cpu:               0.3 elap:               0.3
 (Enter /n/sw/g16_nehalem/g16/l601.exe)
 Copying SCF densities to generalized density rwf, IOpCl= 0 IROHF=0.

 **********************************************************************

            Population analysis using the SCF density.

 **********************************************************************

 Orbital symmetries:
       Occupied  (A1) (A1) (B2) (A1) (B1)
       Virtual   (A1) (B2) (B2) (A1) (B1) (A1) (B2) (A1) (A1) (A2)
                 (B1) (A1) (B2) (A1)
 The electronic state is 1-A1.
 Alpha  occ. eigenvalues --  -19.15032  -0.99720  -0.48151  -0.39886  -0.29374
 Alpha virt. eigenvalues --    0.04989   0.13261   0.72242   0.85127   0.88758
 Alpha virt. eigenvalues --    0.89755   1.04742   1.24205   1.70739   1.76276
 Alpha virt. eigenvalues --    1.76848   2.27896   2.46896   3.51011
          Condensed to atoms (all electrons):
               1          2          3
     1  O    8.286140   0.227766   0.227766
     2  H    0.227766   0.433289  -0.031891
     3  H    0.227766  -0.031891   0.433289
 Mulliken charges:
               1
     1  O   -0.741673
     2  H    0.370836
     3  H    0.370836
 Sum of Mulliken charges =   0.00000
 Mulliken charges with hydrogens summed into heavy atoms:
               1
     1  O    0.000000
 Electronic spatial extent (au):  <R**2>=             19.6579
 Charge=              0.0000 electrons
 Dipole moment (field-independent basis, Debye):
    X=              0.0000    Y=              0.0000    Z=             -2.2953  Tot=              2.2953
 Quadrupole moment (field-independent basis, Debye-Ang):
   XX=             -7.2693   YY=             -4.8925   ZZ=             -5.6331
   XY=              0.0000   XZ=              0.0000   YZ=              0.0000
 Traceless Quadrupole moment (field-independent basis, Debye-Ang):
   XX=             -1.3377   YY=              1.0392   ZZ=              0.2985
   XY=              0.0000   XZ=              0.0000   YZ=              0.0000
 Octapole moment (field-independent basis, Debye-Ang**2):
  XXX=              0.0000  YYY=              0.0000  ZZZ=             -1.4146  XYY=              0.0000
  XXY=              0.0000  XXZ=             -0.3253  XZZ=              0.0000  YZZ=              0.0000
  YYZ=             -1.1417  XYZ=              0.0000
 Hexadecapole moment (field-independent basis, Debye-Ang**3):
 XXXX=             -5.2918 YYYY=             -6.6855 ZZZZ=             -6.7932 XXXY=              0.0000
 XXXZ=              0.0000 YYYX=              0.0000 YYYZ=              0.0000 ZZZX=              0.0000
 ZZZY=              0.0000 XXYY=             -2.1566 XXZZ=             -2.1073 YYZZ=             -1.8090
 XXYZ=              0.0000 YYXZ=              0.0000 ZZXY=              0.0000
 N-N= 8.841020169011D+00 E-N=-1.981838600856D+02  KE= 7.574748556960D+01
 Symmetry A1   KE= 6.756048311152D+01
 Symmetry A2   KE= 3.308192564419D-35
 Symmetry B1   KE= 4.621540525012D+00
 Symmetry B2   KE= 3.565461933060D+00
 No NMR shielding tensors so no spin-rotation constants.
 Leave Link  601 at Tue Aug 25 16:47:38 2020, MaxMem=   104857600 cpu:               0.1 elap:               0.1
 (Enter /n/sw/g16_nehalem/g16/l701.exe)
 ... and contract with generalized density number  0.
 Compute integral first derivatives.
 Leave Link  701 at Tue Aug 25 16:47:39 2020, MaxMem=   104857600 cpu:               0.1 elap:               0.1
 (Enter /n/sw/g16_nehalem/g16/l702.exe)
 L702 exits ... SP integral derivatives will be done elsewhere.
 Leave Link  702 at Tue Aug 25 16:47:39 2020, MaxMem=   104857600 cpu:               0.0 elap:               0.0
 (Enter /n/sw/g16_nehalem/g16/l703.exe)
 Integral derivatives from FoFJK, PRISM(SPDF).
 Compute integral first derivatives, UseDBF=F ICtDFT=           0.
 Calling FoFJK, ICntrl=      2127 FMM=F ISym2X=1 I1Cent= 0 IOpClX= 0 NMat=1 NMatS=1 NMatT=0.
 FoFJK:  IHMeth= 1 ICntrl=    2127 DoSepK=F KAlg= 0 I1Cent=           0 FoldK=F
 IRaf=         0 NMat=       1 IRICut=       1 DoRegI=T DoRafI=F ISym2E= 1 IDoP0=0 IntGTp=1.
 FoFCou: FMM=F IPFlag=           0 FMFlag=      100000 FMFlg1=         800
         NFxFlg=           0 DoJE=F BraDBF=F KetDBF=F FulRan=T
         wScrn=  0.000000 ICntrl=      2127 IOpCl=  0 I1Cent=           0 NGrid=           0
         NMat0=    1 NMatS0=      1 NMatT0=    0 NMatD0=    1 NMtDS0=    0 NMtDT0=    0
 Petite list used in FoFCou.
 Leave Link  703 at Tue Aug 25 16:47:39 2020, MaxMem=   104857600 cpu:               0.2 elap:               0.2
 (Enter /n/sw/g16_nehalem/g16/l716.exe)
 Dipole        =-5.91256000D-17 0.00000000D+00-9.03042545D-01
 ***** Axes restored to original set *****
 -------------------------------------------------------------------
 Center     Atomic                   Forces (Hartrees/Bohr)
 Number     Number              X              Y              Z
 -------------------------------------------------------------------
      1        8           0.041399538    0.041399538    0.000000000
      2        1          -0.018974130   -0.022425408    0.000000000
      3        1          -0.022425408   -0.018974130    0.000000000
 -------------------------------------------------------------------
 Cartesian Forces:  Max     0.041399538 RMS     0.023929704
 Leave Link  716 at Tue Aug 25 16:47:40 2020, MaxMem=   104857600 cpu:               0.0 elap:               0.0
 (Enter /n/sw/g16_nehalem/g16/l103.exe)

 GradGradGradGradGradGradGradGradGradGradGradGradGradGradGradGradGradGrad
 Berny optimization.
 FormGI is forming the generalized inverse of G from B-inverse, IUseBI=4.
 Internal  Forces:  Max     0.042377879 RMS     0.028959281
 Search for a local minimum.
 Step number   1 out of a maximum of   20
 All quantities printed in internal units (Hartrees-Bohrs-Radians)
 RMS Force = .28959D-01 SwitMx=.10000D-02 MixMth= 1
 Mixed Optimization -- RFO/linear search
 Second derivative matrix not updated -- first step.
 The second derivative matrix:
                          R1        R2        A1
           R1           0.47688
           R2           0.00000   0.47688
           A1           0.00000   0.00000   0.16000
 ITU=  0
     Eigenvalues ---    0.16000   0.47688   0.47688
 RFO step:  Lambda=-1.19191582D-02 EMin= 1.60000000D-01
 Linear search not attempted -- first point.
 Iteration  1 RMS(Cart)=  0.11484654 RMS(Int)=  0.02645169
 Iteration  2 RMS(Cart)=  0.02312521 RMS(Int)=  0.00038590
 Iteration  3 RMS(Cart)=  0.00038591 RMS(Int)=  0.00000003
 Iteration  4 RMS(Cart)=  0.00000002 RMS(Int)=  0.00000000
 ITry= 1 IFail=0 DXMaxC= 1.34D-01 DCOld= 1.00D+10 DXMaxT= 3.00D-01 DXLimC= 3.00D+00 Rises=F
 ClnCor:  largest displacement from symmetrization is 2.85D-16 for atom     1.
 Variable       Old X    -DE/DX   Delta X   Delta X   Delta X     New X
                                 (Linear)    (Quad)   (Total)
    R1        1.88973  -0.01897   0.00000  -0.03882  -0.03882   1.85091
    R2        1.88973  -0.01897   0.00000  -0.03882  -0.03882   1.85091
    A1        1.57080   0.04238   0.00000   0.24650   0.24650   1.81730
         Item               Value     Threshold  Converged?
 Maximum Force            0.042378     0.000450     NO 
 RMS     Force            0.028959     0.000300     NO 
 Maximum Displacement     0.134078     0.001800     NO 
 RMS     Displacement     0.137507     0.001200     NO 
 Predicted change in Energy=-6.339653D-03
 Lowest energy point so far.  Saving SCF results.
 GradGradGradGradGradGradGradGradGradGradGradGradGradGradGradGradGradGrad

 Leave Link  103 at Tue Aug 25 16:47:40 2020, MaxMem=   104857600 cpu:               0.0 elap:               0.0
 (Enter /n/sw/g16_nehalem/g16/l202.exe)
                          Input orientation:                          
 ---------------------------------------------------------------------
 Center     Atomic      Atomic             Coordinates (Angstroms)
 Number     Number       Type             X           Y           Z
 ---------------------------------------------------------------------
      1          8           0        0.049461    0.049461    0.000000
      2          1           0        1.021490   -0.070951    0.000000
      3          1           0       -0.070951    1.021490    0.000000
 ---------------------------------------------------------------------
                    Distance matrix (angstroms):
                    1          2          3
     1  O    0.000000
     2  H    0.979459   0.000000
     3  H    0.979459   1.544945   0.000000
 Stoichiometry    H2O
 Framework group  C2V[C2(O),SGV(H2)]
 Deg. of freedom     2
 Full point group                 C2V     NOp   4
 RotChk:  IX=0 Diff= 6.28D-16
 Largest Abelian subgroup         C2V     NOp   4
 Largest concise Abelian subgroup C2      NOp   2
                         Standard orientation:                         
 ---------------------------------------------------------------------
 Center     Atomic      Atomic             Coordinates (Angstroms)
 Number     Number       Type             X           Y           Z
 ---------------------------------------------------------------------
      1          8           0        0.000000    0.000000    0.120437
      2          1           0        0.000000    0.772473   -0.481747
      3          1           0        0.000000   -0.772473   -0.481747
 ---------------------------------------------------------------------
 Rotational constants (GHZ):         778.5550360         420.1805474         272.8989493
 Leave Link  202 at Tue Aug 25 16:47:40 2020, MaxMem=   104857600 cpu:               0.0 elap:               0.0
 (Enter /n/sw/g16_nehalem/g16/l301.exe)
 Standard basis: 6-31G(d) (6D, 7F)
 Ernie: Thresh=  0.10000D-02 Tol=  0.10000D-05 Strict=F.
 There are    10 symmetry adapted cartesian basis functions of A1  symmetry.
 There are     1 symmetry adapted cartesian basis functions of A2  symmetry.
 There are     3 symmetry adapted cartesian basis functions of B1  symmetry.
 There are     5 symmetry adapted cartesian basis functions of B2  symmetry.
 There are    10 symmetry adapted basis functions of A1  symmetry.
 There are     1 symmetry adapted basis functions of A2  symmetry.
 There are     3 symmetry adapted basis functions of B1  symmetry.
 There are     5 symmetry adapted basis functions of B2  symmetry.
    19 basis functions,    36 primitive gaussians,    19 cartesian basis functions
     5 alpha electrons        5 beta electrons
       nuclear repulsion energy         8.9869250415 Hartrees.
 IExCor=  402 DFT=T Ex+Corr=B3LYP ExCW=0 ScaHFX=  0.200000
 ScaDFX=  0.800000  0.720000  1.000000  0.810000 ScalE2=  1.000000  1.000000
 IRadAn=      5 IRanWt=     -1 IRanGd=            0 ICorTp=0 IEmpDi=  4
 NAtoms=    3 NActive=    3 NUniq=    2 SFac= 2.25D+00 NAtFMM=   60 NAOKFM=F Big=F
 Integral buffers will be    131072 words long.
 Raffenetti 2 integral format.
 Two-electron integral symmetry is turned on.
 Leave Link  301 at Tue Aug 25 16:47:40 2020, MaxMem=   104857600 cpu:               0.0 elap:               0.1
 (Enter /n/sw/g16_nehalem/g16/l302.exe)
 NPDir=0 NMtPBC=     1 NCelOv=     1 NCel=       1 NClECP=     1 NCelD=      1
         NCelK=      1 NCelE2=     1 NClLst=     1 CellRange=     0.0.
 One-electron integrals computed using PRISM.
 One-electron integral symmetry used in STVInt
 NBasis=    19 RedAO= T EigKep=  2.31D-02  NBF=    10     1     3     5
 NBsUse=    19 1.00D-06 EigRej= -1.00D+00 NBFU=    10     1     3     5
 Precomputing XC quadrature grid using
 IXCGrd= 4 IRadAn=           5 IRanWt=          -1 IRanGd=           0 AccXCQ= 0.00D+00.
 Generated NRdTot=       0 NPtTot=           0 NUsed=           0 NTot=          32
 NSgBfM=    19    19    19    19    19 MxSgAt=     3 MxSgA2=     3.
 Leave Link  302 at Tue Aug 25 16:47:40 2020, MaxMem=   104857600 cpu:               0.1 elap:               0.1
 (Enter /n/sw/g16_nehalem/g16/l303.exe)
 DipDrv:  MaxL=1.
 Leave Link  303 at Tue Aug 25 16:47:40 2020, MaxMem=   104857600 cpu:               0.0 elap:               0.0
 (Enter /n/sw/g16_nehalem/g16/l401.exe)
 Initial guess from the checkpoint file:  "/scratch/Gau-439735.chk"
 B after Tr=     0.000000    0.000000    0.000000
         Rot=    1.000000    0.000000    0.000000    0.000000 Ang=   0.00 deg.
 Guess basis will be translated and rotated to current coordinates.
 JPrj=2 DoOrth=T DoCkMO=T.
 Initial guess orbital symmetries:
       Occupied  (A1) (A1) (B2) (A1) (B1)
       Virtual   (A1) (B2) (B2) (A1) (B1) (A1) (B2) (A1) (A1) (A2)
                 (B1) (A1) (B2) (A1)
 The electronic state of the initial guess is 1-A1.
 Generating alternative initial guess.
 ExpMin= 1.61D-01 ExpMax= 5.48D+03 ExpMxC= 8.25D+02 IAcc=2 IRadAn=         4 AccDes= 0.00D+00
 Harris functional with IExCor=  402 and IRadAn=       4 diagonalized for initial guess.
 HarFok:  IExCor=  402 AccDes= 0.00D+00 IRadAn=         4 IDoV= 1 UseB2=F ITyADJ=14
 ICtDFT=  3500011 ScaDFX=  1.000000  1.000000  1.000000  1.000000
 FoFCou: FMM=F IPFlag=           0 FMFlag=      100000 FMFlg1=           0
         NFxFlg=           0 DoJE=T BraDBF=F KetDBF=T FulRan=T
         wScrn=  0.000000 ICntrl=       500 IOpCl=  0 I1Cent=   200000004 NGrid=           0
         NMat0=    1 NMatS0=      1 NMatT0=    0 NMatD0=    1 NMtDS0=    0 NMtDT0=    0
 Petite list used in FoFCou.
 Harris En= -76.4461310786096    
 Leave Link  401 at Tue Aug 25 16:47:40 2020, MaxMem=   104857600 cpu:               0.2 elap:               0.2
 (Enter /n/sw/g16_nehalem/g16/l502.exe)
 Keep R1 ints in memory in symmetry-blocked form, NReq=881193.
 FoFCou: FMM=F IPFlag=           0 FMFlag=           0 FMFlg1=           0
         NFxFlg=           0 DoJE=F BraDBF=F KetDBF=F FulRan=T
         wScrn=  0.000000 ICntrl=       600 IOpCl=  0 I1Cent=           0 NGrid=           0
         NMat0=    1 NMatS0=    190 NMatT0=    0 NMatD0=    1 NMtDS0=    0 NMtDT0=    0
 Petite list used in FoFCou.
 Closed shell SCF:
 Using DIIS extrapolation, IDIIS=  1040.
 NGot=   104857600 LenX=   104849670 LenY=   104848788
 Requested convergence on RMS density matrix=1.00D-08 within 128 cycles.
 Requested convergence on MAX density matrix=1.00D-06.
 Requested convergence on             energy=1.00D-06.
 No special actions if energy rises.
 Integral accuracy reduced to 1.0D-05 until final iterations.

 Cycle   1  Pass 0  IDiag  1:
 E= -76.4060221527864    
 DIIS: error= 9.98D-03 at cycle   1 NSaved=   1.
 NSaved= 1 IEnMin= 1 EnMin= -76.4060221527864     IErMin= 1 ErrMin= 9.98D-03
 ErrMax= 9.98D-03  0.00D+00 EMaxC= 1.00D-01 BMatC= 1.87D-03 BMatP= 1.87D-03
 IDIUse=3 WtCom= 9.00D-01 WtEn= 9.98D-02
 Coeff-Com:  0.100D+01
 Coeff-En:   0.100D+01
 Coeff:      0.100D+01
 Gap=     0.358 Goal=   None    Shift=    0.000
 GapD=    0.358 DampG=1.000 DampE=1.000 DampFc=1.0000 IDamp=-1.
 RMSDP=4.24D-03 MaxDP=3.26D-02              OVMax= 3.07D-02

 Cycle   2  Pass 0  IDiag  1:
 E= -76.4084116537274     Delta-E=       -0.002389500941 Rises=F Damp=F
 DIIS: error= 5.18D-03 at cycle   2 NSaved=   2.
 NSaved= 2 IEnMin= 2 EnMin= -76.4084116537274     IErMin= 2 ErrMin= 5.18D-03
 ErrMax= 5.18D-03  0.00D+00 EMaxC= 1.00D-01 BMatC= 4.50D-04 BMatP= 1.87D-03
 IDIUse=3 WtCom= 9.48D-01 WtEn= 5.18D-02
 Coeff-Com:  0.223D+00 0.777D+00
 Coeff-En:   0.000D+00 0.100D+01
 Coeff:      0.211D+00 0.789D+00
 Gap=     0.345 Goal=   None    Shift=    0.000
 RMSDP=1.35D-03 MaxDP=9.23D-03 DE=-2.39D-03 OVMax= 1.02D-02

 Cycle   3  Pass 0  IDiag  1:
 E= -76.4084690386443     Delta-E=       -0.000057384917 Rises=F Damp=F
 DIIS: error= 4.71D-03 at cycle   3 NSaved=   3.
 NSaved= 3 IEnMin= 3 EnMin= -76.4084690386443     IErMin= 3 ErrMin= 4.71D-03
 ErrMax= 4.71D-03  0.00D+00 EMaxC= 1.00D-01 BMatC= 3.76D-04 BMatP= 4.50D-04
 IDIUse=3 WtCom= 9.53D-01 WtEn= 4.71D-02
 Coeff-Com: -0.263D-01 0.485D+00 0.542D+00
 Coeff-En:   0.000D+00 0.457D+00 0.543D+00
 Coeff:     -0.251D-01 0.483D+00 0.542D+00
 Gap=     0.350 Goal=   None    Shift=    0.000
 RMSDP=6.79D-04 MaxDP=4.77D-03 DE=-5.74D-05 OVMax= 4.91D-03

 Cycle   4  Pass 0  IDiag  1:
 E= -76.4087342958950     Delta-E=       -0.000265257251 Rises=F Damp=F
 DIIS: error= 1.01D-04 at cycle   4 NSaved=   4.
 NSaved= 4 IEnMin= 4 EnMin= -76.4087342958950     IErMin= 4 ErrMin= 1.01D-04
 ErrMax= 1.01D-04  0.00D+00 EMaxC= 1.00D-01 BMatC= 1.71D-07 BMatP= 3.76D-04
 IDIUse=3 WtCom= 9.99D-01 WtEn= 1.01D-03
 Coeff-Com: -0.677D-02 0.766D-01 0.900D-01 0.840D+00
 Coeff-En:   0.000D+00 0.000D+00 0.000D+00 0.100D+01
 Coeff:     -0.676D-02 0.765D-01 0.899D-01 0.840D+00
 Gap=     0.350 Goal=   None    Shift=    0.000
 RMSDP=2.01D-05 MaxDP=1.59D-04 DE=-2.65D-04 OVMax= 1.19D-04

 Cycle   5  Pass 0  IDiag  1:
 E= -76.4087344408481     Delta-E=       -0.000000144953 Rises=F Damp=F
 DIIS: error= 1.52D-05 at cycle   5 NSaved=   5.
 NSaved= 5 IEnMin= 5 EnMin= -76.4087344408481     IErMin= 5 ErrMin= 1.52D-05
 ErrMax= 1.52D-05  0.00D+00 EMaxC= 1.00D-01 BMatC= 3.18D-09 BMatP= 1.71D-07
 IDIUse=1 WtCom= 1.00D+00 WtEn= 0.00D+00
 Coeff-Com:  0.270D-03-0.636D-02-0.706D-02 0.822D-01 0.931D+00
 Coeff:      0.270D-03-0.636D-02-0.706D-02 0.822D-01 0.931D+00
 Gap=     0.350 Goal=   None    Shift=    0.000
 RMSDP=3.31D-06 MaxDP=2.01D-05 DE=-1.45D-07 OVMax= 3.31D-05

 Initial convergence to 1.0D-05 achieved.  Increase integral accuracy.
 Cycle   6  Pass 1  IDiag  1:
 E= -76.4087346818950     Delta-E=       -0.000000241047 Rises=F Damp=F
 DIIS: error= 2.43D-06 at cycle   1 NSaved=   1.
 NSaved= 1 IEnMin= 1 EnMin= -76.4087346818950     IErMin= 1 ErrMin= 2.43D-06
 ErrMax= 2.43D-06  0.00D+00 EMaxC= 1.00D-01 BMatC= 7.69D-11 BMatP= 7.69D-11
 IDIUse=1 WtCom= 1.00D+00 WtEn= 0.00D+00
 Coeff-Com:  0.100D+01
 Coeff:      0.100D+01
 Gap=     0.350 Goal=   None    Shift=    0.000
 RMSDP=3.31D-06 MaxDP=2.01D-05 DE=-2.41D-07 OVMax= 6.35D-06

 Cycle   7  Pass 1  IDiag  1:
 E= -76.4087346818672     Delta-E=        0.000000000028 Rises=F Damp=F
 DIIS: error= 2.82D-06 at cycle   2 NSaved=   2.
 NSaved= 2 IEnMin= 1 EnMin= -76.4087346818950     IErMin= 1 ErrMin= 2.43D-06
 ErrMax= 2.82D-06  0.00D+00 EMaxC= 1.00D-01 BMatC= 1.35D-10 BMatP= 7.69D-11
 IDIUse=1 WtCom= 1.00D+00 WtEn= 0.00D+00
 Coeff-Com:  0.572D+00 0.428D+00
 Coeff:      0.572D+00 0.428D+00
 Gap=     0.350 Goal=   None    Shift=    0.000
 RMSDP=4.21D-07 MaxDP=2.96D-06 DE= 2.78D-11 OVMax= 2.98D-06

 Cycle   8  Pass 1  IDiag  1:
 E= -76.4087346819625     Delta-E=       -0.000000000095 Rises=F Damp=F
 DIIS: error= 1.72D-07 at cycle   3 NSaved=   3.
 NSaved= 3 IEnMin= 3 EnMin= -76.4087346819625     IErMin= 3 ErrMin= 1.72D-07
 ErrMax= 1.72D-07  0.00D+00 EMaxC= 1.00D-01 BMatC= 3.66D-13 BMatP= 7.69D-11
 IDIUse=1 WtCom= 1.00D+00 WtEn= 0.00D+00
 Coeff-Com: -0.787D-01-0.407D-02 0.108D+01
 Coeff:     -0.787D-01-0.407D-02 0.108D+01
 Gap=     0.350 Goal=   None    Shift=    0.000
 RMSDP=3.61D-08 MaxDP=2.14D-07 DE=-9.53D-11 OVMax= 2.80D-07

 Cycle   9  Pass 1  IDiag  1:
 E= -76.4087346819629     Delta-E=        0.000000000000 Rises=F Damp=F
 DIIS: error= 7.34D-09 at cycle   4 NSaved=   4.
 NSaved= 4 IEnMin= 4 EnMin= -76.4087346819629     IErMin= 4 ErrMin= 7.34D-09
 ErrMax= 7.34D-09  0.00D+00 EMaxC= 1.00D-01 BMatC= 6.65D-16 BMatP= 3.66D-13
 IDIUse=1 WtCom= 1.00D+00 WtEn= 0.00D+00
 Coeff-Com: -0.626D-02-0.192D-03 0.508D-01 0.956D+00
 Coeff:     -0.626D-02-0.192D-03 0.508D-01 0.956D+00
 Gap=     0.350 Goal=   None    Shift=    0.000
 RMSDP=1.23D-09 MaxDP=8.06D-09 DE=-3.98D-13 OVMax= 1.15D-08

 SCF Done:  E(RB3LYP) =  -76.4087346820     A.U. after    9 cycles
            NFock=  9  Conv=0.12D-08     -V/T= 2.0083
 KE= 7.578238425632D+01 PE=-1.985402780673D+02 EE= 3.736223408761D+01
 Leave Link  502 at Tue Aug 25 16:47:41 2020, MaxMem=   104857600 cpu:               0.3 elap:               0.3
 (Enter /n/sw/g16_nehalem/g16/l701.exe)
 ... and contract with generalized density number  0.
 Compute integral first derivatives.
 Leave Link  701 at Tue Aug 25 16:47:41 2020, MaxMem=   104857600 cpu:               0.1 elap:               0.1
 (Enter /n/sw/g16_nehalem/g16/l702.exe)
 L702 exits ... SP integral derivatives will be done elsewhere.
 Leave Link  702 at Tue Aug 25 16:47:41 2020, MaxMem=   104857600 cpu:               0.0 elap:               0.0
 (Enter /n/sw/g16_nehalem/g16/l703.exe)
 Integral derivatives from FoFJK, PRISM(SPDF).
 Compute integral first derivatives, UseDBF=F ICtDFT=           0.
 Calling FoFJK, ICntrl=      2127 FMM=F ISym2X=1 I1Cent= 0 IOpClX= 0 NMat=1 NMatS=1 NMatT=0.
 FoFJK:  IHMeth= 1 ICntrl=    2127 DoSepK=F KAlg= 0 I1Cent=           0 FoldK=F
 IRaf=         0 NMat=       1 IRICut=       1 DoRegI=T DoRafI=F ISym2E= 1 IDoP0=0 IntGTp=1.
 FoFCou: FMM=F IPFlag=           0 FMFlag=      100000 FMFlg1=         800
         NFxFlg=           0 DoJE=F BraDBF=F KetDBF=F FulRan=T
         wScrn=  0.000000 ICntrl=      2127 IOpCl=  0 I1Cent=           0 NGrid=           0
         NMat0=    1 NMatS0=      1 NMatT0=    0 NMatD0=    1 NMtDS0=    0 NMtDT0=    0
 Petite list used in FoFCou.
 Leave Link  703 at Tue Aug 25 16:47:41 2020, MaxMem=   104857600 cpu:               0.2 elap:               0.2
 (Enter /n/sw/g16_nehalem/g16/l716.exe)
 Dipole        =-6.67503206D-17 0.00000000D+00-8.22718573D-01
 ***** Axes restored to original set *****
 -------------------------------------------------------------------
 Center     Atomic                   Forces (Hartrees/Bohr)
 Number     Number              X              Y              Z
 -------------------------------------------------------------------
      1        8           0.007196038    0.007196038    0.000000000
      2        1          -0.009886718    0.002690679    0.000000000
      3        1           0.002690679   -0.009886718    0.000000000
 -------------------------------------------------------------------
 Cartesian Forces:  Max     0.009886718 RMS     0.005902352
 Leave Link  716 at Tue Aug 25 16:47:41 2020, MaxMem=   104857600 cpu:               0.0 elap:               0.0
 (Enter /n/sw/g16_nehalem/g16/l103.exe)

 GradGradGradGradGradGradGradGradGradGradGradGradGradGradGradGradGradGrad
 Berny optimization.
 Using GEDIIS/GDIIS optimizer.
 FormGI is forming the generalized inverse of G from B-inverse, IUseBI=4.
 Internal  Forces:  Max     0.010142507 RMS     0.008425986
 Search for a local minimum.
 Step number   2 out of a maximum of   20
 All quantities printed in internal units (Hartrees-Bohrs-Radians)
 RMS Force = .84260D-02 SwitMx=.10000D-02 MixMth= 1
 Mixed Optimization -- RFO/linear search
 Update second derivatives using D2CorX and points    1    2
 DE= -5.89D-03 DEPred=-6.34D-03 R= 9.29D-01
 TightC=F SS=  1.41D+00  RLast= 2.53D-01 DXNew= 5.0454D-01 7.5761D-01
 Trust test= 9.29D-01 RLast= 2.53D-01 DXMaxT set to 5.05D-01
 The second derivative matrix:
                          R1        R2        A1
           R1           0.45279
           R2          -0.02410   0.45279
           A1           0.03168   0.03168   0.19282
 ITU=  1  0
 Use linear search instead of GDIIS.
     Eigenvalues ---    0.18460   0.43692   0.47688
 RFO step:  Lambda=-4.85539994D-04 EMin= 1.84597459D-01
 Quartic linear search produced a step of  0.01125.
 Iteration  1 RMS(Cart)=  0.01837388 RMS(Int)=  0.00004553
 Iteration  2 RMS(Cart)=  0.00004122 RMS(Int)=  0.00000000
 Iteration  3 RMS(Cart)=  0.00000000 RMS(Int)=  0.00000000
 ITry= 1 IFail=0 DXMaxC= 1.77D-02 DCOld= 1.00D+10 DXMaxT= 5.05D-01 DXLimC= 3.00D+00 Rises=F
 ClnCor:  largest displacement from symmetrization is 1.33D-15 for atom     3.
 Variable       Old X    -DE/DX   Delta X   Delta X   Delta X     New X
                                 (Linear)    (Quad)   (Total)
    R1        1.85091  -0.01014  -0.00044  -0.02276  -0.02319   1.82772
    R2        1.85091  -0.01014  -0.00044  -0.02276  -0.02319   1.82772
    A1        1.81730  -0.00269   0.00277  -0.00891  -0.00614   1.81115
         Item               Value     Threshold  Converged?
 Maximum Force            0.010143     0.000450     NO 
 RMS     Force            0.008426     0.000300     NO 
 Maximum Displacement     0.017697     0.001800     NO 
 RMS     Displacement     0.018353     0.001200     NO 
 Predicted change in Energy=-2.437465D-04
 Lowest energy point so far.  Saving SCF results.
 GradGradGradGradGradGradGradGradGradGradGradGradGradGradGradGradGradGrad

 Leave Link  103 at Tue Aug 25 16:47:41 2020, MaxMem=   104857600 cpu:               0.0 elap:               0.0
 (Enter /n/sw/g16_nehalem/g16/l202.exe)
                          Input orientation:                          
 ---------------------------------------------------------------------
 Center     Atomic      Atomic             Coordinates (Angstroms)
 Number     Number       Type             X           Y           Z
 ---------------------------------------------------------------------
      1          8           0        0.051915    0.051915    0.000000
      2          1           0        1.012125   -0.064040    0.000000
      3          1           0       -0.064040    1.012125    0.000000
 ---------------------------------------------------------------------
                    Distance matrix (angstroms):
                    1          2          3
     1  O    0.000000
     2  H    0.967186   0.000000
     3  H    0.967186   1.521928   0.000000
 Stoichiometry    H2O
 Framework group  C2V[C2(O),SGV(H2)]
 Deg. of freedom     2
 Full point group                 C2V     NOp   4
 RotChk:  IX=0 Diff= 3.93D-16
 Largest Abelian subgroup         C2V     NOp   4
 Largest concise Abelian subgroup C2      NOp   2
                         Standard orientation:                         
 ---------------------------------------------------------------------
 Center     Atomic      Atomic             Coordinates (Angstroms)
 Number     Number       Type             X           Y           Z
 ---------------------------------------------------------------------
      1          8           0        0.000000    0.000000    0.119396
      2          1           0        0.000000    0.760964   -0.477582
      3          1           0        0.000000   -0.760964   -0.477582
 ---------------------------------------------------------------------
 Rotational constants (GHZ):         792.1932971         432.9862645         279.9661594
 Leave Link  202 at Tue Aug 25 16:47:41 2020, MaxMem=   104857600 cpu:               0.0 elap:               0.0
 (Enter /n/sw/g16_nehalem/g16/l301.exe)
 Standard basis: 6-31G(d) (6D, 7F)
 Ernie: Thresh=  0.10000D-02 Tol=  0.10000D-05 Strict=F.
 There are    10 symmetry adapted cartesian basis functions of A1  symmetry.
 There are     1 symmetry adapted cartesian basis functions of A2  symmetry.
 There are     3 symmetry adapted cartesian basis functions of B1  symmetry.
 There are     5 symmetry adapted cartesian basis functions of B2  symmetry.
 There are    10 symmetry adapted basis functions of A1  symmetry.
 There are     1 symmetry adapted basis functions of A2  symmetry.
 There are     3 symmetry adapted basis functions of B1  symmetry.
 There are     5 symmetry adapted basis functions of B2  symmetry.
    19 basis functions,    36 primitive gaussians,    19 cartesian basis functions
     5 alpha electrons        5 beta electrons
       nuclear repulsion energy         9.1017963907 Hartrees.
 IExCor=  402 DFT=T Ex+Corr=B3LYP ExCW=0 ScaHFX=  0.200000
 ScaDFX=  0.800000  0.720000  1.000000  0.810000 ScalE2=  1.000000  1.000000
 IRadAn=      5 IRanWt=     -1 IRanGd=            0 ICorTp=0 IEmpDi=  4
 NAtoms=    3 NActive=    3 NUniq=    2 SFac= 2.25D+00 NAtFMM=   60 NAOKFM=F Big=F
 Integral buffers will be    131072 words long.
 Raffenetti 2 integral format.
 Two-electron integral symmetry is turned on.
 Leave Link  301 at Tue Aug 25 16:47:41 2020, MaxMem=   104857600 cpu:               0.0 elap:               0.0
 (Enter /n/sw/g16_nehalem/g16/l302.exe)
 NPDir=0 NMtPBC=     1 NCelOv=     1 NCel=       1 NClECP=     1 NCelD=      1
         NCelK=      1 NCelE2=     1 NClLst=     1 CellRange=     0.0.
 One-electron integrals computed using PRISM.
 One-electron integral symmetry used in STVInt
 NBasis=    19 RedAO= T EigKep=  2.26D-02  NBF=    10     1     3     5
 NBsUse=    19 1.00D-06 EigRej= -1.00D+00 NBFU=    10     1     3     5
 Precomputing XC quadrature grid using
 IXCGrd= 4 IRadAn=           5 IRanWt=          -1 IRanGd=           0 AccXCQ= 0.00D+00.
 Generated NRdTot=       0 NPtTot=           0 NUsed=           0 NTot=          32
 NSgBfM=    19    19    19    19    19 MxSgAt=     3 MxSgA2=     3.
 Leave Link  302 at Tue Aug 25 16:47:41 2020, MaxMem=   104857600 cpu:               0.1 elap:               0.1
 (Enter /n/sw/g16_nehalem/g16/l303.exe)
 DipDrv:  MaxL=1.
 Leave Link  303 at Tue Aug 25 16:47:41 2020, MaxMem=   104857600 cpu:               0.0 elap:               0.0
 (Enter /n/sw/g16_nehalem/g16/l401.exe)
 Initial guess from the checkpoint file:  "/scratch/Gau-439735.chk"
 B after Tr=     0.000000    0.000000    0.000000
         Rot=    1.000000    0.000000    0.000000    0.000000 Ang=   0.00 deg.
 Guess basis will be translated and rotated to current coordinates.
 JPrj=2 DoOrth=T DoCkMO=T.
 Initial guess orbital symmetries:
       Occupied  (A1) (A1) (B2) (A1) (B1)
       Virtual   (A1) (B2) (B2) (A1) (B1) (A1) (B2) (A1) (A1) (A2)
                 (B1) (A1) (B2) (A1)
 The electronic state of the initial guess is 1-A1.
 Leave Link  401 at Tue Aug 25 16:47:41 2020, MaxMem=   104857600 cpu:               0.1 elap:               0.1
 (Enter /n/sw/g16_nehalem/g16/l502.exe)
 Keep R1 ints in memory in symmetry-blocked form, NReq=881193.
 FoFCou: FMM=F IPFlag=           0 FMFlag=           0 FMFlg1=           0
         NFxFlg=           0 DoJE=F BraDBF=F KetDBF=F FulRan=T
         wScrn=  0.000000 ICntrl=       600 IOpCl=  0 I1Cent=           0 NGrid=           0
         NMat0=    1 NMatS0=    190 NMatT0=    0 NMatD0=    1 NMtDS0=    0 NMtDT0=    0
 Petite list used in FoFCou.
 Closed shell SCF:
 Using DIIS extrapolation, IDIIS=  1040.
 NGot=   104857600 LenX=   104849670 LenY=   104848788
 Requested convergence on RMS density matrix=1.00D-08 within 128 cycles.
 Requested convergence on MAX density matrix=1.00D-06.
 Requested convergence on             energy=1.00D-06.
 No special actions if energy rises.

 Cycle   1  Pass 1  IDiag  1:
 E= -76.4088631051274    
 DIIS: error= 2.20D-03 at cycle   1 NSaved=   1.
 NSaved= 1 IEnMin= 1 EnMin= -76.4088631051274     IErMin= 1 ErrMin= 2.20D-03
 ErrMax= 2.20D-03  0.00D+00 EMaxC= 1.00D-01 BMatC= 7.85D-05 BMatP= 7.85D-05
 IDIUse=3 WtCom= 9.78D-01 WtEn= 2.20D-02
 Coeff-Com:  0.100D+01
 Coeff-En:   0.100D+01
 Coeff:      0.100D+01
 Gap=     0.357 Goal=   None    Shift=    0.000
 GapD=    0.357 DampG=1.000 DampE=1.000 DampFc=1.0000 IDamp=-1.
 RMSDP=6.82D-04 MaxDP=4.88D-03              OVMax= 5.68D-03

 Cycle   2  Pass 1  IDiag  1:
 E= -76.4089042846820     Delta-E=       -0.000041179555 Rises=F Damp=F
 DIIS: error= 2.07D-03 at cycle   2 NSaved=   2.
 NSaved= 2 IEnMin= 2 EnMin= -76.4089042846820     IErMin= 2 ErrMin= 2.07D-03
 ErrMax= 2.07D-03  0.00D+00 EMaxC= 1.00D-01 BMatC= 6.55D-05 BMatP= 7.85D-05
 IDIUse=3 WtCom= 9.79D-01 WtEn= 2.07D-02
 Coeff-Com:  0.471D+00 0.529D+00
 Coeff-En:   0.235D+00 0.765D+00
 Coeff:      0.466D+00 0.534D+00
 Gap=     0.354 Goal=   None    Shift=    0.000
 RMSDP=3.37D-04 MaxDP=2.30D-03 DE=-4.12D-05 OVMax= 2.35D-03

 Cycle   3  Pass 1  IDiag  1:
 E= -76.4089456811411     Delta-E=       -0.000041396459 Rises=F Damp=F
 DIIS: error= 5.28D-04 at cycle   3 NSaved=   3.
 NSaved= 3 IEnMin= 3 EnMin= -76.4089456811411     IErMin= 3 ErrMin= 5.28D-04
 ErrMax= 5.28D-04  0.00D+00 EMaxC= 1.00D-01 BMatC= 5.48D-06 BMatP= 6.55D-05
 IDIUse=3 WtCom= 9.95D-01 WtEn= 5.28D-03
 Coeff-Com:  0.302D-01 0.226D+00 0.744D+00
 Coeff-En:   0.000D+00 0.180D-01 0.982D+00
 Coeff:      0.300D-01 0.224D+00 0.745D+00
 Gap=     0.354 Goal=   None    Shift=    0.000
 RMSDP=9.22D-05 MaxDP=7.35D-04 DE=-4.14D-05 OVMax= 7.14D-04

 Cycle   4  Pass 1  IDiag  1:
 E= -76.4089495669251     Delta-E=       -0.000003885784 Rises=F Damp=F
 DIIS: error= 5.97D-05 at cycle   4 NSaved=   4.
 NSaved= 4 IEnMin= 4 EnMin= -76.4089495669251     IErMin= 4 ErrMin= 5.97D-05
 ErrMax= 5.97D-05  0.00D+00 EMaxC= 1.00D-01 BMatC= 6.16D-08 BMatP= 5.48D-06
 IDIUse=1 WtCom= 1.00D+00 WtEn= 0.00D+00
 Coeff-Com: -0.761D-02 0.257D-01 0.165D+00 0.817D+00
 Coeff:     -0.761D-02 0.257D-01 0.165D+00 0.817D+00
 Gap=     0.354 Goal=   None    Shift=    0.000
 RMSDP=8.50D-06 MaxDP=6.53D-05 DE=-3.89D-06 OVMax= 7.30D-05

 Cycle   5  Pass 1  IDiag  1:
 E= -76.4089496133706     Delta-E=       -0.000000046445 Rises=F Damp=F
 DIIS: error= 1.83D-06 at cycle   5 NSaved=   5.
 NSaved= 5 IEnMin= 5 EnMin= -76.4089496133706     IErMin= 5 ErrMin= 1.83D-06
 ErrMax= 1.83D-06  0.00D+00 EMaxC= 1.00D-01 BMatC= 4.39D-11 BMatP= 6.16D-08
 IDIUse=1 WtCom= 1.00D+00 WtEn= 0.00D+00
 Coeff-Com:  0.732D-04-0.192D-02-0.964D-02-0.198D-01 0.103D+01
 Coeff:      0.732D-04-0.192D-02-0.964D-02-0.198D-01 0.103D+01
 Gap=     0.354 Goal=   None    Shift=    0.000
 RMSDP=8.49D-07 MaxDP=6.85D-06 DE=-4.64D-08 OVMax= 7.91D-06

 Cycle   6  Pass 1  IDiag  1:
 E= -76.4089496134548     Delta-E=       -0.000000000084 Rises=F Damp=F
 DIIS: error= 2.99D-07 at cycle   6 NSaved=   6.
 NSaved= 6 IEnMin= 6 EnMin= -76.4089496134548     IErMin= 6 ErrMin= 2.99D-07
 ErrMax= 2.99D-07  0.00D+00 EMaxC= 1.00D-01 BMatC= 1.24D-12 BMatP= 4.39D-11
 IDIUse=1 WtCom= 1.00D+00 WtEn= 0.00D+00
 Coeff-Com:  0.217D-04-0.481D-04 0.158D-03-0.275D-02-0.671D-01 0.107D+01
 Coeff:      0.217D-04-0.481D-04 0.158D-03-0.275D-02-0.671D-01 0.107D+01
 Gap=     0.354 Goal=   None    Shift=    0.000
 RMSDP=5.91D-08 MaxDP=3.69D-07 DE=-8.43D-11 OVMax= 5.00D-07

 Cycle   7  Pass 1  IDiag  1:
 E= -76.4089496134560     Delta-E=       -0.000000000001 Rises=F Damp=F
 DIIS: error= 6.57D-09 at cycle   7 NSaved=   7.
 NSaved= 7 IEnMin= 7 EnMin= -76.4089496134560     IErMin= 7 ErrMin= 6.57D-09
 ErrMax= 6.57D-09  0.00D+00 EMaxC= 1.00D-01 BMatC= 6.70D-16 BMatP= 1.24D-12
 IDIUse=1 WtCom= 1.00D+00 WtEn= 0.00D+00
 Coeff-Com: -0.162D-05 0.959D-05 0.112D-04 0.269D-03 0.193D-02-0.760D-01
 Coeff-Com:  0.107D+01
 Coeff:     -0.162D-05 0.959D-05 0.112D-04 0.269D-03 0.193D-02-0.760D-01
 Coeff:      0.107D+01
 Gap=     0.354 Goal=   None    Shift=    0.000
 RMSDP=2.76D-09 MaxDP=2.28D-08 DE=-1.18D-12 OVMax= 2.34D-08

 SCF Done:  E(RB3LYP) =  -76.4089496135     A.U. after    7 cycles
            NFock=  7  Conv=0.28D-08     -V/T= 2.0077
 KE= 7.582457421301D+01 PE=-1.987862315503D+02 EE= 3.745091133313D+01
 Leave Link  502 at Tue Aug 25 16:47:42 2020, MaxMem=   104857600 cpu:               0.3 elap:               0.3
 (Enter /n/sw/g16_nehalem/g16/l701.exe)
 ... and contract with generalized density number  0.
 Compute integral first derivatives.
 Leave Link  701 at Tue Aug 25 16:47:42 2020, MaxMem=   104857600 cpu:               0.1 elap:               0.1
 (Enter /n/sw/g16_nehalem/g16/l702.exe)
 L702 exits ... SP integral derivatives will be done elsewhere.
 Leave Link  702 at Tue Aug 25 16:47:42 2020, MaxMem=   104857600 cpu:               0.0 elap:               0.0
 (Enter /n/sw/g16_nehalem/g16/l703.exe)
 Integral derivatives from FoFJK, PRISM(SPDF).
 Compute integral first derivatives, UseDBF=F ICtDFT=           0.
 Calling FoFJK, ICntrl=      2127 FMM=F ISym2X=1 I1Cent= 0 IOpClX= 0 NMat=1 NMatS=1 NMatT=0.
 FoFJK:  IHMeth= 1 ICntrl=    2127 DoSepK=F KAlg= 0 I1Cent=           0 FoldK=F
 IRaf=         0 NMat=       1 IRICut=       1 DoRegI=T DoRafI=F ISym2E= 1 IDoP0=0 IntGTp=1.
 FoFCou: FMM=F IPFlag=           0 FMFlag=      100000 FMFlg1=         800
         NFxFlg=           0 DoJE=F BraDBF=F KetDBF=F FulRan=T
         wScrn=  0.000000 ICntrl=      2127 IOpCl=  0 I1Cent=           0 NGrid=           0
         NMat0=    1 NMatS0=      1 NMatT0=    0 NMatD0=    1 NMtDS0=    0 NMtDT0=    0
 Petite list used in FoFCou.
 Leave Link  703 at Tue Aug 25 16:47:42 2020, MaxMem=   104857600 cpu:               0.2 elap:               0.2
 (Enter /n/sw/g16_nehalem/g16/l716.exe)
 Dipole        =-6.58876788D-17 0.00000000D+00-8.23472557D-01
 ***** Axes restored to original set *****
 -------------------------------------------------------------------
 Center     Atomic                   Forces (Hartrees/Bohr)
 Number     Number              X              Y              Z
 -------------------------------------------------------------------
      1        8          -0.001361619   -0.001361619    0.000000000
      2        1           0.001428751   -0.000067131    0.000000000
      3        1          -0.000067131    0.001428751    0.000000000
 -------------------------------------------------------------------
 Cartesian Forces:  Max     0.001428751 RMS     0.000930930
 Leave Link  716 at Tue Aug 25 16:47:42 2020, MaxMem=   104857600 cpu:               0.0 elap:               0.0
 (Enter /n/sw/g16_nehalem/g16/l103.exe)

 GradGradGradGradGradGradGradGradGradGradGradGradGradGradGradGradGradGrad
 Berny optimization.
 Using GEDIIS/GDIIS optimizer.
 FormGI is forming the generalized inverse of G from B-inverse, IUseBI=4.
 Internal  Forces:  Max     0.001426494 RMS     0.001169950
 Search for a local minimum.
 Step number   3 out of a maximum of   20
 All quantities printed in internal units (Hartrees-Bohrs-Radians)
 RMS Force = .11700D-02 SwitMx=.10000D-02 MixMth= 1
 Mixed Optimization -- RFO/linear search
 Update second derivatives using D2CorX and points    1    2    3
 DE= -2.15D-04 DEPred=-2.44D-04 R= 8.82D-01
 TightC=F SS=  1.41D+00  RLast= 3.34D-02 DXNew= 8.4853D-01 1.0011D-01
 Trust test= 8.82D-01 RLast= 3.34D-02 DXMaxT set to 5.05D-01
 The second derivative matrix:
                          R1        R2        A1
           R1           0.48405
           R2           0.00717   0.48405
           A1           0.02871   0.02871   0.19045
 ITU=  1  1  0
 Use linear search instead of GDIIS.
     Eigenvalues ---    0.18507   0.47688   0.49661
 RFO step:  Lambda=-1.33032055D-06 EMin= 1.85065493D-01
 Quartic linear search produced a step of -0.11342.
 Iteration  1 RMS(Cart)=  0.00179769 RMS(Int)=  0.00000193
 Iteration  2 RMS(Cart)=  0.00000215 RMS(Int)=  0.00000000
 Iteration  3 RMS(Cart)=  0.00000000 RMS(Int)=  0.00000000
 ITry= 1 IFail=0 DXMaxC= 1.60D-03 DCOld= 1.00D+10 DXMaxT= 5.05D-01 DXLimC= 3.00D+00 Rises=F
 ClnCor:  largest displacement from symmetrization is 4.60D-16 for atom     3.
 Variable       Old X    -DE/DX   Delta X   Delta X   Delta X     New X
                                 (Linear)    (Quad)   (Total)
    R1        1.82772   0.00143   0.00263   0.00029   0.00292   1.83063
    R2        1.82772   0.00143   0.00263   0.00029   0.00292   1.83063
    A1        1.81115  -0.00019   0.00070  -0.00265  -0.00195   1.80920
         Item               Value     Threshold  Converged?
 Maximum Force            0.001426     0.000450     NO 
 RMS     Force            0.001170     0.000300     NO 
 Maximum Displacement     0.001598     0.001800     YES
 RMS     Displacement     0.001797     0.001200     NO 
 Predicted change in Energy=-4.479863D-06
 Lowest energy point so far.  Saving SCF results.
 GradGradGradGradGradGradGradGradGradGradGradGradGradGradGradGradGradGrad

 Leave Link  103 at Tue Aug 25 16:47:42 2020, MaxMem=   104857600 cpu:               0.0 elap:               0.0
 (Enter /n/sw/g16_nehalem/g16/l202.exe)
                          Input orientation:                          
 ---------------------------------------------------------------------
 Center     Atomic      Atomic             Coordinates (Angstroms)
 Number     Number       Type             X           Y           Z
 ---------------------------------------------------------------------
      1          8           0        0.051115    0.051115    0.000000
      2          1           0        1.012971   -0.064086    0.000000
      3          1           0       -0.064086    1.012971    0.000000
 ---------------------------------------------------------------------
                    Distance matrix (angstroms):
                    1          2          3
     1  O    0.000000
     2  H    0.968729   0.000000
     3  H    0.968729   1.523188   0.000000
 Stoichiometry    H2O
 Framework group  C2V[C2(O),SGV(H2)]
 Deg. of freedom     2
 Full point group                 C2V     NOp   4
 RotChk:  IX=0 Diff= 3.93D-16
 Largest Abelian subgroup         C2V     NOp   4
 Largest concise Abelian subgroup C2      NOp   2
                         Standard orientation:                         
 ---------------------------------------------------------------------
 Center     Atomic      Atomic             Coordinates (Angstroms)
 Number     Number       Type             X           Y           Z
 ---------------------------------------------------------------------
      1          8           0        0.000000    0.000000    0.119735
      2          1           0        0.000000    0.761594   -0.478940
      3          1           0        0.000000   -0.761594   -0.478940
 ---------------------------------------------------------------------
 Rotational constants (GHZ):         787.7093968         432.2698999         279.1056070
 Leave Link  202 at Tue Aug 25 16:47:42 2020, MaxMem=   104857600 cpu:               0.0 elap:               0.0
 (Enter /n/sw/g16_nehalem/g16/l301.exe)
 Standard basis: 6-31G(d) (6D, 7F)
 Ernie: Thresh=  0.10000D-02 Tol=  0.10000D-05 Strict=F.
 There are    10 symmetry adapted cartesian basis functions of A1  symmetry.
 There are     1 symmetry adapted cartesian basis functions of A2  symmetry.
 There are     3 symmetry adapted cartesian basis functions of B1  symmetry.
 There are     5 symmetry adapted cartesian basis functions of B2  symmetry.
 There are    10 symmetry adapted basis functions of A1  symmetry.
 There are     1 symmetry adapted basis functions of A2  symmetry.
 There are     3 symmetry adapted basis functions of B1  symmetry.
 There are     5 symmetry adapted basis functions of B2  symmetry.
    19 basis functions,    36 primitive gaussians,    19 cartesian basis functions
     5 alpha electrons        5 beta electrons
       nuclear repulsion energy         9.0875596044 Hartrees.
 IExCor=  402 DFT=T Ex+Corr=B3LYP ExCW=0 ScaHFX=  0.200000
 ScaDFX=  0.800000  0.720000  1.000000  0.810000 ScalE2=  1.000000  1.000000
 IRadAn=      5 IRanWt=     -1 IRanGd=            0 ICorTp=0 IEmpDi=  4
 NAtoms=    3 NActive=    3 NUniq=    2 SFac= 2.25D+00 NAtFMM=   60 NAOKFM=F Big=F
 Integral buffers will be    131072 words long.
 Raffenetti 2 integral format.
 Two-electron integral symmetry is turned on.
 Leave Link  301 at Tue Aug 25 16:47:42 2020, MaxMem=   104857600 cpu:               0.1 elap:               0.0
 (Enter /n/sw/g16_nehalem/g16/l302.exe)
 NPDir=0 NMtPBC=     1 NCelOv=     1 NCel=       1 NClECP=     1 NCelD=      1
         NCelK=      1 NCelE2=     1 NClLst=     1 CellRange=     0.0.
 One-electron integrals computed using PRISM.
 One-electron integral symmetry used in STVInt
 NBasis=    19 RedAO= T EigKep=  2.27D-02  NBF=    10     1     3     5
 NBsUse=    19 1.00D-06 EigRej= -1.00D+00 NBFU=    10     1     3     5
 Precomputing XC quadrature grid using
 IXCGrd= 4 IRadAn=           5 IRanWt=          -1 IRanGd=           0 AccXCQ= 0.00D+00.
 Generated NRdTot=       0 NPtTot=           0 NUsed=           0 NTot=          32
 NSgBfM=    19    19    19    19    19 MxSgAt=     3 MxSgA2=     3.
 Leave Link  302 at Tue Aug 25 16:47:42 2020, MaxMem=   104857600 cpu:               0.1 elap:               0.1
 (Enter /n/sw/g16_nehalem/g16/l303.exe)
 DipDrv:  MaxL=1.
 Leave Link  303 at Tue Aug 25 16:47:42 2020, MaxMem=   104857600 cpu:               0.0 elap:               0.0
 (Enter /n/sw/g16_nehalem/g16/l401.exe)
 Initial guess from the checkpoint file:  "/scratch/Gau-439735.chk"
 B after Tr=     0.000000    0.000000    0.000000
         Rot=    1.000000    0.000000    0.000000    0.000000 Ang=   0.00 deg.
 Guess basis will be translated and rotated to current coordinates.
 JPrj=2 DoOrth=T DoCkMO=T.
 Initial guess orbital symmetries:
       Occupied  (A1) (A1) (B2) (A1) (B1)
       Virtual   (A1) (B2) (B2) (A1) (B1) (A1) (B2) (A1) (A1) (A2)
                 (B1) (A1) (B2) (A1)
 The electronic state of the initial guess is 1-A1.
 Leave Link  401 at Tue Aug 25 16:47:42 2020, MaxMem=   104857600 cpu:               0.1 elap:               0.1
 (Enter /n/sw/g16_nehalem/g16/l502.exe)
 Keep R1 ints in memory in symmetry-blocked form, NReq=881193.
 FoFCou: FMM=F IPFlag=           0 FMFlag=           0 FMFlg1=           0
         NFxFlg=           0 DoJE=F BraDBF=F KetDBF=F FulRan=T
         wScrn=  0.000000 ICntrl=       600 IOpCl=  0 I1Cent=           0 NGrid=           0
         NMat0=    1 NMatS0=    190 NMatT0=    0 NMatD0=    1 NMtDS0=    0 NMtDT0=    0
 Petite list used in FoFCou.
 Closed shell SCF:
 Using DIIS extrapolation, IDIIS=  1040.
 NGot=   104857600 LenX=   104849670 LenY=   104848788
 Requested convergence on RMS density matrix=1.00D-08 within 128 cycles.
 Requested convergence on MAX density matrix=1.00D-06.
 Requested convergence on             energy=1.00D-06.
 No special actions if energy rises.

 Cycle   1  Pass 1  IDiag  1:
 E= -76.4089522344054    
 DIIS: error= 3.03D-04 at cycle   1 NSaved=   1.
 NSaved= 1 IEnMin= 1 EnMin= -76.4089522344054     IErMin= 1 ErrMin= 3.03D-04
 ErrMax= 3.03D-04  0.00D+00 EMaxC= 1.00D-01 BMatC= 1.32D-06 BMatP= 1.32D-06
 IDIUse=3 WtCom= 9.97D-01 WtEn= 3.03D-03
 Coeff-Com:  0.100D+01
 Coeff-En:   0.100D+01
 Coeff:      0.100D+01
 Gap=     0.353 Goal=   None    Shift=    0.000
 RMSDP=1.10D-04 MaxDP=8.92D-04              OVMax= 8.79D-04

 Cycle   2  Pass 1  IDiag  1:
 E= -76.4089531585019     Delta-E=       -0.000000924097 Rises=F Damp=F
 DIIS: error= 2.77D-04 at cycle   2 NSaved=   2.
 NSaved= 2 IEnMin= 2 EnMin= -76.4089531585019     IErMin= 2 ErrMin= 2.77D-04
 ErrMax= 2.77D-04  0.00D+00 EMaxC= 1.00D-01 BMatC= 1.18D-06 BMatP= 1.32D-06
 IDIUse=3 WtCom= 9.97D-01 WtEn= 2.77D-03
 Coeff-Com:  0.482D+00 0.518D+00
 Coeff-En:   0.155D+00 0.845D+00
 Coeff:      0.481D+00 0.519D+00
 Gap=     0.354 Goal=   None    Shift=    0.000
 RMSDP=4.46D-05 MaxDP=3.01D-04 DE=-9.24D-07 OVMax= 3.16D-04

 Cycle   3  Pass 1  IDiag  1:
 E= -76.4089539206262     Delta-E=       -0.000000762124 Rises=F Damp=F
 DIIS: error= 6.47D-05 at cycle   3 NSaved=   3.
 NSaved= 3 IEnMin= 3 EnMin= -76.4089539206262     IErMin= 3 ErrMin= 6.47D-05
 ErrMax= 6.47D-05  0.00D+00 EMaxC= 1.00D-01 BMatC= 7.81D-08 BMatP= 1.18D-06
 IDIUse=1 WtCom= 1.00D+00 WtEn= 0.00D+00
 Coeff-Com: -0.441D-02 0.199D+00 0.806D+00
 Coeff:     -0.441D-02 0.199D+00 0.806D+00
 Gap=     0.354 Goal=   None    Shift=    0.000
 RMSDP=1.12D-05 MaxDP=8.90D-05 DE=-7.62D-07 OVMax= 9.24D-05

 Cycle   4  Pass 1  IDiag  1:
 E= -76.4089539770337     Delta-E=       -0.000000056408 Rises=F Damp=F
 DIIS: error= 6.01D-06 at cycle   4 NSaved=   4.
 NSaved= 4 IEnMin= 4 EnMin= -76.4089539770337     IErMin= 4 ErrMin= 6.01D-06
 ErrMax= 6.01D-06  0.00D+00 EMaxC= 1.00D-01 BMatC= 5.27D-10 BMatP= 7.81D-08
 IDIUse=1 WtCom= 1.00D+00 WtEn= 0.00D+00
 Coeff-Com: -0.805D-02 0.317D-01 0.173D+00 0.803D+00
 Coeff:     -0.805D-02 0.317D-01 0.173D+00 0.803D+00
 Gap=     0.354 Goal=   None    Shift=    0.000
 RMSDP=7.56D-07 MaxDP=4.95D-06 DE=-5.64D-08 OVMax= 7.10D-06

 Cycle   5  Pass 1  IDiag  1:
 E= -76.4089539774423     Delta-E=       -0.000000000409 Rises=F Damp=F
 DIIS: error= 3.17D-07 at cycle   5 NSaved=   5.
 NSaved= 5 IEnMin= 5 EnMin= -76.4089539774423     IErMin= 5 ErrMin= 3.17D-07
 ErrMax= 3.17D-07  0.00D+00 EMaxC= 1.00D-01 BMatC= 1.63D-12 BMatP= 5.27D-10
 IDIUse=1 WtCom= 1.00D+00 WtEn= 0.00D+00
 Coeff-Com:  0.578D-04-0.216D-02-0.101D-01 0.111D-01 0.100D+01
 Coeff:      0.578D-04-0.216D-02-0.101D-01 0.111D-01 0.100D+01
 Gap=     0.354 Goal=   None    Shift=    0.000
 RMSDP=1.37D-07 MaxDP=1.17D-06 DE=-4.09D-10 OVMax= 1.24D-06

 Cycle   6  Pass 1  IDiag  1:
 E= -76.4089539774449     Delta-E=       -0.000000000003 Rises=F Damp=F
 DIIS: error= 5.05D-08 at cycle   6 NSaved=   6.
 NSaved= 6 IEnMin= 6 EnMin= -76.4089539774449     IErMin= 6 ErrMin= 5.05D-08
 ErrMax= 5.05D-08  0.00D+00 EMaxC= 1.00D-01 BMatC= 3.50D-14 BMatP= 1.63D-12
 IDIUse=1 WtCom= 1.00D+00 WtEn= 0.00D+00
 Coeff-Com:  0.286D-04-0.106D-03 0.839D-04-0.604D-02-0.665D-01 0.107D+01
 Coeff:      0.286D-04-0.106D-03 0.839D-04-0.604D-02-0.665D-01 0.107D+01
 Gap=     0.354 Goal=   None    Shift=    0.000
 RMSDP=9.94D-09 MaxDP=6.52D-08 DE=-2.54D-12 OVMax= 8.88D-08

 SCF Done:  E(RB3LYP) =  -76.4089539774     A.U. after    6 cycles
            NFock=  6  Conv=0.99D-08     -V/T= 2.0078
 KE= 7.581949953275D+01 PE=-1.987553893758D+02 EE= 3.743937626120D+01
 Leave Link  502 at Tue Aug 25 16:47:43 2020, MaxMem=   104857600 cpu:               0.3 elap:               0.3
 (Enter /n/sw/g16_nehalem/g16/l701.exe)
 ... and contract with generalized density number  0.
 Compute integral first derivatives.
 Leave Link  701 at Tue Aug 25 16:47:43 2020, MaxMem=   104857600 cpu:               0.1 elap:               0.1
 (Enter /n/sw/g16_nehalem/g16/l702.exe)
 L702 exits ... SP integral derivatives will be done elsewhere.
 Leave Link  702 at Tue Aug 25 16:47:43 2020, MaxMem=   104857600 cpu:               0.0 elap:               0.0
 (Enter /n/sw/g16_nehalem/g16/l703.exe)
 Integral derivatives from FoFJK, PRISM(SPDF).
 Compute integral first derivatives, UseDBF=F ICtDFT=           0.
 Calling FoFJK, ICntrl=      2127 FMM=F ISym2X=1 I1Cent= 0 IOpClX= 0 NMat=1 NMatS=1 NMatT=0.
 FoFJK:  IHMeth= 1 ICntrl=    2127 DoSepK=F KAlg= 0 I1Cent=           0 FoldK=F
 IRaf=         0 NMat=       1 IRICut=       1 DoRegI=T DoRafI=F ISym2E= 1 IDoP0=0 IntGTp=1.
 FoFCou: FMM=F IPFlag=           0 FMFlag=      100000 FMFlg1=         800
         NFxFlg=           0 DoJE=F BraDBF=F KetDBF=F FulRan=T
         wScrn=  0.000000 ICntrl=      2127 IOpCl=  0 I1Cent=           0 NGrid=           0
         NMat0=    1 NMatS0=      1 NMatT0=    0 NMatD0=    1 NMtDS0=    0 NMtDT0=    0
 Petite list used in FoFCou.
 Leave Link  703 at Tue Aug 25 16:47:43 2020, MaxMem=   104857600 cpu:               0.2 elap:               0.2
 (Enter /n/sw/g16_nehalem/g16/l716.exe)
 Dipole        =-6.59072746D-17 0.00000000D+00-8.24332351D-01
 ***** Axes restored to original set *****
 -------------------------------------------------------------------
 Center     Atomic                   Forces (Hartrees/Bohr)
 Number     Number              X              Y              Z
 -------------------------------------------------------------------
      1        8          -0.000015086   -0.000015086    0.000000000
      2        1           0.000001392    0.000013695    0.000000000
      3        1           0.000013695    0.000001392    0.000000000
 -------------------------------------------------------------------
 Cartesian Forces:  Max     0.000015086 RMS     0.000009627
 Leave Link  716 at Tue Aug 25 16:47:43 2020, MaxMem=   104857600 cpu:               0.0 elap:               0.0
 (Enter /n/sw/g16_nehalem/g16/l103.exe)

 GradGradGradGradGradGradGradGradGradGradGradGradGradGradGradGradGradGrad
 Berny optimization.
 Using GEDIIS/GDIIS optimizer.
 FormGI is forming the generalized inverse of G from B-inverse, IUseBI=4.
 Internal  Forces:  Max     0.000025195 RMS     0.000014548
 Search for a local minimum.
 Step number   4 out of a maximum of   20
 All quantities printed in internal units (Hartrees-Bohrs-Radians)
 RMS Force = .14548D-04 SwitMx=.10000D-02 MixMth= 2
 Mixed Optimization -- En-DIIS/RFO-DIIS
 Update second derivatives using D2CorX and points    1    2    3    4
 DE= -4.36D-06 DEPred=-4.48D-06 R= 9.74D-01
 TightC=F SS=  1.41D+00  RLast= 4.56D-03 DXNew= 8.4853D-01 1.3692D-02
 Trust test= 9.74D-01 RLast= 4.56D-03 DXMaxT set to 5.05D-01
 The second derivative matrix:
                          R1        R2        A1
           R1           0.49455
           R2           0.01767   0.49455
           A1           0.03452   0.03452   0.18815
 ITU=  1  1  1  0
 Use linear search instead of GDIIS.
     Eigenvalues ---    0.18096   0.47688   0.51942
 RFO step:  Lambda= 0.00000000D+00 EMin= 1.80961377D-01
 Quartic linear search produced a step of  0.00555.
 Iteration  1 RMS(Cart)=  0.00007581 RMS(Int)=  0.00000000
 Iteration  2 RMS(Cart)=  0.00000000 RMS(Int)=  0.00000000
 ITry= 1 IFail=0 DXMaxC= 7.46D-05 DCOld= 1.00D+10 DXMaxT= 5.05D-01 DXLimC= 3.00D+00 Rises=F
 ClnCor:  largest displacement from symmetrization is 4.52D-16 for atom     3.
 Variable       Old X    -DE/DX   Delta X   Delta X   Delta X     New X
                                 (Linear)    (Quad)   (Total)
    R1        1.83063   0.00000   0.00002  -0.00001   0.00001   1.83064
    R2        1.83063   0.00000   0.00002  -0.00001   0.00001   1.83064
    A1        1.80920  -0.00003  -0.00001  -0.00013  -0.00014   1.80906
         Item               Value     Threshold  Converged?
 Maximum Force            0.000025     0.000450     YES
 RMS     Force            0.000015     0.000300     YES
 Maximum Displacement     0.000075     0.001800     YES
 RMS     Displacement     0.000076     0.001200     YES
 Predicted change in Energy=-1.725163D-09
 Optimization completed.
    -- Stationary point found.
                           ----------------------------
                           !   Optimized Parameters   !
                           ! (Angstroms and Degrees)  !
 --------------------------                            --------------------------
 ! Name  Definition              Value          Derivative Info.                !
 --------------------------------------------------------------------------------
 ! R1    R(1,2)                  0.9687         -DE/DX =    0.0                 !
 ! R2    R(1,3)                  0.9687         -DE/DX =    0.0                 !
 ! A1    A(2,1,3)              103.6596         -DE/DX =    0.0                 !
 --------------------------------------------------------------------------------
 Lowest energy point so far.  Saving SCF results.
 Largest change from initial coordinates is atom    3       0.102 Angstoms.
 GradGradGradGradGradGradGradGradGradGradGradGradGradGradGradGradGradGrad

 Leave Link  103 at Tue Aug 25 16:47:43 2020, MaxMem=   104857600 cpu:               0.0 elap:               0.0
 (Enter /n/sw/g16_nehalem/g16/l202.exe)
                          Input orientation:                          
 ---------------------------------------------------------------------
 Center     Atomic      Atomic             Coordinates (Angstroms)
 Number     Number       Type             X           Y           Z
 ---------------------------------------------------------------------
      1          8           0        0.051115    0.051115    0.000000
      2          1           0        1.012971   -0.064086    0.000000
      3          1           0       -0.064086    1.012971    0.000000
 ---------------------------------------------------------------------
                    Distance matrix (angstroms):
                    1          2          3
     1  O    0.000000
     2  H    0.968729   0.000000
     3  H    0.968729   1.523188   0.000000
 Stoichiometry    H2O
 Framework group  C2V[C2(O),SGV(H2)]
 Deg. of freedom     2
 Full point group                 C2V     NOp   4
 RotChk:  IX=0 Diff= 3.70D-32
 Largest Abelian subgroup         C2V     NOp   4
 Largest concise Abelian subgroup C2      NOp   2
                         Standard orientation:                         
 ---------------------------------------------------------------------
 Center     Atomic      Atomic             Coordinates (Angstroms)
 Number     Number       Type             X           Y           Z
 ---------------------------------------------------------------------
      1          8           0        0.000000    0.000000    0.119735
      2          1           0        0.000000    0.761594   -0.478940
      3          1           0        0.000000   -0.761594   -0.478940
 ---------------------------------------------------------------------
 Rotational constants (GHZ):         787.7093968         432.2698999         279.1056070
 Leave Link  202 at Tue Aug 25 16:47:43 2020, MaxMem=   104857600 cpu:               0.0 elap:               0.0
 (Enter /n/sw/g16_nehalem/g16/l601.exe)
 Copying SCF densities to generalized density rwf, IOpCl= 0 IROHF=0.

 **********************************************************************

            Population analysis using the SCF density.

 **********************************************************************

 Orbital symmetries:
       Occupied  (A1) (A1) (B2) (A1) (B1)
       Virtual   (A1) (B2) (B2) (A1) (B1) (A1) (B2) (A1) (A1) (A2)
                 (B1) (A1) (B2) (A1)
 The electronic state is 1-A1.
 Alpha  occ. eigenvalues --  -19.13817  -0.99787  -0.51715  -0.37220  -0.29119
 Alpha virt. eigenvalues --    0.06260   0.14812   0.77248   0.86090   0.89078
 Alpha virt. eigenvalues --    0.89508   1.06579   1.19341   1.72912   1.74637
 Alpha virt. eigenvalues --    1.77982   2.28057   2.57711   3.55191
          Condensed to atoms (all electrons):
               1          2          3
     1  O    8.289175   0.242579   0.242579
     2  H    0.242579   0.393658  -0.023404
     3  H    0.242579  -0.023404   0.393658
 Mulliken charges:
               1
     1  O   -0.774333
     2  H    0.387166
     3  H    0.387166
 Sum of Mulliken charges =   0.00000
 Mulliken charges with hydrogens summed into heavy atoms:
               1
     1  O    0.000000
 Electronic spatial extent (au):  <R**2>=             19.1865
 Charge=              0.0000 electrons
 Dipole moment (field-independent basis, Debye):
    X=              0.0000    Y=              0.0000    Z=             -2.0952  Tot=              2.0952
 Quadrupole moment (field-independent basis, Debye-Ang):
   XX=             -7.2039   YY=             -4.2862   ZZ=             -5.9900
   XY=              0.0000   XZ=              0.0000   YZ=              0.0000
 Traceless Quadrupole moment (field-independent basis, Debye-Ang):
   XX=             -1.3772   YY=              1.5405   ZZ=             -0.1633
   XY=              0.0000   XZ=              0.0000   YZ=              0.0000
 Octapole moment (field-independent basis, Debye-Ang**2):
  XXX=              0.0000  YYY=              0.0000  ZZZ=             -1.2170  XYY=              0.0000
  XXY=              0.0000  XXZ=             -0.3236  XZZ=              0.0000  YZZ=              0.0000
  YYZ=             -1.2129  XYZ=              0.0000
 Hexadecapole moment (field-independent basis, Debye-Ang**3):
 XXXX=             -5.2143 YYYY=             -6.0609 ZZZZ=             -6.2945 XXXY=              0.0000
 XXXZ=              0.0000 YYYX=              0.0000 YYYZ=              0.0000 ZZZX=              0.0000
 ZZZY=              0.0000 XXYY=             -2.1174 XXZZ=             -1.9680 YYZZ=             -1.7416
 XXYZ=              0.0000 YYXZ=              0.0000 ZZXY=              0.0000
 N-N= 9.087559604370D+00 E-N=-1.987553903485D+02  KE= 7.581949953275D+01
 Symmetry A1   KE= 6.765923902458D+01
 Symmetry A2   KE= 4.952789163211D-35
 Symmetry B1   KE= 4.599924772124D+00
 Symmetry B2   KE= 3.560335736041D+00
 No NMR shielding tensors so no spin-rotation constants.
 Leave Link  601 at Tue Aug 25 16:47:43 2020, MaxMem=   104857600 cpu:               0.1 elap:               0.1
 (Enter /n/sw/g16_nehalem/g16/l9999.exe)
 1\1\GINC-BOSLOGIN03\FOpt\RB3LYP\6-31G(d)\H2O1\CWAGEN\25-Aug-2020\0\\#p
  opt freq=hpmodes b3lyp/6-31g(d)\\title\\0,1\O,0.0511154943,0.05111549
 43,0.\H,1.012970558,-0.0640860523,0.\H,-0.0640860523,1.012970558,0.\\V
 ersion=ES64L-G16RevA.03\State=1-A1\HF=-76.408954\RMSD=9.941e-09\RMSF=9
 .627e-06\Dipole=0.582891,0.582891,0.\Quadrupole=0.5119539,0.5119539,-1
 .0239077,-0.6333557,0.,0.\PG=C02V [C2(O1),SGV(H2)]\\@


 THE LENGTH OF A MEETING IS PROPORTIONAL TO THE
 SQUARE OF THE PARTICIPANTS.
 Leave Link 9999 at Tue Aug 25 16:47:44 2020, MaxMem=   104857600 cpu:               0.0 elap:               0.0
 Job cpu time:       0 days  0 hours  0 minutes  6.3 seconds.
 Elapsed time:       0 days  0 hours  0 minutes  4.2 seconds.
 File lengths (MBytes):  RWF=      6 Int=      0 D2E=      0 Chk=      1 Scr=      1
 Normal termination of Gaussian 16 at Tue Aug 25 16:47:44 2020.
 (Enter /n/sw/g16_nehalem/g16/l1.exe)
 Link1:  Proceeding to internal job step number  2.
 --------------------------------------------------------------------
 #P Geom=AllCheck Guess=TCheck SCRF=Check GenChk RB3LYP/6-31G(d) Freq
 --------------------------------------------------------------------
 1/10=4,29=7,30=1,38=1,40=1/1,3;
 2/12=2,40=1/2;
 3/5=1,6=6,7=1,11=2,14=-4,25=1,30=1,70=2,71=2,74=-5,116=1,140=1/1,2,3;
 4/5=101/1;
 5/5=2,38=6,98=1/2;
 8/6=4,10=90,11=11/1;
 11/6=1,8=1,9=11,15=111,16=1/1,2,10;
 10/6=1/2;
 6/7=2,8=2,9=2,10=2,28=1/1;
 7/8=11,10=1,25=1/1,2,3,16;
 1/10=4,30=1/3;
 99//99;
 Leave Link    1 at Tue Aug 25 16:47:44 2020, MaxMem=   104857600 cpu:               0.0 elap:               0.0
 (Enter /n/sw/g16_nehalem/g16/l101.exe)
 Structure from the checkpoint file:  "/scratch/Gau-439735.chk"
 -----
 title
 -----
 Charge =  0 Multiplicity = 1
[...]
  XXY=              0.0000  XXZ=             -0.3236  XZZ=              0.0000  YZZ=              0.0000
  YYZ=             -1.2129  XYZ=              0.0000
 Hexadecapole moment (field-independent basis, Debye-Ang**3):
 XXXX=             -5.2143 YYYY=             -6.0609 ZZZZ=             -6.2945 XXXY=              0.0000
 XXXZ=              0.0000 YYYX=              0.0000 YYYZ=              0.0000 ZZZX=              0.0000
 ZZZY=              0.0000 XXYY=             -2.1174 XXZZ=             -1.9680 YYZZ=             -1.7416
 XXYZ=              0.0000 YYXZ=              0.0000 ZZXY=              0.0000
 N-N= 9.087559604370D+00 E-N=-1.987553902352D+02  KE= 7.581949947906D+01
 Symmetry A1   KE= 6.765923899118D+01
 Symmetry A2   KE= 4.952789101160D-35
 Symmetry B1   KE= 4.599924753263D+00
 Symmetry B2   KE= 3.560335734621D+00
  Exact polarizability:   2.830   0.000   7.395   0.000   0.000   5.423
 Approx polarizability:   3.082   0.000   8.972   0.000   0.000   6.754
 No NMR shielding tensors so no spin-rotation constants.
 Leave Link  601 at Tue Aug 25 16:47:47 2020, MaxMem=   104857600 cpu:               0.1 elap:               0.1
 (Enter /n/sw/g16_nehalem/g16/l701.exe)
 ... and contract with generalized density number  0.
 Compute integral second derivatives.
 Leave Link  701 at Tue Aug 25 16:47:47 2020, MaxMem=   104857600 cpu:               0.1 elap:               0.1
 (Enter /n/sw/g16_nehalem/g16/l702.exe)
 L702 exits ... SP integral derivatives will be done elsewhere.
 Leave Link  702 at Tue Aug 25 16:47:48 2020, MaxMem=   104857600 cpu:               0.0 elap:               0.0
 (Enter /n/sw/g16_nehalem/g16/l703.exe)
 Integral derivatives from FoFJK, PRISM(SPDF).
 Compute integral second derivatives, UseDBF=F ICtDFT=           0.
 Calling FoFJK, ICntrl=    100127 FMM=F ISym2X=1 I1Cent= 0 IOpClX= 0 NMat=1 NMatS=1 NMatT=0.
 FoFJK:  IHMeth= 1 ICntrl=  100127 DoSepK=F KAlg= 0 I1Cent=           0 FoldK=F
 IRaf=         0 NMat=       1 IRICut=       1 DoRegI=T DoRafI=F ISym2E= 1 IDoP0=0 IntGTp=1.
 FoFCou: FMM=F IPFlag=           0 FMFlag=      100000 FMFlg1=         800
         NFxFlg=           0 DoJE=F BraDBF=F KetDBF=F FulRan=T
         wScrn=  0.000000 ICntrl=    100127 IOpCl=  0 I1Cent=           0 NGrid=           0
         NMat0=    1 NMatS0=      1 NMatT0=    0 NMatD0=    1 NMtDS0=    0 NMtDT0=    0
 Petite list used in FoFCou.
 Leave Link  703 at Tue Aug 25 16:47:48 2020, MaxMem=   104857600 cpu:               0.4 elap:               0.4
 (Enter /n/sw/g16_nehalem/g16/l716.exe)
 Dipole        =-6.59072739D-17-4.74401356D-16-8.24332338D-01
 Polarizability= 2.83004648D+00 2.78601613D-16 7.39485478D+00
                 1.67136382D-16-5.08759701D-12 5.42299048D+00
 Full mass-weighted force constant matrix:
 Low frequencies ---   -0.0018   -0.0011    0.0015   13.9312   16.6689   24.3031
 Low frequencies --- 1713.0107 3727.1577 3849.1672
 Diagonal vibrational polarizability:
        0.0000000       0.0352435       0.6984369
 Harmonic frequencies (cm**-1), IR intensities (KM/Mole), Raman scattering
 activities (A**4/AMU), depolarization ratios for plane and unpolarized
 incident light, reduced masses (AMU), force constants (mDyne/A),
 and normal coordinates:
                           1         2         3
                          A1        A1        B2
       Frequencies ---  1713.0107 3727.1577 3849.1672
    Reduced masses ---     1.0825    1.0453    1.0810
   Force constants ---     1.8715    8.5557    9.4366
    IR Intensities ---    75.8002    1.6928   19.4035
 Coord Atom Element:
   1     1     8          0.00000   0.00000   0.00000
   2     1     8          0.00000   0.00000  -0.06988
   3     1     8         -0.07059   0.05002   0.00000
   1     2     1          0.00000   0.00000   0.00000
   2     2     1          0.42864   0.58411   0.55455
   3     2     1          0.56016  -0.39695  -0.43592
   1     3     1          0.00000   0.00000   0.00000
   2     3     1         -0.42864  -0.58411   0.55455
   3     3     1          0.56016  -0.39695   0.43592
 Harmonic frequencies (cm**-1), IR intensities (KM/Mole), Raman scattering
 activities (A**4/AMU), depolarization ratios for plane and unpolarized
 incident light, reduced masses (AMU), force constants (mDyne/A),
 and normal coordinates:
                      1                      2                      3
                     A1                     A1                     B2
 Frequencies --   1713.0107              3727.1577              3849.1672
 Red. masses --      1.0825                 1.0453                 1.0810
 Frc consts  --      1.8715                 8.5557                 9.4366
 IR Inten    --     75.8002                 1.6928                19.4035
  Atom  AN      X      Y      Z        X      Y      Z        X      Y      Z
     1   8     0.00   0.00  -0.07     0.00   0.00   0.05     0.00  -0.07   0.00
     2   1     0.00   0.43   0.56     0.00   0.58  -0.40     0.00   0.55  -0.44
     3   1     0.00  -0.43   0.56     0.00  -0.58  -0.40     0.00   0.55   0.44

 -------------------
 - Thermochemistry -
 -------------------
 Temperature   298.150 Kelvin.  Pressure   1.00000 Atm.
 Atom     1 has atomic number  8 and mass  15.99491
 Atom     2 has atomic number  1 and mass   1.00783
 Atom     3 has atomic number  1 and mass   1.00783
 Molecular mass:    18.01056 amu.
 Principal axes and moments of inertia in atomic units:
                           1         2         3
     Eigenvalues --     2.29113   4.17503   6.46616
           X            0.00000   0.00000   1.00000
           Y            1.00000   0.00000   0.00000
           Z            0.00000   1.00000   0.00000
 This molecule is an asymmetric top.
 Rotational symmetry number  2.
 Rotational temperatures (Kelvin)     37.80409    20.74568    13.39496
 Rotational constants (GHZ):         787.70940   432.26990   279.10561
 Zero-point vibrational energy      55562.6 (Joules/Mol)
                                   13.27977 (Kcal/Mol)
 Vibrational temperatures:   2464.64  5362.55  5538.09
          (Kelvin)
 
 Zero-point correction=                           0.021163 (Hartree/Particle)
 Thermal correction to Energy=                    0.023997
 Thermal correction to Enthalpy=                  0.024941
 Thermal correction to Gibbs Free Energy=         0.003495
 Sum of electronic and zero-point Energies=            -76.387791
 Sum of electronic and thermal Energies=               -76.384957
 Sum of electronic and thermal Enthalpies=             -76.384013
 Sum of electronic and thermal Free Energies=          -76.405459
 
                     E (Thermal)             CV                S
                      KCal/Mol        Cal/Mol-Kelvin    Cal/Mol-Kelvin
 Total                   15.058              5.997             45.137
 Electronic               0.000              0.000              0.000
 Translational            0.889              2.981             34.608
 Rotational               0.889              2.981             10.524
 Vibrational             13.281              0.035              0.005
                       Q            Log10(Q)             Ln(Q)
 Total Bot       0.246723D-01         -1.607791         -3.702076
 Total V=0       0.133767D+09          8.126350         18.711612
 Vib (Bot)       0.184489D-09         -9.734029        -22.413431
 Vib (V=0)       0.100026D+01          0.000112          0.000257
 Electronic      0.100000D+01          0.000000          0.000000
 Translational   0.300431D+07          6.477745         14.915559
 Rotational      0.445137D+02          1.648493          3.795796
 
                                                                title
                                                             IR Spectrum
 
     3    3                                                                 1                                                        
     8    7                                                                 7                                                        
     4    2                                                                 1                                                        
     9    7                                                                 3                                                        
 
     X    X                                                                 X                                                        
     X                                                                      X                                                        
     X                                                                      X                                                        
     X                                                                      X                                                        
     X                                                                      X                                                        
                                                                            X                                                        
                                                                            X                                                        
                                                                            X                                                        
                                                                            X                                                        
                                                                            X                                                        
                                                                            X                                                        
                                                                            X                                                        
                                                                            X                                                        
                                                                            X                                                        
                                                                            X                                                        
                                                                            X                                                        
                                                                            X                                                        
                                                                            X                                                        
                                                                            X                                                        
                                                                            X                                                        
 
 ***** Axes restored to original set *****
 -------------------------------------------------------------------
 Center     Atomic                   Forces (Hartrees/Bohr)
 Number     Number              X              Y              Z
 -------------------------------------------------------------------
      1        8          -0.000015088   -0.000015088    0.000000000
      2        1           0.000001393    0.000013695    0.000000000
      3        1           0.000013695    0.000001393    0.000000000
 -------------------------------------------------------------------
 Cartesian Forces:  Max     0.000015088 RMS     0.000009628
 Force constants in Cartesian coordinates: 
                1             2             3             4             5 
      1  0.550389D+00
      2 -0.976623D-01  0.550389D+00
      3  0.000000D+00  0.000000D+00  0.131473D-04
      4 -0.495967D+00  0.827644D-01  0.000000D+00  0.505141D+00
      5  0.148980D-01 -0.544221D-01  0.000000D+00 -0.710707D-01  0.635959D-01
      6  0.000000D+00  0.000000D+00 -0.657365D-05  0.000000D+00  0.000000D+00
      7 -0.544221D-01  0.148980D-01  0.000000D+00 -0.917380D-02  0.561727D-01
      8  0.827644D-01 -0.495967D+00  0.000000D+00 -0.116937D-01 -0.917380D-02
      9  0.000000D+00  0.000000D+00 -0.657365D-05  0.000000D+00  0.000000D+00
                6             7             8             9 
      6  0.145502D-04
      7  0.000000D+00  0.635959D-01
      8  0.000000D+00 -0.710707D-01  0.505141D+00
      9 -0.797655D-05  0.000000D+00  0.000000D+00  0.145502D-04
 FormGI is forming the generalized inverse of G from B-inverse, IUseBI=4.
 Force constants in internal coordinates: 
                1             2             3 
      1  0.515683D+00
      2 -0.857027D-02  0.515683D+00
      3  0.309924D-01  0.309924D-01  0.177787D+00
 Leave Link  716 at Tue Aug 25 16:47:48 2020, MaxMem=   104857600 cpu:               0.0 elap:               0.0
 (Enter /n/sw/g16_nehalem/g16/l103.exe)

 GradGradGradGradGradGradGradGradGradGradGradGradGradGradGradGradGradGrad
 Berny optimization.
 Red2BG is reusing G-inverse.
 Internal  Forces:  Max     0.000025196 RMS     0.000014548
 Search for a local minimum.
 Step number   1 out of a maximum of    2
 All quantities printed in internal units (Hartrees-Bohrs-Radians)
 Second derivative matrix not updated -- analytic derivatives used.
 The second derivative matrix:
                          R1        R2        A1
           R1           0.51568
           R2          -0.00857   0.51568
           A1           0.03099   0.03099   0.17779
 ITU=  0
     Eigenvalues ---    0.17205   0.51285   0.52425
 Angle between quadratic step and forces=   5.46 degrees.
 Linear search not attempted -- first point.
 Iteration  1 RMS(Cart)=  0.00008017 RMS(Int)=  0.00000000
 Iteration  2 RMS(Cart)=  0.00000000 RMS(Int)=  0.00000000
 ITry= 1 IFail=0 DXMaxC= 7.90D-05 DCOld= 1.00D+10 DXMaxT= 3.00D-01 DXLimC= 3.00D+00 Rises=F
 ClnCor:  largest displacement from symmetrization is 8.97D-15 for atom     3.
 Variable       Old X    -DE/DX   Delta X   Delta X   Delta X     New X
                                 (Linear)    (Quad)   (Total)
    R1        1.83063   0.00000   0.00000   0.00001   0.00001   1.83064
    R2        1.83063   0.00000   0.00000   0.00001   0.00001   1.83064
    A1        1.80920  -0.00003   0.00000  -0.00014  -0.00014   1.80906
         Item               Value     Threshold  Converged?
 Maximum Force            0.000025     0.000450     YES
 RMS     Force            0.000015     0.000300     YES
 Maximum Displacement     0.000079     0.001800     YES
 RMS     Displacement     0.000080     0.001200     YES
 Predicted change in Energy=-1.820016D-09
 Optimization completed.
    -- Stationary point found.
                           ----------------------------
                           !   Optimized Parameters   !
                           ! (Angstroms and Degrees)  !
 --------------------------                            --------------------------
 ! Name  Definition              Value          Derivative Info.                !
 --------------------------------------------------------------------------------
 ! R1    R(1,2)                  0.9687         -DE/DX =    0.0                 !
 ! R2    R(1,3)                  0.9687         -DE/DX =    0.0                 !
 ! A1    A(2,1,3)              103.6596         -DE/DX =    0.0                 !
 --------------------------------------------------------------------------------
 GradGradGradGradGradGradGradGradGradGradGradGradGradGradGradGradGradGrad

 Leave Link  103 at Tue Aug 25 16:47:48 2020, MaxMem=   104857600 cpu:               0.0 elap:               0.0
 (Enter /n/sw/g16_nehalem/g16/l9999.exe)

 ----------------------------------------------------------------------

 Electric dipole moment (input orientation):
 (Debye = 10**-18 statcoulomb cm , SI units = C m)
                  (au)            (Debye)         (10**-30 SI)
   Tot        0.824332D+00      0.209524D+01      0.698898D+01
   x          0.582891D+00      0.148156D+01      0.494196D+01
   y          0.582891D+00      0.148156D+01      0.494196D+01
   z          0.000000D+00      0.000000D+00      0.000000D+00

 Dipole polarizability, Alpha (input orientation).
 (esu units = cm**3 , SI units = C**2 m**2 J**-1)
 Alpha(0;0):
               (au)            (10**-24 esu)      (10**-40 SI)
   iso        0.521596D+01      0.772926D+00      0.859996D+00
   aniso      0.396542D+01      0.587614D+00      0.653809D+00
   xx         0.640892D+01      0.949704D+00      0.105669D+01
   yx        -0.985932D+00     -0.146100D+00     -0.162558D+00
   yy         0.640892D+01      0.949704D+00      0.105669D+01
   zx         0.000000D+00      0.000000D+00      0.000000D+00
   zy         0.000000D+00      0.000000D+00      0.000000D+00
   zz         0.283005D+01      0.419370D+00      0.466612D+00

 ----------------------------------------------------------------------

 Dipole orientation:
     8          0.00000000          0.00000000          0.13660495
     1          1.01767101         -1.01767101          1.26793568
     1         -1.01767101          1.01767101          1.26793568

 Electric dipole moment (dipole orientation):
 (Debye = 10**-18 statcoulomb cm , SI units = C m)
                  (au)            (Debye)         (10**-30 SI)
   Tot        0.824332D+00      0.209524D+01      0.698898D+01
   x          0.000000D+00      0.000000D+00      0.000000D+00
   y          0.000000D+00      0.000000D+00      0.000000D+00
   z          0.824332D+00      0.209524D+01      0.698898D+01

 Dipole polarizability, Alpha (dipole orientation).
 (esu units = cm**3 , SI units = C**2 m**2 J**-1)
 Alpha(0;0):
               (au)            (10**-24 esu)      (10**-40 SI)
   iso        0.521596D+01      0.772926D+00      0.859996D+00
   aniso      0.396542D+01      0.587614D+00      0.653809D+00
   xx         0.511245D+01      0.757587D+00      0.842929D+00
   yx        -0.228240D+01     -0.338217D+00     -0.376318D+00
   yy         0.511245D+01      0.757587D+00      0.842929D+00
   zx         0.000000D+00      0.000000D+00      0.000000D+00
   zy         0.000000D+00      0.000000D+00      0.000000D+00
   zz         0.542299D+01      0.803604D+00      0.894130D+00

 ----------------------------------------------------------------------
 1\1\GINC-BOSLOGIN03\Freq\RB3LYP\6-31G(d)\H2O1\CWAGEN\25-Aug-2020\0\\#P
  Geom=AllCheck Guess=TCheck SCRF=Check GenChk RB3LYP/6-31G(d) Freq\\ti
 tle\\0,1\O,0.0511154943,0.0511154943,0.\H,1.012970558,-0.0640860523,0.
 \H,-0.0640860523,1.012970558,0.\\Version=ES64L-G16RevA.03\State=1-A1\H
 F=-76.408954\RMSD=5.399e-10\RMSF=9.628e-06\ZeroPoint=0.0211627\Thermal
 =0.0239972\Dipole=0.582891,0.582891,0.\DipoleDeriv=-0.3725289,0.037318
 2,0.,0.0373182,-0.3725289,0.,0.,0.,-0.728636,0.0777237,-0.0019024,0.,-
 0.0354158,0.2948052,0.,0.,0.,0.364318,0.2948052,-0.0354158,0.,-0.00190
 24,0.0777237,0.,0.,0.,0.364318\Polar=6.4089226,-0.9859322,6.4089226,0.
 ,0.,2.8300465\Quadrupole=0.5119539,0.5119539,-1.0239077,-0.6333557,0.,
 0.\PG=C02V [C2(O1),SGV(H2)]\NImag=0\\0.55038919,-0.09766232,0.55038919
 ,0.,0.,0.00001315,-0.49596711,0.08276436,0.,0.50514091,0.01489796,-0.0
 5442209,0.,-0.07107070,0.06359589,0.,0.,-0.00000657,0.,0.,0.00001455,-
 0.05442209,0.01489796,0.,-0.00917380,0.05617273,0.,0.06359589,0.082764
 36,-0.49596711,0.,-0.01169366,-0.00917380,0.,-0.07107070,0.50514091,0.
 ,0.,-0.00000657,0.,0.,-0.00000798,0.,0.,0.00001455\\0.00001509,0.00001
 509,0.,-0.00000139,-0.00001370,0.,-0.00001370,-0.00000139,0.\\\@


 I LOVE THOSE WHO LONG FOR THE IMPOSSIBLE.

                                 -- GOETHE
 Job cpu time:       0 days  0 hours  0 minutes  3.0 seconds.
 Elapsed time:       0 days  0 hours  0 minutes  2.2 seconds.
 File lengths (MBytes):  RWF=      6 Int=      0 D2E=      0 Chk=      1 Scr=      1
 Normal termination of Gaussian 16 at Tue Aug 25 16:47:48 2020.
