 Entering Gaussian System, Link 0=g09
 Input=LSD_custom.gjf
 Output=LSD_custom.out
 Initial command:
 /n/sw/g09_ekwan/g09/l1.exe /scratch/ekwan_LSD_custom/Gau-15890.inp -scrdir=/scratch/ekwan_LSD_custom/
 Entering Link 1 = /n/sw/g09_ekwan/g09/l1.exe PID=     15891.
  
 Copyright (c) 1988,1990,1992,1993,1995,1998,2003,2009, Gaussian, Inc.
                  All Rights Reserved.
  
 This is part of the Gaussian(R) 09 program.  It is based on
 the Gaussian(R) 03 system (copyright 2003, Gaussian, Inc.),
 the Gaussian(R) 98 system (copyright 1998, Gaussian, Inc.),
 the Gaussian(R) 94 system (copyright 1995, Gaussian, Inc.),
 the Gaussian 92(TM) system (copyright 1992, Gaussian, Inc.),
 the Gaussian 90(TM) system (copyright 1990, Gaussian, Inc.),
 the Gaussian 88(TM) system (copyright 1988, Gaussian, Inc.),
 the Gaussian 86(TM) system (copyright 1986, Carnegie Mellon
 University), and the Gaussian 82(TM) system (copyright 1983,
 Carnegie Mellon University). Gaussian is a federally registered
 trademark of Gaussian, Inc.
  
 This software contains proprietary and confidential information,
 including trade secrets, belonging to Gaussian, Inc.
  
 This software is provided under written license and may be
 used, copied, transmitted, or stored only in accord with that
 written license.
  
 The following legend is applicable only to US Government
 contracts under FAR:
  
                    RESTRICTED RIGHTS LEGEND
  
 Use, reproduction and disclosure by the US Government is
 subject to restrictions as set forth in subparagraphs (a)
 and (c) of the Commercial Computer Software - Restricted
 Rights clause in FAR 52.227-19.
  
 Gaussian, Inc.
 340 Quinnipiac St., Bldg. 40, Wallingford CT 06492
  
  
 ---------------------------------------------------------------
 Warning -- This program may not be used in any manner that
 competes with the business of Gaussian, Inc. or will provide
 assistance to any competitor of Gaussian, Inc.  The licensee
 of this program is prohibited from giving any competitor of
 Gaussian, Inc. access to this program.  By using this program,
 the user acknowledges that Gaussian, Inc. is engaged in the
 business of creating and licensing software in the field of
 computational chemistry and represents and warrants to the
 licensee that it is not a competitor of Gaussian, Inc. and that
 it will not use this program in any manner prohibited above.
 ---------------------------------------------------------------
  

 Cite this work as:
 Gaussian 09, Revision A.02,
 M. J. Frisch, G. W. Trucks, H. B. Schlegel, G. E. Scuseria, 
 M. A. Robb, J. R. Cheeseman, G. Scalmani, V. Barone, B. Mennucci, 
 G. A. Petersson, H. Nakatsuji, M. Caricato, X. Li, H. P. Hratchian, 
 A. F. Izmaylov, J. Bloino, G. Zheng, J. L. Sonnenberg, M. Hada, 
 M. Ehara, K. Toyota, R. Fukuda, J. Hasegawa, M. Ishida, T. Nakajima, 
 Y. Honda, O. Kitao, H. Nakai, T. Vreven, J. A. Montgomery, Jr., 
 J. E. Peralta, F. Ogliaro, M. Bearpark, J. J. Heyd, E. Brothers, 
 K. N. Kudin, V. N. Staroverov, R. Kobayashi, J. Normand, 
 K. Raghavachari, A. Rendell, J. C. Burant, S. S. Iyengar, J. Tomasi, 
 M. Cossi, N. Rega, J. M. Millam, M. Klene, J. E. Knox, J. B. Cross, 
 V. Bakken, C. Adamo, J. Jaramillo, R. Gomperts, R. E. Stratmann, 
 O. Yazyev, A. J. Austin, R. Cammi, C. Pomelli, J. W. Ochterski, 
 R. L. Martin, K. Morokuma, V. G. Zakrzewski, G. A. Voth, 
 P. Salvador, J. J. Dannenberg, S. Dapprich, A. D. Daniels, 
 O. Farkas, J. B. Foresman, J. V. Ortiz, J. Cioslowski, 
 and D. J. Fox, Gaussian, Inc., Wallingford CT, 2009.
 
 ******************************************
 Gaussian 09:  EM64L-G09RevA.02 11-Jun-2009
                26-Mar-2012 
 ******************************************
 %nprocshared=12
 Will use up to   12 processors via shared memory.
 %mem=18GB
 ----------------------------------------------------------------------
 #p blyp/6-31g(d) iop(3/76=1000004536,3/77=0001306692,3/78=0000909502) 
 nmr scrf=(pcm,solvent=chloroform) pop=none scf=(maxcycle=35)
 ----------------------------------------------------------------------
 1/38=1/1;
 2/12=2,17=6,18=5,40=1/2;
 3/5=1,6=6,7=1,11=2,16=1,25=1,30=1,70=2201,72=7,74=402,76=1000004536,77=1306692,78=909502/1,2,8,3;
 4//1;
 5/5=2,7=35,38=5,53=7/2;
 8/6=1,10=90,11=11/1;
 10/13=100,45=16/2;
 99/9=1/99;
 Leave Link    1 at Mon Mar 26 08:51:30 2012, MaxMem= 2415919104 cpu:       0.7
 (Enter /n/sw/g09_ekwan/g09/l101.exe)
 -------
 estrone
 -------
 Symbolic Z-matrix:
 Charge =  0 Multiplicity = 1
 C                     3.66473  -0.97346   0.06831 
 C                     1.21927  -2.29745   0.3447 
 C                     2.44675  -2.9837    0.45746 
 C                     3.68428  -2.34911   0.32729 
 N                     4.64339  -0.01618  -0.12391 
 C                     4.04391   1.22171  -0.36174 
 C                     2.43633  -0.29451  -0.05343 
 C                     2.6803    1.07938  -0.331 
 C                     1.19365  -0.92608   0.07873 
 C                     0.0105   -0.0492   -0.05758 
 C                     0.25612   1.44279   0.2301 
 C                     1.50321   1.98591  -0.53989 
 N                    -0.92486   2.2631   -0.08587 
 C                    -0.83006   3.60893   0.47061 
 C                    -2.17787   1.63511   0.33459 
 C                    -2.4183    0.35935  -0.47059 
 C                    -1.19597  -0.52031  -0.4077 
 C                    -3.6713   -0.36092   0.01389 
 O                    -4.41444   0.02903   0.88841 
 H                     0.29281  -2.84547   0.49211 
 H                     2.42806  -4.04959   0.66902 
 H                     4.6109   -2.90748   0.42855 
 H                     5.63787  -0.17636  -0.09571 
 H                     4.65992   2.09369  -0.53621 
 H                     1.23097   2.04602  -1.60282 
 H                     1.72728   3.00504  -0.2108 
 H                     0.49433   1.51632   1.31296 
 H                    -2.99453   2.34266   0.16259 
 H                    -2.18832   1.39262   1.41299 
 H                    -2.61155   0.627    -1.52231 
 H                    -1.32159  -1.57058  -0.65527 
 H                    -1.73042   4.1714    0.20366 
 H                    -0.73732   3.61619   1.57457 
 H                     0.02596   4.14572   0.05482 
 O                    -3.87922  -1.5019   -0.6822 
 C                    -5.04711  -2.24954  -0.30489 
 H                    -5.05768  -3.12388  -0.95634 
 H                    -4.98787  -2.55177   0.74411 
 H                    -5.94996  -1.65042  -0.45021 
 
 NAtoms=     39 NQM=     39 NQMF=      0 NMic=      0 NMicF=      0 NTot=     39.
                    Isotopes and Nuclear Properties:
 (Nuclear quadrupole moments (NQMom) in fm**2, nuclear magnetic moments (NMagM)
  in nuclear magnetons)

  Atom         1           2           3           4           5           6           7           8           9          10
 IAtWgt=          12          12          12          12          14          12          12          12          12          12
 AtmWgt=  12.0000000  12.0000000  12.0000000  12.0000000  14.0030740  12.0000000  12.0000000  12.0000000  12.0000000  12.0000000
 NucSpn=           0           0           0           0           2           0           0           0           0           0
 AtZEff=   0.0000000   0.0000000   0.0000000   0.0000000   0.0000000   0.0000000   0.0000000   0.0000000   0.0000000   0.0000000
 NQMom=    0.0000000   0.0000000   0.0000000   0.0000000   2.0440000   0.0000000   0.0000000   0.0000000   0.0000000   0.0000000
 NMagM=    0.0000000   0.0000000   0.0000000   0.0000000   0.4037610   0.0000000   0.0000000   0.0000000   0.0000000   0.0000000

  Atom        11          12          13          14          15          16          17          18          19          20
 IAtWgt=          12          12          14          12          12          12          12          12          16           1
 AtmWgt=  12.0000000  12.0000000  14.0030740  12.0000000  12.0000000  12.0000000  12.0000000  12.0000000  15.9949146   1.0078250
 NucSpn=           0           0           2           0           0           0           0           0           0           1
 AtZEff=   0.0000000   0.0000000   0.0000000   0.0000000   0.0000000   0.0000000   0.0000000   0.0000000   0.0000000   0.0000000
 NQMom=    0.0000000   0.0000000   2.0440000   0.0000000   0.0000000   0.0000000   0.0000000   0.0000000   0.0000000   0.0000000
 NMagM=    0.0000000   0.0000000   0.4037610   0.0000000   0.0000000   0.0000000   0.0000000   0.0000000   0.0000000   2.7928460

  Atom        21          22          23          24          25          26          27          28          29          30
 IAtWgt=           1           1           1           1           1           1           1           1           1           1
 AtmWgt=   1.0078250   1.0078250   1.0078250   1.0078250   1.0078250   1.0078250   1.0078250   1.0078250   1.0078250   1.0078250
 NucSpn=           1           1           1           1           1           1           1           1           1           1
 AtZEff=   0.0000000   0.0000000   0.0000000   0.0000000   0.0000000   0.0000000   0.0000000   0.0000000   0.0000000   0.0000000
 NQMom=    0.0000000   0.0000000   0.0000000   0.0000000   0.0000000   0.0000000   0.0000000   0.0000000   0.0000000   0.0000000
 NMagM=    2.7928460   2.7928460   2.7928460   2.7928460   2.7928460   2.7928460   2.7928460   2.7928460   2.7928460   2.7928460

  Atom        31          32          33          34          35          36          37          38          39
 IAtWgt=           1           1           1           1          16          12           1           1           1
 AtmWgt=   1.0078250   1.0078250   1.0078250   1.0078250  15.9949146  12.0000000   1.0078250   1.0078250   1.0078250
 NucSpn=           1           1           1           1           0           0           1           1           1
 AtZEff=   0.0000000   0.0000000   0.0000000   0.0000000   0.0000000   0.0000000   0.0000000   0.0000000   0.0000000
 NQMom=    0.0000000   0.0000000   0.0000000   0.0000000   0.0000000   0.0000000   0.0000000   0.0000000   0.0000000
 NMagM=    2.7928460   2.7928460   2.7928460   2.7928460   0.0000000   0.0000000   2.7928460   2.7928460   2.7928460
 Leave Link  101 at Mon Mar 26 08:51:30 2012, MaxMem= 2415919104 cpu:       0.9
 (Enter /n/sw/g09_ekwan/g09/l202.exe)
                          Input orientation:                          
 ---------------------------------------------------------------------
 Center     Atomic      Atomic             Coordinates (Angstroms)
 Number     Number       Type             X           Y           Z
 ---------------------------------------------------------------------
      1          6           0        3.664728   -0.973460    0.068307
      2          6           0        1.219270   -2.297445    0.344695
      3          6           0        2.446753   -2.983700    0.457459
      4          6           0        3.684277   -2.349114    0.327290
      5          7           0        4.643392   -0.016177   -0.123913
      6          6           0        4.043913    1.221712   -0.361744
      7          6           0        2.436327   -0.294513   -0.053428
      8          6           0        2.680297    1.079378   -0.331002
      9          6           0        1.193654   -0.926077    0.078733
     10          6           0        0.010498   -0.049199   -0.057580
     11          6           0        0.256123    1.442787    0.230096
     12          6           0        1.503212    1.985911   -0.539887
     13          7           0       -0.924860    2.263098   -0.085868
     14          6           0       -0.830060    3.608927    0.470614
     15          6           0       -2.177871    1.635112    0.334591
     16          6           0       -2.418296    0.359350   -0.470590
     17          6           0       -1.195970   -0.520314   -0.407703
     18          6           0       -3.671295   -0.360918    0.013890
     19          8           0       -4.414440    0.029028    0.888409
     20          1           0        0.292810   -2.845470    0.492114
     21          1           0        2.428058   -4.049591    0.669016
     22          1           0        4.610903   -2.907483    0.428550
     23          1           0        5.637867   -0.176357   -0.095711
     24          1           0        4.659922    2.093689   -0.536209
     25          1           0        1.230972    2.046023   -1.602816
     26          1           0        1.727279    3.005045   -0.210802
     27          1           0        0.494326    1.516318    1.312961
     28          1           0       -2.994525    2.342655    0.162586
     29          1           0       -2.188315    1.392616    1.412987
     30          1           0       -2.611550    0.626995   -1.522307
     31          1           0       -1.321592   -1.570575   -0.655268
     32          1           0       -1.730423    4.171397    0.203656
     33          1           0       -0.737318    3.616185    1.574568
     34          1           0        0.025959    4.145718    0.054822
     35          8           0       -3.879221   -1.501896   -0.682202
     36          6           0       -5.047108   -2.249538   -0.304890
     37          1           0       -5.057682   -3.123878   -0.956344
     38          1           0       -4.987867   -2.551766    0.744107
     39          1           0       -5.949962   -1.650423   -0.450209
 ---------------------------------------------------------------------
                    Distance matrix (angstroms):
                    1          2          3          4          5
     1  C    0.000000
     2  C    2.794565   0.000000
     3  C    2.382429   1.410807   0.000000
     4  C    1.399957   2.465610   1.396821   0.000000
     5  N    1.382434   4.141061   3.737567   2.562436   0.000000
     6  C    2.268811   4.567508   4.572472   3.654436   1.395818
     7  C    1.408814   2.377281   2.737305   2.433867   2.225663
     8  C    2.311427   3.740869   4.145457   3.632614   2.257625
     9  C    2.471550   1.397155   2.438750   2.879239   3.573468
    10  C    3.771406   2.584098   3.848623   4.351366   4.633487
    11  C    4.181269   3.863951   4.944122   5.112749   4.637028
    12  C    3.714825   4.382950   5.155774   4.929653   3.747282
    13  N    5.618131   5.057789   6.260341   6.533555   6.016807
    14  C    6.431426   6.253066   7.362093   7.476499   6.591928
    15  C    6.404024   5.196698   6.537252   7.087940   7.033250
    16  C    6.250598   4.577678   5.975446   6.724120   7.080158
    17  C    4.904927   3.091550   4.481764   5.263225   5.867950
    18  C    7.361753   5.270407   6.671300   7.625981   8.322972
    19  O    8.182329   6.119378   7.505879   8.459293   9.114338
    20  H    3.879931   1.086458   2.158652   3.431557   5.226084
    21  H    3.369390   2.153223   1.086844   2.141608   4.669568
    22  H    2.182995   3.447079   2.165685   1.086584   2.943794
    23  H    2.134374   4.921074   4.286068   2.952341   1.007687
    24  H    3.280740   5.647666   5.627199   4.629904   2.149836
    25  H    4.222925   4.760110   5.569647   5.390848   4.252580
    26  H    4.433973   5.355656   6.068713   5.725941   4.199887
    27  H    4.218958   4.000984   4.979359   5.107729   4.650580
    28  H    7.439836   6.270547   7.620007   8.163714   7.998997
    29  H    6.454812   5.135118   6.445854   7.047455   7.142757
    30  H    6.669571   5.168484   6.522501   7.205253   7.416425
    31  H    5.073805   2.825641   4.175585   5.160452   6.187045
    32  H    7.456241   7.111012   8.289067   8.476516   7.633387
    33  H    6.535417   6.349161   7.412471   7.529342   6.710509
    34  H    6.280669   6.559144   7.539958   7.459247   6.218843
    35  O    7.599584   5.261371   6.596402   7.677458   8.669140
    36  C    8.812703   6.300139   7.568231   8.754807   9.946177
    37  H    9.041827   6.463422   7.637737   8.869601  10.220645
    38  H    8.821290   6.225171   7.452671   8.684520   9.997191
    39  H    9.652430   7.242127   8.550223   9.690781  10.723636
                    6          7          8          9         10
     6  C    0.000000
     7  C    2.231217   0.000000
     8  C    1.371369   1.422725   0.000000
     9  C    3.595969   1.400206   2.529790   0.000000
    10  C    4.239831   2.438205   2.911404   1.478971   0.000000
    11  C    3.840117   2.802122   2.514660   2.552135   1.539192
    12  C    2.659116   2.511509   1.500321   2.993024   2.569531
    13  N    5.084220   4.223743   3.802426   3.832236   2.494476
    14  C    5.490649   5.116713   4.400433   4.981491   3.790437
    15  C    6.274263   5.016456   4.934942   4.241737   2.789204
    16  C    6.520403   4.916190   5.151075   3.873017   2.497305
    17  C    5.522059   3.656512   4.194084   2.472158   1.341678
    18  C    7.884812   6.108354   6.521972   4.898095   3.695656
    19  O    8.633025   6.922770   7.274991   5.746174   4.525604
    20  H    5.598376   3.376339   4.667124   2.160202   2.863738
    21  H    5.608929   3.823951   5.231633   3.410063   4.730293
    22  H    4.242204   3.433467   4.494354   3.965594   5.437815
    23  H    2.136834   3.203999   3.221716   4.510381   5.628935
    24  H    1.081780   3.298630   2.233798   4.638120   5.141809
    25  H    3.183141   3.054766   2.156955   3.415022   2.875285
    26  H    2.927431   3.378550   2.151949   3.977726   3.507024
    27  H    3.935860   2.986218   2.769838   2.824477   2.136192
    28  H    7.146401   6.041148   5.834647   5.313425   3.847025
    29  H    6.482248   5.136545   5.181023   4.312109   3.012669
    30  H    6.782019   5.337401   5.443115   4.410775   3.078603
    31  H    6.055714   4.014038   4.810667   2.698258   2.108620
    32  H    6.508708   6.113285   5.413030   5.877931   4.573017
    33  H    5.687088   5.293010   4.663333   5.157356   4.081443
    34  H    4.986712   5.053439   4.073918   5.204535   4.196451
    35  O    8.384318   6.460594   7.057875   5.161846   4.198856
    36  C    9.731365   7.738679   8.413985   6.391074   5.521054
    37  H   10.103303   8.061063   8.828065   6.706781   5.995655
    38  H    9.850639   7.800635   8.552298   6.426258   5.647052
    39  H   10.398775   8.504456   9.052480   7.199702   6.184267
                   11         12         13         14         15
    11  C    0.000000
    12  C    1.563038   0.000000
    13  N    1.472231   2.485659   0.000000
    14  C    2.435119   3.016530   1.459423   0.000000
    15  C    2.443816   3.799756   1.463280   2.393960   0.000000
    16  C    2.969396   4.246025   2.450024   3.737393   1.527642
    17  C    2.523713   3.685678   2.815042   4.237448   2.482134
    18  C    4.327206   5.708747   3.799779   4.903150   2.513424
    19  O    4.924048   6.394375   4.256460   5.083110   2.808640
    20  H    4.296411   5.086486   5.283394   6.551377   5.119052
    21  H    5.922514   6.224474   7.187625   8.325118   7.324088
    22  H    6.158599   5.877152   7.592378   8.489373   8.168932
    23  H    5.629471   4.687010   7.001459   7.515529   8.034447
    24  H    4.517117   3.158552   5.605470   5.783558   6.908256
    25  H    2.161895   1.098884   2.644970   3.315062   3.942411
    26  H    2.190740   1.094138   2.756798   2.714587   4.174250
    27  H    1.111190   2.161345   2.128025   2.615829   2.848150
    28  H    3.373579   4.566221   2.086042   2.526506   1.094133
    29  H    2.716068   4.218185   2.144906   2.764952   1.105374
    30  H    3.458321   4.443317   2.754108   4.004667   2.156953
    31  H    3.514741   4.543283   3.895980   5.323200   3.462580
    32  H    3.375259   3.973110   2.091497   1.094666   2.578778
    33  H    2.741932   3.485497   2.150131   1.107867   2.745430
    34  H    2.718369   2.683416   2.113790   1.092610   3.352354
    35  O    5.157957   6.415266   4.822763   6.061920   3.710698
    36  C    6.484114   7.803906   6.115945   7.259925   4.871546
    37  H    7.106236   8.326386   6.845251   8.077107   5.710325
    38  H    6.612117   8.023295   6.354510   7.437493   5.059024
    39  H    6.967514   8.293417   6.379658   7.397437   5.063529
                   16         17         18         19         20
    16  C    0.000000
    17  C    1.507264   0.000000
    18  C    1.524308   2.516025   0.000000
    19  O    2.437331   3.512867   1.212067   0.000000
    20  H    4.306712   2.903874   4.702747   5.529737   0.000000
    21  H    6.650159   5.171914   7.158045   7.968880   2.457740
    22  H    7.803223   6.333851   8.674776   9.502178   4.319006
    23  H    8.082653   6.849597   9.311636  10.102453   6.003277
    24  H    7.287895   6.414125   8.702694   9.414691   6.672661
    25  H    4.176597   3.728864   5.695553   6.491929   5.403294
    26  H    4.924732   4.583919   6.365909   6.912717   6.064678
    27  H    3.605967   3.156843   4.750158   5.146675   4.442926
    28  H    2.160197   3.428793   2.790956   2.809955   6.150756
    29  H    2.160646   2.821163   2.689160   2.662740   4.996535
    30  H    1.102311   2.136007   2.111619   3.069125   4.954918
    31  H    2.227437   1.086332   2.726196   3.808855   2.355448
    32  H    3.931854   4.761465   4.934053   4.983177   7.308427
    33  H    4.197062   4.609814   5.182787   5.182638   6.632183
    34  H    4.537292   4.845503   5.829334   6.112213   7.009932
    35  O    2.375567   2.870312   1.352630   2.257655   4.537626
    36  C    3.707345   4.222801   2.358255   2.648791   5.431857
    37  H    4.397180   4.689603   3.239965   3.709136   5.550073
    38  H    4.068511   4.453307   2.658269   2.647667   5.294838
    39  H    4.063529   4.886655   2.659048   2.640129   6.425598
                   21         22         23         24         25
    21  H    0.000000
    22  H    2.475287   0.000000
    23  H    5.088185   2.964550   0.000000
    24  H    6.646328   5.093612   2.510682   0.000000
    25  H    6.614435   6.331477   5.160529   3.591326   0.000000
    26  H    7.143743   6.609239   5.042545   3.088180   1.761745
    27  H    5.927337   6.107242   5.595134   4.594015   3.053685
    28  H    8.397719   9.245389   8.996129   7.690309   4.589059
    29  H    7.175096   8.104896   8.123236   7.154664   4.605815
    30  H    7.215955   8.274189   8.410317   7.483173   4.096962
    31  H    4.686056   6.177093   7.119762   7.015662   4.526943
    32  H    9.224650   9.506500   8.560624   6.760235   4.068220
    33  H    8.342886   8.513229   7.603696   5.991959   4.054053
    34  H    8.562149   8.420750   7.084949   5.102328   2.934031
    35  O    6.935294   8.677076   9.626837   9.266418   6.288826
    36  C    7.750277   9.708141  10.886254  10.636896   7.716913
    37  H    7.715895   9.769662  11.127594  11.037724   8.166576
    38  H    7.566047   9.610541  10.920352  10.784215   8.082182
    39  H    8.786347  10.671658  11.686587  11.251463   8.158310
                   26         27         28         29         30
    26  H    0.000000
    27  H    2.461368   0.000000
    28  H    4.782637   3.765405   0.000000
    29  H    4.535250   2.687354   1.765234   0.000000
    30  H    5.118653   4.298384   2.434959   3.062883   0.000000
    31  H    5.516291   4.086611   4.333700   3.716099   2.691665
    32  H    3.672582   3.637239   2.223497   3.064926   4.039569
    33  H    3.104074   2.448433   2.951365   2.660030   4.694533
    34  H    2.065473   2.952292   3.519371   3.785128   4.671745
    35  O    7.208854   5.676108   4.034467   3.953123   2.616284
    36  C    8.573903   6.892503   5.051719   4.938531   3.960870
    37  H    9.173616   7.583268   5.949084   5.851984   4.513638
    38  H    8.768306   6.850353   5.316666   4.882934   4.570343
    39  H    8.981688   7.393637   5.005477   5.184744   4.181031
                   31         32         33         34         35
    31  H    0.000000
    32  H    5.820235   0.000000
    33  H    5.675916   1.781549   0.000000
    34  H    5.915752   1.762864   1.781186   0.000000
    35  O    2.558693   6.130932   6.415553   6.905735   0.000000
    36  C    3.803055   7.244821   7.517537   8.170967   1.437113
    37  H    4.057310   8.101684   8.396399   8.928207   2.023549
    38  H    4.045066   7.490257   7.536607   8.394633   2.089421
    39  H    4.633598   7.219809   7.681702   8.340380   2.088983
                   36         37         38         39
    36  C    0.000000
    37  H    1.090401   0.000000
    38  H    1.093273   1.795472   0.000000
    39  H    1.093253   1.795385   1.778886   0.000000
 Stoichiometry    C17H18N2O2
 Framework group  C1[X(C17H18N2O2)]
 Deg. of freedom   111
 Full point group                 C1      NOp   1
 Largest Abelian subgroup         C1      NOp   1
 Largest concise Abelian subgroup C1      NOp   1
                         Standard orientation:                         
 ---------------------------------------------------------------------
 Center     Atomic      Atomic             Coordinates (Angstroms)
 Number     Number       Type             X           Y           Z
 ---------------------------------------------------------------------
      1          6           0        3.664728   -0.973460    0.068307
      2          6           0        1.219270   -2.297445    0.344695
      3          6           0        2.446753   -2.983700    0.457459
      4          6           0        3.684277   -2.349114    0.327290
      5          7           0        4.643392   -0.016177   -0.123913
      6          6           0        4.043913    1.221712   -0.361744
      7          6           0        2.436327   -0.294513   -0.053428
      8          6           0        2.680297    1.079378   -0.331002
      9          6           0        1.193654   -0.926077    0.078733
     10          6           0        0.010498   -0.049199   -0.057580
     11          6           0        0.256123    1.442787    0.230096
     12          6           0        1.503212    1.985911   -0.539887
     13          7           0       -0.924860    2.263098   -0.085868
     14          6           0       -0.830060    3.608927    0.470614
     15          6           0       -2.177871    1.635112    0.334591
     16          6           0       -2.418296    0.359350   -0.470590
     17          6           0       -1.195970   -0.520314   -0.407703
     18          6           0       -3.671295   -0.360918    0.013890
     19          8           0       -4.414440    0.029028    0.888409
     20          1           0        0.292810   -2.845470    0.492114
     21          1           0        2.428058   -4.049591    0.669016
     22          1           0        4.610903   -2.907483    0.428550
     23          1           0        5.637867   -0.176357   -0.095711
     24          1           0        4.659922    2.093689   -0.536209
     25          1           0        1.230972    2.046023   -1.602816
     26          1           0        1.727279    3.005045   -0.210802
     27          1           0        0.494326    1.516318    1.312961
     28          1           0       -2.994525    2.342655    0.162586
     29          1           0       -2.188315    1.392616    1.412987
     30          1           0       -2.611550    0.626995   -1.522307
     31          1           0       -1.321592   -1.570575   -0.655268
     32          1           0       -1.730423    4.171397    0.203656
     33          1           0       -0.737318    3.616185    1.574568
     34          1           0        0.025959    4.145718    0.054822
     35          8           0       -3.879221   -1.501896   -0.682202
     36          6           0       -5.047108   -2.249538   -0.304890
     37          1           0       -5.057682   -3.123878   -0.956344
     38          1           0       -4.987867   -2.551766    0.744107
     39          1           0       -5.949962   -1.650423   -0.450209
 ---------------------------------------------------------------------
 Rotational constants (GHZ):      0.5526869      0.1978379      0.1506539
 Leave Link  202 at Mon Mar 26 08:51:30 2012, MaxMem= 2415919104 cpu:       0.0
 (Enter /n/sw/g09_ekwan/g09/l301.exe)
 Standard basis: 6-31G(d) (6D, 7F)
 Ernie: Thresh=  0.10000D-02 Tol=  0.10000D-05 Strict=F.
 There are   351 symmetry adapted basis functions of A   symmetry.
 Integral buffers will be    131072 words long.
 Raffenetti 2 integral format.
 Two-electron integral symmetry is turned on.
   351 basis functions,   660 primitive gaussians,   351 cartesian basis functions
    75 alpha electrons       75 beta electrons
       nuclear repulsion energy      1642.3314331022 Hartrees.
 IExCor=  402 DFT=T Ex=B+HF Corr=LYP ExCW=0 ScaHFX=  0.453600
 ScaDFX=  0.669200  0.001300  0.950200  0.000900 ScalE2=  1.000000  1.000000
 IRadAn=      0 IRanWt=     -1 IRanGd=            0 ICorTp=0
 NAtoms=   39 NActive=   39 NUniq=   39 SFac= 7.50D-01 NAtFMM=   80 NAOKFM=F Big=F
 ------------------------------------------------------------------------------
 Polarizable Continuum Model (PCM)
 =================================
 Model                : PCM.
 Atomic radii         : UFF (Universal Force Field).
 Polarization charges : Total charges.
 Charge compensation  : None.
 Solution method      : Matrix inversion.
 Cavity type          : Scaled VdW (van der Waals Surface) (Alpha=1.100).
 Cavity algorithm     : GePol (No added spheres)
                        Default sphere list used, NSphG=   39.
                        Lebedev-Laikov grids with approx.  5.0 points / Ang**2.
                        Smoothing algorithm: Karplus/York (Gamma=1.0000).
                        Polarization charges: spherical gaussians, with
                                              point-specific exponents (IZeta= 3).
                        Self-potential: point-specific (ISelfS= 7).
                        Self-field    : sphere-specific E.n sum rule (ISelfD= 2).
 Solvent              : Chloroform, Eps=   4.711300 Eps(inf)=   2.090627
 ------------------------------------------------------------------------------
 GePol: Number of generator spheres                  =      39
 GePol: Total number of spheres                      =      39
 GePol: Number of exposed spheres                    =      39 (100.00%)
 GePol: Number of points                             =    2760
 GePol: Average weight of points                     =       0.13
 GePol: Minimum weight of points                     =   0.66D-10
 GePol: Maximum weight of points                     =    0.20577
 GePol: Number of points with low weight             =     189
 GePol: Fraction of low-weight points (<1% of avg)   =       6.85%
 GePol: Cavity surface area                          =    352.693 Ang**2
 GePol: Cavity volume                                =    389.410 Ang**3
 Leave Link  301 at Mon Mar 26 08:51:30 2012, MaxMem= 2415919104 cpu:       0.9
 (Enter /n/sw/g09_ekwan/g09/l302.exe)
 NPDir=0 NMtPBC=     1 NCelOv=     1 NCel=       1 NClECP=     1 NCelD=      1
         NCelK=      1 NCelE2=     1 NClLst=     1 CellRange=     0.0.
 One-electron integrals computed using PRISM.
 NBasis=   351 RedAO= T  NBF=   351
 NBsUse=   351 1.00D-06 NBFU=   351
 Precomputing XC quadrature grid using
 IXCGrd= 2 IRadAn=           0 IRanWt=          -1 IRanGd=           0 AccXCQ= 1.00D-10.
 NRdTot=    2481 NPtTot=      316136 NUsed=      334023 NTot=      334055
 NSgBfM=   348   348   348   348   348 NAtAll=    39    39.
 Leave Link  302 at Mon Mar 26 08:51:31 2012, MaxMem= 2415919104 cpu:       6.2
 (Enter /n/sw/g09_ekwan/g09/l308.exe)
 Leave Link  308 at Mon Mar 26 08:51:31 2012, MaxMem= 2415919104 cpu:       0.9
 (Enter /n/sw/g09_ekwan/g09/l303.exe)
 DipDrv:  MaxL=1.
 Leave Link  303 at Mon Mar 26 08:51:31 2012, MaxMem= 2415919104 cpu:       0.9
 (Enter /n/sw/g09_ekwan/g09/l401.exe)
 Harris functional with IExCor=  402 diagonalized for initial guess.
 ExpMin= 1.61D-01 ExpMax= 5.48D+03 ExpMxC= 8.25D+02 IAcc=1 IRadAn=         1 AccDes= 0.00D+00
 HarFok:  IExCor=  402 AccDes= 0.00D+00 IRadAn=         1 IDoV= 1
 ScaDFX=  1.000000  1.000000  1.000000  1.000000
 FoFCou: FMM=F IPFlag=           0 FMFlag=      100000 FMFlg1=           0
         NFxFlg=           0 DoJE=T BraDBF=F KetDBF=T FulRan=T
         Omega=  0.000000  0.000000  1.000000  0.000000  0.000000 ICntrl=     500 IOpCl=  0
         NMat0=    1 NMatS0=    1 NMatT0=    0 NMatD0=    1 NMtDS0=    0 NMtDT0=    0
         I1Cent=           4 NGrid=           0.
 Petite list used in FoFCou.
 Harris En= -918.664585099674    
 Initial guess orbital symmetries:
       Occupied  (A) (A) (A) (A) (A) (A) (A) (A) (A) (A) (A) (A)
                 (A) (A) (A) (A) (A) (A) (A) (A) (A) (A) (A) (A)
                 (A) (A) (A) (A) (A) (A) (A) (A) (A) (A) (A) (A)
                 (A) (A) (A) (A) (A) (A) (A) (A) (A) (A) (A) (A)
                 (A) (A) (A) (A) (A) (A) (A) (A) (A) (A) (A) (A)
                 (A) (A) (A) (A) (A) (A) (A) (A) (A) (A) (A) (A)
                 (A) (A) (A)
       Virtual   (A) (A) (A) (A) (A) (A) (A) (A) (A) (A) (A) (A)
                 (A) (A) (A) (A) (A) (A) (A) (A) (A) (A) (A) (A)
                 (A) (A) (A) (A) (A) (A) (A) (A) (A) (A) (A) (A)
                 (A) (A) (A) (A) (A) (A) (A) (A) (A) (A) (A) (A)
                 (A) (A) (A) (A) (A) (A) (A) (A) (A) (A) (A) (A)
                 (A) (A) (A) (A) (A) (A) (A) (A) (A) (A) (A) (A)
                 (A) (A) (A) (A) (A) (A) (A) (A) (A) (A) (A) (A)
                 (A) (A) (A) (A) (A) (A) (A) (A) (A) (A) (A) (A)
                 (A) (A) (A) (A) (A) (A) (A) (A) (A) (A) (A) (A)
                 (A) (A) (A) (A) (A) (A) (A) (A) (A) (A) (A) (A)
                 (A) (A) (A) (A) (A) (A) (A) (A) (A) (A) (A) (A)
                 (A) (A) (A) (A) (A) (A) (A) (A) (A) (A) (A) (A)
                 (A) (A) (A) (A) (A) (A) (A) (A) (A) (A) (A) (A)
                 (A) (A) (A) (A) (A) (A) (A) (A) (A) (A) (A) (A)
                 (A) (A) (A) (A) (A) (A) (A) (A) (A) (A) (A) (A)
                 (A) (A) (A) (A) (A) (A) (A) (A) (A) (A) (A) (A)
                 (A) (A) (A) (A) (A) (A) (A) (A) (A) (A) (A) (A)
                 (A) (A) (A) (A) (A) (A) (A) (A) (A) (A) (A) (A)
                 (A) (A) (A) (A) (A) (A) (A) (A) (A) (A) (A) (A)
                 (A) (A) (A) (A) (A) (A) (A) (A) (A) (A) (A) (A)
                 (A) (A) (A) (A) (A) (A) (A) (A) (A) (A) (A) (A)
                 (A) (A) (A) (A) (A) (A) (A) (A) (A) (A) (A) (A)
                 (A) (A) (A) (A) (A) (A) (A) (A) (A) (A) (A) (A)
 The electronic state of the initial guess is 1-A.
 Leave Link  401 at Mon Mar 26 08:51:32 2012, MaxMem= 2415919104 cpu:      12.9
 (Enter /n/sw/g09_ekwan/g09/l502.exe)
 Closed shell SCF:
 Requested convergence on RMS density matrix=1.00D-08 within  35 cycles.
 Requested convergence on MAX density matrix=1.00D-06.
 Requested convergence on             energy=1.00D-06.
 No special actions if energy rises.
 Using DIIS extrapolation, IDIIS=  1040.
 Integral symmetry usage will be decided dynamically.
       333659 words used for storage of precomputed grid.
 Keep R1 ints in memory in canonical form, NReq=1930687569.
 IEnd=      712651 IEndB=      712651 NGot=  2415919104 MDV=   507163297
 LenX=   507163297 LenY=   507039655
 Symmetry not used in FoFDir.
 MinBra= 0 MaxBra= 2 Meth= 1.
 IRaf=       0 NMat=   1 IRICut=       1 DoRegI=T DoRafI=F ISym2E= 0 JSym2E=0.

 Cycle   1  Pass 1  IDiag  1:
 E= -931.791010930110    
 DIIS: error= 3.19D-02 at cycle   1 NSaved=   1.
 NSaved= 1 IEnMin= 1 EnMin= -931.791010930110     IErMin= 1 ErrMin= 3.19D-02
 ErrMax= 3.19D-02 EMaxC= 1.00D-01 BMatC= 4.61D-01 BMatP= 4.61D-01
 IDIUse=3 WtCom= 6.81D-01 WtEn= 3.19D-01
 Coeff-Com:  0.100D+01
 Coeff-En:   0.100D+01
 Coeff:      0.100D+01
 Gap=     0.235 Goal=   None    Shift=    0.000
 GapD=    0.235 DampG=1.000 DampE=0.500 DampFc=0.5000 IDamp=-1.
 Damping current iteration by 5.00D-01
 RMSDP=3.54D-03 MaxDP=1.16D-01              OVMax= 1.50D-01

 Cycle   2  Pass 1  IDiag  1:
 E= -931.969032561798     Delta-E=       -0.178021631688 Rises=F Damp=T
 DIIS: error= 1.30D-02 at cycle   2 NSaved=   2.
 NSaved= 2 IEnMin= 2 EnMin= -931.969032561798     IErMin= 2 ErrMin= 1.30D-02
 ErrMax= 1.30D-02 EMaxC= 1.00D-01 BMatC= 6.84D-02 BMatP= 4.61D-01
 IDIUse=3 WtCom= 8.70D-01 WtEn= 1.30D-01
 Coeff-Com: -0.187D+00 0.119D+01
 Coeff-En:   0.000D+00 0.100D+01
 Coeff:     -0.163D+00 0.116D+01
 Gap=     0.260 Goal=   None    Shift=    0.000
 RMSDP=1.52D-03 MaxDP=4.06D-02 DE=-1.78D-01 OVMax= 1.04D-01

 Cycle   3  Pass 1  IDiag  1:
 E= -932.123447903410     Delta-E=       -0.154415341612 Rises=F Damp=F
 DIIS: error= 7.62D-03 at cycle   3 NSaved=   3.
 NSaved= 3 IEnMin= 3 EnMin= -932.123447903410     IErMin= 3 ErrMin= 7.62D-03
 ErrMax= 7.62D-03 EMaxC= 1.00D-01 BMatC= 2.93D-02 BMatP= 6.84D-02
 IDIUse=3 WtCom= 9.24D-01 WtEn= 7.62D-02
 Coeff-Com: -0.186D+00 0.522D+00 0.664D+00
 Coeff-En:   0.000D+00 0.000D+00 0.100D+01
 Coeff:     -0.171D+00 0.482D+00 0.689D+00
 Gap=     0.230 Goal=   None    Shift=    0.000
 RMSDP=5.09D-04 MaxDP=3.99D-02 DE=-1.54D-01 OVMax= 5.13D-02

 Cycle   4  Pass 1  IDiag  1:
 E= -932.141546175171     Delta-E=       -0.018098271761 Rises=F Damp=F
 DIIS: error= 2.82D-03 at cycle   4 NSaved=   4.
 NSaved= 4 IEnMin= 4 EnMin= -932.141546175171     IErMin= 4 ErrMin= 2.82D-03
 ErrMax= 2.82D-03 EMaxC= 1.00D-01 BMatC= 5.79D-03 BMatP= 2.93D-02
 IDIUse=3 WtCom= 9.72D-01 WtEn= 2.82D-02
 Coeff-Com: -0.618D-01 0.117D+00 0.359D+00 0.586D+00
 Coeff-En:   0.000D+00 0.000D+00 0.152D+00 0.848D+00
 Coeff:     -0.601D-01 0.114D+00 0.353D+00 0.593D+00
 Gap=     0.230 Goal=   None    Shift=    0.000
 RMSDP=1.92D-04 MaxDP=1.21D-02 DE=-1.81D-02 OVMax= 1.65D-02

 Cycle   5  Pass 1  IDiag  1:
 E= -932.146051644812     Delta-E=       -0.004505469641 Rises=F Damp=F
 DIIS: error= 4.62D-04 at cycle   5 NSaved=   5.
 NSaved= 5 IEnMin= 5 EnMin= -932.146051644812     IErMin= 5 ErrMin= 4.62D-04
 ErrMax= 4.62D-04 EMaxC= 1.00D-01 BMatC= 1.55D-04 BMatP= 5.79D-03
 IDIUse=3 WtCom= 9.95D-01 WtEn= 4.62D-03
 Coeff-Com: -0.221D-01 0.380D-01 0.139D+00 0.271D+00 0.574D+00
 Coeff-En:   0.000D+00 0.000D+00 0.000D+00 0.000D+00 0.100D+01
 Coeff:     -0.220D-01 0.378D-01 0.138D+00 0.270D+00 0.576D+00
 Gap=     0.230 Goal=   None    Shift=    0.000
 RMSDP=3.89D-05 MaxDP=2.07D-03 DE=-4.51D-03 OVMax= 2.96D-03

 Cycle   6  Pass 1  IDiag  1:
 E= -932.146181859843     Delta-E=       -0.000130215030 Rises=F Damp=F
 DIIS: error= 9.82D-05 at cycle   6 NSaved=   6.
 NSaved= 6 IEnMin= 6 EnMin= -932.146181859843     IErMin= 6 ErrMin= 9.82D-05
 ErrMax= 9.82D-05 EMaxC= 1.00D-01 BMatC= 9.74D-06 BMatP= 1.55D-04
 IDIUse=1 WtCom= 1.00D+00 WtEn= 0.00D+00
 Coeff-Com: -0.285D-02 0.384D-02 0.182D-01 0.454D-01 0.231D+00 0.705D+00
 Coeff:     -0.285D-02 0.384D-02 0.182D-01 0.454D-01 0.231D+00 0.705D+00
 Gap=     0.230 Goal=   None    Shift=    0.000
 RMSDP=1.19D-05 MaxDP=5.02D-04 DE=-1.30D-04 OVMax= 9.40D-04

 Cycle   7  Pass 1  IDiag  1:
 E= -932.146190808088     Delta-E=       -0.000008948246 Rises=F Damp=F
 DIIS: error= 2.91D-05 at cycle   7 NSaved=   7.
 NSaved= 7 IEnMin= 7 EnMin= -932.146190808088     IErMin= 7 ErrMin= 2.91D-05
 ErrMax= 2.91D-05 EMaxC= 1.00D-01 BMatC= 7.92D-07 BMatP= 9.74D-06
 IDIUse=1 WtCom= 1.00D+00 WtEn= 0.00D+00
 Coeff-Com:  0.945D-03-0.208D-02-0.597D-02-0.870D-02 0.374D-01 0.257D+00
 Coeff-Com:  0.722D+00
 Coeff:      0.945D-03-0.208D-02-0.597D-02-0.870D-02 0.374D-01 0.257D+00
 Coeff:      0.722D+00
 Gap=     0.230 Goal=   None    Shift=    0.000
 RMSDP=3.76D-06 MaxDP=1.39D-04 DE=-8.95D-06 OVMax= 3.74D-04

 Cycle   8  Pass 1  IDiag  1:
 E= -932.146191601122     Delta-E=       -0.000000793034 Rises=F Damp=F
 DIIS: error= 1.91D-05 at cycle   8 NSaved=   8.
 NSaved= 8 IEnMin= 8 EnMin= -932.146191601122     IErMin= 8 ErrMin= 1.91D-05
 ErrMax= 1.91D-05 EMaxC= 1.00D-01 BMatC= 1.42D-07 BMatP= 7.92D-07
 IDIUse=1 WtCom= 1.00D+00 WtEn= 0.00D+00
 Coeff-Com:  0.808D-03-0.146D-02-0.498D-02-0.103D-01-0.111D-01 0.271D-01
 Coeff-Com:  0.320D+00 0.679D+00
 Coeff:      0.808D-03-0.146D-02-0.498D-02-0.103D-01-0.111D-01 0.271D-01
 Coeff:      0.320D+00 0.679D+00
 Gap=     0.230 Goal=   None    Shift=    0.000
 RMSDP=1.62D-06 MaxDP=4.71D-05 DE=-7.93D-07 OVMax= 1.53D-04

 Cycle   9  Pass 1  IDiag  1:
 E= -932.146191754343     Delta-E=       -0.000000153221 Rises=F Damp=F
 DIIS: error= 6.01D-06 at cycle   9 NSaved=   9.
 NSaved= 9 IEnMin= 9 EnMin= -932.146191754343     IErMin= 9 ErrMin= 6.01D-06
 ErrMax= 6.01D-06 EMaxC= 1.00D-01 BMatC= 1.95D-08 BMatP= 1.42D-07
 IDIUse=1 WtCom= 1.00D+00 WtEn= 0.00D+00
 Coeff-Com:  0.274D-03-0.465D-03-0.152D-02-0.378D-02-0.824D-02-0.135D-01
 Coeff-Com:  0.685D-01 0.317D+00 0.642D+00
 Coeff:      0.274D-03-0.465D-03-0.152D-02-0.378D-02-0.824D-02-0.135D-01
 Coeff:      0.685D-01 0.317D+00 0.642D+00
 Gap=     0.230 Goal=   None    Shift=    0.000
 RMSDP=5.34D-07 MaxDP=2.85D-05 DE=-1.53D-07 OVMax= 5.71D-05

 Cycle  10  Pass 1  IDiag  1:
 E= -932.146191775218     Delta-E=       -0.000000020875 Rises=F Damp=F
 DIIS: error= 2.17D-06 at cycle  10 NSaved=  10.
 NSaved=10 IEnMin=10 EnMin= -932.146191775218     IErMin=10 ErrMin= 2.17D-06
 ErrMax= 2.17D-06 EMaxC= 1.00D-01 BMatC= 1.75D-09 BMatP= 1.95D-08
 IDIUse=1 WtCom= 1.00D+00 WtEn= 0.00D+00
 Coeff-Com: -0.262D-04 0.580D-04 0.292D-03 0.254D-03-0.106D-02-0.910D-02
 Coeff-Com: -0.318D-01-0.116D-01 0.202D+00 0.851D+00
 Coeff:     -0.262D-04 0.580D-04 0.292D-03 0.254D-03-0.106D-02-0.910D-02
 Coeff:     -0.318D-01-0.116D-01 0.202D+00 0.851D+00
 Gap=     0.230 Goal=   None    Shift=    0.000
 RMSDP=2.17D-07 MaxDP=9.77D-06 DE=-2.09D-08 OVMax= 1.89D-05

 Cycle  11  Pass 1  IDiag  1:
 E= -932.146191777506     Delta-E=       -0.000000002288 Rises=F Damp=F
 DIIS: error= 8.41D-07 at cycle  11 NSaved=  11.
 NSaved=11 IEnMin=11 EnMin= -932.146191777506     IErMin=11 ErrMin= 8.41D-07
 ErrMax= 8.41D-07 EMaxC= 1.00D-01 BMatC= 2.61D-10 BMatP= 1.75D-09
 IDIUse=1 WtCom= 1.00D+00 WtEn= 0.00D+00
 Coeff-Com: -0.401D-04 0.738D-04 0.305D-03 0.518D-03 0.531D-03-0.212D-02
 Coeff-Com: -0.203D-01-0.363D-01 0.354D-01 0.386D+00 0.636D+00
 Coeff:     -0.401D-04 0.738D-04 0.305D-03 0.518D-03 0.531D-03-0.212D-02
 Coeff:     -0.203D-01-0.363D-01 0.354D-01 0.386D+00 0.636D+00
 Gap=     0.230 Goal=   None    Shift=    0.000
 RMSDP=6.05D-08 MaxDP=5.43D-06 DE=-2.29D-09 OVMax= 8.40D-06

 Cycle  12  Pass 1  IDiag  1:
 E= -932.146191777793     Delta-E=       -0.000000000287 Rises=F Damp=F
 DIIS: error= 2.87D-07 at cycle  12 NSaved=  12.
 NSaved=12 IEnMin=12 EnMin= -932.146191777793     IErMin=12 ErrMin= 2.87D-07
 ErrMax= 2.87D-07 EMaxC= 1.00D-01 BMatC= 1.91D-11 BMatP= 2.61D-10
 IDIUse=1 WtCom= 1.00D+00 WtEn= 0.00D+00
 Coeff-Com: -0.926D-05 0.158D-04 0.644D-04 0.130D-03 0.244D-03 0.220D-03
 Coeff-Com: -0.330D-02-0.112D-01-0.106D-01 0.146D-01 0.203D+00 0.807D+00
 Coeff:     -0.926D-05 0.158D-04 0.644D-04 0.130D-03 0.244D-03 0.220D-03
 Coeff:     -0.330D-02-0.112D-01-0.106D-01 0.146D-01 0.203D+00 0.807D+00
 Gap=     0.230 Goal=   None    Shift=    0.000
 RMSDP=2.18D-08 MaxDP=9.90D-07 DE=-2.87D-10 OVMax= 3.69D-06

 Cycle  13  Pass 1  IDiag  1:
 E= -932.146191777822     Delta-E=       -0.000000000029 Rises=F Damp=F
 DIIS: error= 7.24D-08 at cycle  13 NSaved=  13.
 NSaved=13 IEnMin=13 EnMin= -932.146191777822     IErMin=13 ErrMin= 7.24D-08
 ErrMax= 7.24D-08 EMaxC= 1.00D-01 BMatC= 2.12D-12 BMatP= 1.91D-11
 IDIUse=1 WtCom= 1.00D+00 WtEn= 0.00D+00
 Coeff-Com:  0.948D-06-0.216D-05-0.806D-05-0.917D-05 0.365D-04 0.311D-03
 Coeff-Com:  0.101D-02 0.230D-03-0.588D-02-0.357D-01-0.355D-02 0.265D+00
 Coeff-Com:  0.778D+00
 Coeff:      0.948D-06-0.216D-05-0.806D-05-0.917D-05 0.365D-04 0.311D-03
 Coeff:      0.101D-02 0.230D-03-0.588D-02-0.357D-01-0.355D-02 0.265D+00
 Coeff:      0.778D+00
 Gap=     0.230 Goal=   None    Shift=    0.000
 RMSDP=7.64D-09 MaxDP=2.24D-07 DE=-2.86D-11 OVMax= 1.25D-06

 Error on total polarization charges =  0.00707
 SCF Done:  E(RB+HF-LYP) =  -932.146191778     A.U. after   13 cycles
             Convg  =    0.7637D-08             -V/T =  2.0189
 KE= 9.148839262023D+02 PE=-5.430003753754D+03 EE= 1.940642202671D+03
 Leave Link  502 at Mon Mar 26 08:53:45 2012, MaxMem= 2415919104 cpu:    1565.5
 (Enter /n/sw/g09_ekwan/g09/l801.exe)
 Range of M.O.s used for correlation:     1   351
 NBasis=   351 NAE=    75 NBE=    75 NFC=     0 NFV=     0
 NROrb=    351 NOA=    75 NOB=    75 NVA=   276 NVB=   276
 Leave Link  801 at Mon Mar 26 08:53:46 2012, MaxMem= 2415919104 cpu:       0.3
 (Enter /n/sw/g09_ekwan/g09/l1002.exe)
 Minotr:  Closed shell wavefunction.
 NEqPCM:  Using equilibrium solvation (IEInf=0, Eps=   4.7113, EpsInf=   2.0906)
          Direct CPHF calculation.
          Differentiating once with respect to magnetic field using GIAOs.
          Electric field/nuclear overlap derivatives assumed to be zero.
          Requested convergence is 1.0D-08 RMS, and 1.0D-07 maximum.
          Secondary convergence is 1.0D-12 RMS, and 1.0D-12 maximum.
          NewPWx=T KeepS1=F KeepF1=F KeepIn=T MapXYZ=F SortEE=F KeepMc=T.
          MDV=    2415918788 using IRadAn=       2.
 Generate precomputed XC quadrature information.
          Keep R3 ints in memory in canonical form, NReq=1908998376.
 Symmetry not used in FoFDir.
 MinBra= 0 MaxBra= 2 Meth= 1.
 IRaf=       0 NMat=   1 IRICut=       1 DoRegI=T DoRafI=F ISym2E= 0 JSym2E=0.
          Solving linear equations simultaneously, MaxMat=       0.
 FoFCou: FMM=F IPFlag=           0 FMFlag=    10101102 FMFlg1=           0
         NFxFlg=    40000000 DoJE=F BraDBF=F KetDBF=T FulRan=T
         Omega=  0.000000  0.000000  1.000000  0.000000  0.000000 ICntrl=    6100 IOpCl=  0
         NMat0=    1 NMatS0=    1 NMatT0=    0 NMatD0=    1 NMtDS0=    0 NMtDT0=    0
         I1Cent=           7 NGrid=        2799.
 Symmetry not used in FoFCou.
          There are     3 degrees of freedom in the 1st order CPHF.  IDoFFX=0.
      3 vectors produced by pass  0 Test12= 6.90D-13 3.33D-08 XBig12= 6.08D+01 1.74D+00.
 AX will form     3 AO Fock derivatives at one time.
      3 vectors produced by pass  1 Test12= 6.90D-13 3.33D-08 XBig12= 3.85D-01 2.68D-01.
      3 vectors produced by pass  2 Test12= 6.90D-13 3.33D-08 XBig12= 4.44D-03 2.09D-02.
      3 vectors produced by pass  3 Test12= 6.90D-13 3.33D-08 XBig12= 2.51D-05 1.09D-03.
      3 vectors produced by pass  4 Test12= 6.90D-13 3.33D-08 XBig12= 2.04D-07 9.39D-05.
      3 vectors produced by pass  5 Test12= 6.90D-13 3.33D-08 XBig12= 1.79D-09 1.08D-05.
      3 vectors produced by pass  6 Test12= 6.90D-13 3.33D-08 XBig12= 1.43D-11 1.10D-06.
      3 vectors produced by pass  7 Test12= 6.90D-13 3.33D-08 XBig12= 1.25D-13 9.83D-08.
 Inverted reduced A of dimension    24 with in-core refinement.
 Calculating GIAO nuclear magnetic shielding tensors.
 SCF GIAO Magnetic shielding tensor (ppm):
  1  C    Isotropic =    62.0578   Anisotropy =   144.1136
   XX=    -3.7402   YX=   -21.4698   ZX=     5.5335
   XY=   -17.4803   YY=    36.2365   ZY=    23.5194
   XZ=     3.1925   YZ=    23.0811   ZZ=   153.6771
   Eigenvalues:   -12.6900    40.7299   158.1335
  2  C    Isotropic =    79.0949   Anisotropy =   155.9714
   XX=     7.6515   YX=   -36.4783   ZX=    12.1182
   XY=   -24.7240   YY=    56.2782   ZY=    26.0534
   XZ=     6.0435   YZ=    44.1548   ZZ=   173.3550
   Eigenvalues:   -10.2724    64.4813   183.0758
  3  C    Isotropic =    69.5596   Anisotropy =   168.8770
   XX=    55.9956   YX=     4.1841   ZX=     0.6458
   XY=     1.8584   YY=   -20.6619   ZY=    39.9035
   XZ=     2.8240   YZ=    44.3714   ZZ=   173.3450
   Eigenvalues:   -29.4981    56.0325   182.1443
  4  C    Isotropic =    83.2667   Anisotropy =   150.2612
   XX=    28.7580   YX=    33.9216   ZX=    -5.7044
   XY=    22.2906   YY=    42.1038   ZY=    26.7000
   XZ=    -2.0085   YZ=    23.7028   ZZ=   178.9383
   Eigenvalues:     4.4898    61.8696   183.4408
  5  N    Isotropic =   137.4385   Anisotropy =    74.4855
   XX=    84.4684   YX=     7.0811   ZX=    -1.3574
   XY=     7.9443   YY=   142.4004   ZY=     8.8063
   XZ=     1.8125   YZ=     8.2209   ZZ=   185.4467
   Eigenvalues:    83.5028   141.7172   187.0955
  6  C    Isotropic =    72.8768   Anisotropy =   105.6125
   XX=    77.5378   YX=     9.1977   ZX=    -1.9930
   XY=    -7.7229   YY=     3.9861   ZY=    27.5369
   XZ=     1.3011   YZ=    31.1349   ZZ=   137.1065
   Eigenvalues:    -2.1998    77.5451   143.2851
  7  C    Isotropic =    67.3411   Anisotropy =   161.4867
   XX=    19.0470   YX=     5.5898   ZX=     0.0167
   XY=     1.0630   YY=    14.8053   ZY=    31.8222
   XZ=    -0.0500   YZ=    34.3083   ZZ=   168.1711
   Eigenvalues:     7.0906    19.9339   174.9989
  8  C    Isotropic =    82.4728   Anisotropy =   124.4651
   XX=    65.2604   YX=     7.4633   ZX=    -2.8394
   XY=    25.2772   YY=    22.7846   ZY=    29.1444
   XZ=    -6.7046   YZ=    29.6437   ZZ=   159.3734
   Eigenvalues:    11.3663    70.6026   165.4495
  9  C    Isotropic =    64.8965   Anisotropy =   168.3845
   XX=   -13.2210   YX=    19.6605   ZX=    -3.2391
   XY=    13.5752   YY=    36.8493   ZY=    26.0510
   XZ=     3.8366   YZ=    32.0615   ZZ=   171.0611
   Eigenvalues:   -18.6060    36.1426   177.1528
 10  C    Isotropic =    55.4437   Anisotropy =   153.1501
   XX=    49.2460   YX=    44.1004   ZX=   -18.7666
   XY=    42.0493   YY=   -31.2645   ZY=   -14.4740
   XZ=   -25.7718   YZ=   -24.1059   ZZ=   148.3496
   Eigenvalues:   -50.3719    59.1592   157.5437
 11  C    Isotropic =   133.5755   Anisotropy =    38.6828
   XX=   140.4195   YX=   -25.3050   ZX=    -1.1482
   XY=   -20.2718   YY=   130.5305   ZY=    -5.7197
   XZ=     2.3549   YZ=    -5.7942   ZZ=   129.7765
   Eigenvalues:   111.2311   130.1313   159.3640
 12  C    Isotropic =   165.9056   Anisotropy =    19.4838
   XX=   174.3929   YX=    -6.5118   ZX=    -8.3368
   XY=    -3.0446   YY=   154.1065   ZY=    -7.1298
   XZ=    -4.7532   YZ=   -10.3400   ZZ=   169.2176
   Eigenvalues:   148.1622   170.6599   178.8949
 13  N    Isotropic =   222.3614   Anisotropy =    35.0015
   XX=   243.3480   YX=    -1.4038   ZX=    -3.1809
   XY=   -11.9582   YY=   226.5300   ZY=     0.4683
   XZ=    -0.1269   YZ=    -4.4935   ZZ=   197.2061
   Eigenvalues:   196.9700   224.4185   245.6957
 14  C    Isotropic =   152.9261   Anisotropy =    58.5850
   XX=   132.3933   YX=     1.5118   ZX=     2.9423
   XY=     0.9392   YY=   185.4035   ZY=    16.0882
   XZ=     7.0491   YZ=    20.1215   ZZ=   140.9813
   Eigenvalues:   128.9585   137.8369   191.9827
 15  C    Isotropic =   142.9608   Anisotropy =    48.7941
   XX=   161.1873   YX=    23.7582   ZX=    -9.1595
   XY=    18.1082   YY=   139.3513   ZY=     0.5992
   XZ=    -7.2085   YZ=    -7.2129   ZZ=   128.3437
   Eigenvalues:   125.3040   128.0881   175.4902
 16  C    Isotropic =   150.1147   Anisotropy =    30.9223
   XX=   152.2071   YX=    14.9087   ZX=    -7.5166
   XY=    13.0250   YY=   154.7550   ZY=    -1.0627
   XZ=   -10.7070   YZ=    -7.5071   ZZ=   143.3819
   Eigenvalues:   136.1534   143.4611   170.7295
 17  C    Isotropic =    72.5811   Anisotropy =   129.3681
   XX=    72.0140   YX=    34.3191   ZX=   -10.0496
   XY=    37.2609   YY=    -2.5409   ZY=   -26.8893
   XZ=   -28.6698   YZ=   -17.6367   ZZ=   148.2701
   Eigenvalues:   -18.0694    76.9861   158.8265
 18  C    Isotropic =    19.9516   Anisotropy =    98.9978
   XX=    31.2913   YX=   -45.8493   ZX=    10.1061
   XY=   -69.1432   YY=   -24.3447   ZY=   -29.1328
   XZ=    -7.9128   YZ=   -49.6735   ZZ=    52.9081
   Eigenvalues:   -69.4500    43.3546    85.9501
 19  O    Isotropic =   -55.1605   Anisotropy =   583.0102
   XX=   -47.5894   YX=  -116.9265   ZX=   209.5387
   XY=  -117.2595   YY=  -106.7926   ZY=  -238.4683
   XZ=   211.7964   YZ=  -239.5346   ZZ=   -11.0993
   Eigenvalues:  -314.6531  -184.3413   333.5130
 20  H    Isotropic =    24.6754   Anisotropy =     7.6853
   XX=    26.7973   YX=    -2.1487   ZX=     0.6177
   XY=    -1.4058   YY=    27.9619   ZY=    -1.4788
   XZ=     0.9102   YZ=    -3.3130   ZZ=    19.2671
   Eigenvalues:    18.6393    25.5881    29.7989
 21  H    Isotropic =    24.5629   Anisotropy =     4.9356
   XX=    27.7855   YX=    -0.2828   ZX=     0.0131
   XY=    -0.3283   YY=    26.3650   ZY=    -1.1902
   XZ=    -0.0502   YZ=    -0.9058   ZZ=    19.5383
   Eigenvalues:    19.3805    26.4549    27.8533
 22  H    Isotropic =    24.6894   Anisotropy =     4.8685
   XX=    26.9559   YX=     0.1732   ZX=    -0.1183
   XY=     0.0387   YY=    27.6095   ZY=    -1.5276
   XZ=     0.0508   YZ=    -1.7199   ZZ=    19.5029
   Eigenvalues:    19.1898    26.9434    27.9351
 23  H    Isotropic =    24.6684   Anisotropy =    12.8744
   XX=    33.0567   YX=    -1.4952   ZX=     0.1241
   XY=    -1.0080   YY=    24.7856   ZY=    -1.6795
   XZ=     0.1749   YZ=    -1.7135   ZZ=    16.1629
   Eigenvalues:    15.8407    24.9132    33.2513
 24  H    Isotropic =    24.9974   Anisotropy =     5.3457
   XX=    28.2572   YX=     1.9880   ZX=    -0.5996
   XY=    -0.5530   YY=    26.4784   ZY=    -1.2288
   XZ=     0.0682   YZ=    -1.0634   ZZ=    20.2567
   Eigenvalues:    20.0500    26.3810    28.5612
 25  H    Isotropic =    29.4047   Anisotropy =     6.7318
   XX=    29.8839   YX=    -0.8303   ZX=    -1.0586
   XY=    -1.0389   YY=    25.9267   ZY=    -2.3321
   XZ=     1.0730   YZ=    -4.4581   ZZ=    32.4033
   Eigenvalues:    24.3406    29.9809    33.8925
 26  H    Isotropic =    28.7700   Anisotropy =     6.9765
   XX=    32.0481   YX=     0.5865   ZX=    -1.1204
   XY=     0.6962   YY=    33.0473   ZY=     1.2027
   XZ=    -1.3816   YZ=     1.7766   ZZ=    21.2145
   Eigenvalues:    20.8735    32.0153    33.4210
 27  H    Isotropic =    28.7403   Anisotropy =     2.5399
   XX=    29.4575   YX=    -1.0440   ZX=     1.5936
   XY=    -1.9835   YY=    27.6729   ZY=    -1.1570
   XZ=    -1.4954   YZ=     2.7975   ZZ=    29.0904
   Eigenvalues:    26.5881    29.1992    30.4335
 28  H    Isotropic =    29.1098   Anisotropy =     7.2770
   XX=    33.6111   YX=    -1.7349   ZX=     0.6135
   XY=    -0.4054   YY=    30.6723   ZY=     0.5964
   XZ=    -0.1289   YZ=     0.0198   ZZ=    23.0461
   Eigenvalues:    23.0259    30.3424    33.9612
 29  H    Isotropic =    29.1459   Anisotropy =     7.5716
   XX=    29.8749   YX=     2.8325   ZX=    -3.9465
   XY=     2.4144   YY=    27.3341   ZY=    -0.7437
   XZ=    -3.2691   YZ=     0.6514   ZZ=    30.2289
   Eigenvalues:    24.8097    28.4345    34.1937
 30  H    Isotropic =    28.2940   Anisotropy =     5.7714
   XX=    27.5377   YX=     1.2145   ZX=     2.5165
   XY=     1.2959   YY=    27.2097   ZY=    -0.7144
   XZ=     3.5611   YZ=    -0.7873   ZZ=    30.1345
   Eigenvalues:    24.6855    28.0548    32.1415
 31  H    Isotropic =    25.4188   Anisotropy =     8.5337
   XX=    30.5300   YX=     0.7917   ZX=     0.9476
   XY=    -0.3079   YY=    25.0735   ZY=     0.4064
   XZ=     3.8596   YZ=     0.8824   ZZ=    20.6529
   Eigenvalues:    20.0336    25.1148    31.1079
 32  H    Isotropic =    29.6699   Anisotropy =    10.4319
   XX=    29.3546   YX=    -2.8956   ZX=     1.1698
   XY=    -4.6211   YY=    34.6573   ZY=    -0.3899
   XZ=     0.5914   YZ=     0.2438   ZZ=    24.9979
   Eigenvalues:    24.7671    27.6181    36.6245
 33  H    Isotropic =    29.9043   Anisotropy =     9.4508
   XX=    26.9076   YX=     0.2587   ZX=     0.2580
   XY=     0.2152   YY=    30.5852   ZY=     5.4632
   XZ=    -0.4259   YZ=     3.9993   ZZ=    32.2201
   Eigenvalues:    26.4735    27.0345    36.2048
 34  H    Isotropic =    29.2409   Anisotropy =     9.6746
   XX=    29.6808   YX=     1.9110   ZX=    -2.5175
   XY=     3.2587   YY=    34.4883   ZY=    -0.7086
   XZ=    -1.7450   YZ=     0.5113   ZZ=    23.5537
   Eigenvalues:    22.8426    29.1896    35.6906
 35  O    Isotropic =   169.0151   Anisotropy =   156.8441
   XX=    64.1939   YX=   -76.5920   ZX=    87.5867
   XY=    23.1008   YY=   259.4292   ZY=    -8.4474
   XZ=   157.2588   YZ=    67.9629   ZZ=   183.4223
   Eigenvalues:   -17.7022   251.1698   273.5778
 36  C    Isotropic =   141.2219   Anisotropy =    69.8401
   XX=   163.4939   YX=    29.7882   ZX=    -7.7339
   XY=    32.5919   YY=   140.0640   ZY=   -15.0511
   XZ=    -5.6113   YZ=   -12.7405   ZZ=   120.1079
   Eigenvalues:   110.4488   125.4349   187.7820
 37  H    Isotropic =    28.1844   Anisotropy =     8.4755
   XX=    27.9364   YX=     4.1386   ZX=     0.6286
   XY=     2.8291   YY=    30.9685   ZY=     2.9701
   XZ=    -0.2721   YZ=     1.9630   ZZ=    25.6484
   Eigenvalues:    24.1632    26.5553    33.8348
 38  H    Isotropic =    28.1272   Anisotropy =     8.6195
   XX=    27.2004   YX=     2.8872   ZX=    -2.0986
   XY=     3.2273   YY=    28.6402   ZY=    -4.0771
   XZ=    -1.3223   YZ=    -3.0177   ZZ=    28.5410
   Eigenvalues:    24.3952    26.1129    33.8735
 39  H    Isotropic =    28.1032   Anisotropy =     9.1205
   XX=    33.9681   YX=     0.1929   ZX=     0.8250
   XY=     1.6914   YY=    26.2789   ZY=    -0.2520
   XZ=     1.2401   YZ=     0.0675   ZZ=    24.0627
   Eigenvalues:    23.9404    26.1857    34.1835
 End of Minotr Frequency-dependent properties file   721 does not exist.
 End of Minotr Frequency-dependent properties file   722 does not exist.
 Leave Link 1002 at Mon Mar 26 08:55:32 2012, MaxMem= 2415919104 cpu:    1271.4
 (Enter /n/sw/g09_ekwan/g09/l9999.exe)

 Test job not archived.
 1\1\GINC-ENJ05\SP\RBLYP\6-31G(d)\C17H18N2O2\EKWAN\26-Mar-2012\0\\#p bl
 yp/6-31g(d) iop(3/76=1000004536,3/77=0001306692,3/78=0000909502) nmr s
 crf=(pcm,solvent=chloroform) pop=none scf=(maxcycle=35)\\estrone\\0,1\
 C,0,3.664728,-0.97346,0.068307\C,0,1.21927,-2.297445,0.344695\C,0,2.44
 6753,-2.9837,0.457459\C,0,3.684277,-2.349114,0.32729\N,0,4.643392,-0.0
 16177,-0.123913\C,0,4.043913,1.221712,-0.361744\C,0,2.436327,-0.294513
 ,-0.053428\C,0,2.680297,1.079378,-0.331002\C,0,1.193654,-0.926077,0.07
 8733\C,0,0.010498,-0.049199,-0.05758\C,0,0.256123,1.442787,0.230096\C,
 0,1.503212,1.985911,-0.539887\N,0,-0.92486,2.263098,-0.085868\C,0,-0.8
 3006,3.608927,0.470614\C,0,-2.177871,1.635112,0.334591\C,0,-2.418296,0
 .35935,-0.47059\C,0,-1.19597,-0.520314,-0.407703\C,0,-3.671295,-0.3609
 18,0.01389\O,0,-4.41444,0.029028,0.888409\H,0,0.29281,-2.84547,0.49211
 4\H,0,2.428058,-4.049591,0.669016\H,0,4.610903,-2.907483,0.42855\H,0,5
 .637867,-0.176357,-0.095711\H,0,4.659922,2.093689,-0.536209\H,0,1.2309
 72,2.046023,-1.602816\H,0,1.727279,3.005045,-0.210802\H,0,0.494326,1.5
 16318,1.312961\H,0,-2.994525,2.342655,0.162586\H,0,-2.188315,1.392616,
 1.412987\H,0,-2.61155,0.626995,-1.522307\H,0,-1.321592,-1.570575,-0.65
 5268\H,0,-1.730423,4.171397,0.203656\H,0,-0.737318,3.616185,1.574568\H
 ,0,0.025959,4.145718,0.054822\O,0,-3.879221,-1.501896,-0.682202\C,0,-5
 .047108,-2.249538,-0.30489\H,0,-5.057682,-3.123878,-0.956344\H,0,-4.98
 7867,-2.551766,0.744107\H,0,-5.949962,-1.650423,-0.450209\\Version=EM6
 4L-G09RevA.02\State=1-A\HF=-932.1461918\RMSD=7.637e-09\PG=C01 [X(C17H1
 8N2O2)]\\@


      THE ONE-EYED VIEW OF OUR UNIVERSE SAYS YOU MUST NOT LOOK
      FAR AFIELD FOR PROBLEMS.  SUCH PROBLEMS MAY NEVER ARRIVE. 
      INSTEAD, TEND TO THE WOLF WITHIN YOUR FENCES.
      THE PACKS RANGING OUTSIDE MAY NOT EVEN EXIST.

                              -- THE AZHAR BOOK SHAMRA I:4
                                 CHILDREN OF DUNE, BY FRANK HERBERT
 Job cpu time:  0 days  0 hours 47 minutes 42.8 seconds.
 File lengths (MBytes):  RWF=    186 Int=      0 D2E=      0 Chk=      8 Scr=      1
 Normal termination of Gaussian 09 at Mon Mar 26 08:55:32 2012.
