 Entering Gaussian System, Link 0=g09
 Input=methane_b3lyp_midix.gjf
 Output=methane_b3lyp_midix.out
 Initial command:
 /n/sw/g09_ekwan/g09/l1.exe /scratch/rliu_NMR/Gau-32507.inp -scrdir=/scratch/rliu_NMR/
 Entering Link 1 = /n/sw/g09_ekwan/g09/l1.exe PID=     32508.
  
 Copyright (c) 1988,1990,1992,1993,1995,1998,2003,2009, Gaussian, Inc.
                  All Rights Reserved.
  
 This is part of the Gaussian(R) 09 program.  It is based on
 the Gaussian(R) 03 system (copyright 2003, Gaussian, Inc.),
 the Gaussian(R) 98 system (copyright 1998, Gaussian, Inc.),
 the Gaussian(R) 94 system (copyright 1995, Gaussian, Inc.),
 the Gaussian 92(TM) system (copyright 1992, Gaussian, Inc.),
 the Gaussian 90(TM) system (copyright 1990, Gaussian, Inc.),
 the Gaussian 88(TM) system (copyright 1988, Gaussian, Inc.),
 the Gaussian 86(TM) system (copyright 1986, Carnegie Mellon
 University), and the Gaussian 82(TM) system (copyright 1983,
 Carnegie Mellon University). Gaussian is a federally registered
 trademark of Gaussian, Inc.
  
 This software contains proprietary and confidential information,
 including trade secrets, belonging to Gaussian, Inc.
  
 This software is provided under written license and may be
 used, copied, transmitted, or stored only in accord with that
 written license.
  
 The following legend is applicable only to US Government
 contracts under FAR:
  
                    RESTRICTED RIGHTS LEGEND
  
 Use, reproduction and disclosure by the US Government is
 subject to restrictions as set forth in subparagraphs (a)
 and (c) of the Commercial Computer Software - Restricted
 Rights clause in FAR 52.227-19.
  
 Gaussian, Inc.
 340 Quinnipiac St., Bldg. 40, Wallingford CT 06492
  
  
 ---------------------------------------------------------------
 Warning -- This program may not be used in any manner that
 competes with the business of Gaussian, Inc. or will provide
 assistance to any competitor of Gaussian, Inc.  The licensee
 of this program is prohibited from giving any competitor of
 Gaussian, Inc. access to this program.  By using this program,
 the user acknowledges that Gaussian, Inc. is engaged in the
 business of creating and licensing software in the field of
 computational chemistry and represents and warrants to the
 licensee that it is not a competitor of Gaussian, Inc. and that
 it will not use this program in any manner prohibited above.
 ---------------------------------------------------------------
  

 Cite this work as:
 Gaussian 09, Revision A.02,
 M. J. Frisch, G. W. Trucks, H. B. Schlegel, G. E. Scuseria, 
 M. A. Robb, J. R. Cheeseman, G. Scalmani, V. Barone, B. Mennucci, 
 G. A. Petersson, H. Nakatsuji, M. Caricato, X. Li, H. P. Hratchian, 
 A. F. Izmaylov, J. Bloino, G. Zheng, J. L. Sonnenberg, M. Hada, 
 M. Ehara, K. Toyota, R. Fukuda, J. Hasegawa, M. Ishida, T. Nakajima, 
 Y. Honda, O. Kitao, H. Nakai, T. Vreven, J. A. Montgomery, Jr., 
 J. E. Peralta, F. Ogliaro, M. Bearpark, J. J. Heyd, E. Brothers, 
 K. N. Kudin, V. N. Staroverov, R. Kobayashi, J. Normand, 
 K. Raghavachari, A. Rendell, J. C. Burant, S. S. Iyengar, J. Tomasi, 
 M. Cossi, N. Rega, J. M. Millam, M. Klene, J. E. Knox, J. B. Cross, 
 V. Bakken, C. Adamo, J. Jaramillo, R. Gomperts, R. E. Stratmann, 
 O. Yazyev, A. J. Austin, R. Cammi, C. Pomelli, J. W. Ochterski, 
 R. L. Martin, K. Morokuma, V. G. Zakrzewski, G. A. Voth, 
 P. Salvador, J. J. Dannenberg, S. Dapprich, A. D. Daniels, 
 O. Farkas, J. B. Foresman, J. V. Ortiz, J. Cioslowski, 
 and D. J. Fox, Gaussian, Inc., Wallingford CT, 2009.
 
 ******************************************
 Gaussian 09:  EM64L-G09RevA.02 11-Jun-2009
                26-Feb-2015 
 ******************************************
 %nprocshared=8
 Will use up to    8 processors via shared memory.
 %mem=4gb
 %chk=chk.chk
 -----------------------------------------
 #p b3lyp/midix opt freq=(noraman,hpmodes)
 -----------------------------------------
 1/14=-1,18=20,19=15,26=3,38=1/1,3;
 2/9=110,12=2,17=6,18=5,40=1/2;
 3/5=20,11=2,16=1,25=1,30=1,71=1,74=-5/1,2,3;
 4//1;
 5/5=2,38=5/2;
 6/7=2,8=2,9=2,10=2,28=1/1;
 7//1,2,3,16;
 1/14=-1,18=20,19=15/3(2);
 2/9=110/2;
 99//99;
 2/9=110/2;
 3/5=20,11=2,16=1,25=1,30=1,71=1,74=-5/1,2,3;
 4/5=5,16=3/1;
 5/5=2,38=5/2;
 7//1,2,3,16;
 1/14=-1,18=20,19=15/3(-5);
 2/9=110/2;
 6/7=2,8=2,9=2,10=2,19=2,28=1/1;
 99/9=1/99;
 Leave Link    1 at Thu Feb 26 17:49:37 2015, MaxMem=  536870912 cpu:       0.5
 (Enter /n/sw/g09_ekwan/g09/l101.exe)
 -------
 methane
 -------
 Symbolic Z-matrix:
 Charge =  0 Multiplicity = 1
 C                    -0.48      2.01333   0. 
 H                    -0.12335   1.00452   0. 
 H                    -0.12333   2.51773   0.87365 
 H                    -0.12333   2.51773  -0.87365 
 H                    -1.55      2.01335   0. 
 
 NAtoms=      5 NQM=      5 NQMF=      0 NMic=      0 NMicF=      0 NTot=      5.
                    Isotopes and Nuclear Properties:
 (Nuclear quadrupole moments (NQMom) in fm**2, nuclear magnetic moments (NMagM)
  in nuclear magnetons)

  Atom         1           2           3           4           5
 IAtWgt=          12           1           1           1           1
 AtmWgt=  12.0000000   1.0078250   1.0078250   1.0078250   1.0078250
 NucSpn=           0           1           1           1           1
 AtZEff=   0.0000000   0.0000000   0.0000000   0.0000000   0.0000000
 NQMom=    0.0000000   0.0000000   0.0000000   0.0000000   0.0000000
 NMagM=    0.0000000   2.7928460   2.7928460   2.7928460   2.7928460
 Leave Link  101 at Thu Feb 26 17:49:37 2015, MaxMem=  536870912 cpu:       0.6
 (Enter /n/sw/g09_ekwan/g09/l103.exe)

 GradGradGradGradGradGradGradGradGradGradGradGradGradGradGradGradGradGrad
 Berny optimization.
 Initialization pass.
                           ----------------------------
                           !    Initial Parameters    !
                           ! (Angstroms and Degrees)  !
 --------------------------                            --------------------------
 ! Name  Definition              Value          Derivative Info.                !
 --------------------------------------------------------------------------------
 ! R1    R(1,2)                  1.07           estimate D2E/DX2                !
 ! R2    R(1,3)                  1.07           estimate D2E/DX2                !
 ! R3    R(1,4)                  1.07           estimate D2E/DX2                !
 ! R4    R(1,5)                  1.07           estimate D2E/DX2                !
 ! A1    A(2,1,3)              109.4712         estimate D2E/DX2                !
 ! A2    A(2,1,4)              109.4712         estimate D2E/DX2                !
 ! A3    A(2,1,5)              109.4712         estimate D2E/DX2                !
 ! A4    A(3,1,4)              109.4713         estimate D2E/DX2                !
 ! A5    A(3,1,5)              109.4712         estimate D2E/DX2                !
 ! A6    A(4,1,5)              109.4712         estimate D2E/DX2                !
 ! D1    D(2,1,4,3)           -120.0            estimate D2E/DX2                !
 ! D2    D(2,1,5,3)            120.0            estimate D2E/DX2                !
 ! D3    D(2,1,5,4)           -120.0            estimate D2E/DX2                !
 ! D4    D(3,1,5,4)            120.0            estimate D2E/DX2                !
 --------------------------------------------------------------------------------
 Trust Radius=3.00D-01 FncErr=1.00D-07 GrdErr=1.00D-06
 Number of steps in this run=  24 maximum allowed number of steps= 100.
 GradGradGradGradGradGradGradGradGradGradGradGradGradGradGradGradGradGrad

 Leave Link  103 at Thu Feb 26 17:49:37 2015, MaxMem=  536870912 cpu:       0.1
 (Enter /n/sw/g09_ekwan/g09/l202.exe)
                          Input orientation:                          
 ---------------------------------------------------------------------
 Center     Atomic      Atomic             Coordinates (Angstroms)
 Number     Number       Type             X           Y           Z
 ---------------------------------------------------------------------
      1          6           0       -0.480000    2.013333    0.000000
      2          1           0       -0.123346    1.004523    0.000000
      3          1           0       -0.123327    2.517732    0.873652
      4          1           0       -0.123327    2.517732   -0.873652
      5          1           0       -1.550000    2.013347    0.000000
 ---------------------------------------------------------------------
                    Distance matrix (angstroms):
                    1          2          3          4          5
     1  C    0.000000
     2  H    1.070000   0.000000
     3  H    1.070000   1.747302   0.000000
     4  H    1.070000   1.747302   1.747303   0.000000
     5  H    1.070000   1.747303   1.747303   1.747303   0.000000
 Stoichiometry    CH4
 Framework group  T[O(C),4C3(H)]
 Deg. of freedom     1
 Full point group                 T       NOp  12
 Largest Abelian subgroup         D2      NOp   4
 Largest concise Abelian subgroup D2      NOp   4
                         Standard orientation:                         
 ---------------------------------------------------------------------
 Center     Atomic      Atomic             Coordinates (Angstroms)
 Number     Number       Type             X           Y           Z
 ---------------------------------------------------------------------
      1          6           0        0.000000    0.000000    0.000000
      2          1           0        0.617765    0.617765    0.617765
      3          1           0       -0.617765   -0.617765    0.617765
      4          1           0       -0.617765    0.617765   -0.617765
      5          1           0        0.617765   -0.617765   -0.617765
 ---------------------------------------------------------------------
 Rotational constants (GHZ):    164.2463768    164.2463768    164.2463768
 Leave Link  202 at Thu Feb 26 17:49:37 2015, MaxMem=  536870912 cpu:       0.2
 (Enter /n/sw/g09_ekwan/g09/l301.exe)
 Standard basis: MIDIx (5D, 7F)
 Ernie: Thresh=  0.10000D-02 Tol=  0.10000D-05 Strict=F.
 There are     5 symmetry adapted basis functions of A   symmetry.
 There are     4 symmetry adapted basis functions of B1  symmetry.
 There are     4 symmetry adapted basis functions of B2  symmetry.
 There are     4 symmetry adapted basis functions of B3  symmetry.
 Integral buffers will be    131072 words long.
 Raffenetti 2 integral format.
 Two-electron integral symmetry is turned on.
    17 basis functions,    27 primitive gaussians,    17 cartesian basis functions
     5 alpha electrons        5 beta electrons
       nuclear repulsion energy        13.6865184815 Hartrees.
 IExCor=  402 DFT=T Ex+Corr=B3LYP ExCW=0 ScaHFX=  0.200000
 ScaDFX=  0.800000  0.720000  1.000000  0.810000 ScalE2=  1.000000  1.000000
 IRadAn=      0 IRanWt=     -1 IRanGd=            0 ICorTp=0
 NAtoms=    5 NActive=    5 NUniq=    2 SFac= 3.00D+00 NAtFMM=   80 NAOKFM=F Big=F
 Leave Link  301 at Thu Feb 26 17:49:37 2015, MaxMem=  536870912 cpu:       0.5
 (Enter /n/sw/g09_ekwan/g09/l302.exe)
 NPDir=0 NMtPBC=     1 NCelOv=     1 NCel=       1 NClECP=     1 NCelD=      1
         NCelK=      1 NCelE2=     1 NClLst=     1 CellRange=     0.0.
 One-electron integrals computed using PRISM.
 One-electron integral symmetry used in STVInt
 NBasis=    17 RedAO= T  NBF=     5     4     4     4
 NBsUse=    17 1.00D-06 NBFU=     5     4     4     4
 Precomputing XC quadrature grid using
 IXCGrd= 2 IRadAn=           0 IRanWt=          -1 IRanGd=           0 AccXCQ= 1.00D-10.
 NRdTot=     304 NPtTot=       38382 NUsed=       40588 NTot=       40620
 NSgBfM=    17    17    17    17    17 NAtAll=     5     5.
 Leave Link  302 at Thu Feb 26 17:49:38 2015, MaxMem=  536870912 cpu:       2.5
 (Enter /n/sw/g09_ekwan/g09/l303.exe)
 DipDrv:  MaxL=1.
 Leave Link  303 at Thu Feb 26 17:49:38 2015, MaxMem=  536870912 cpu:       0.8
 (Enter /n/sw/g09_ekwan/g09/l401.exe)
 Harris functional with IExCor=  402 diagonalized for initial guess.
 ExpMin= 1.47D-01 ExpMax= 1.53D+02 ExpMxC= 1.53D+02 IAcc=1 IRadAn=         1 AccDes= 0.00D+00
 HarFok:  IExCor=  402 AccDes= 0.00D+00 IRadAn=         1 IDoV= 1
 ScaDFX=  1.000000  1.000000  1.000000  1.000000
 FoFCou: FMM=F IPFlag=           0 FMFlag=      100000 FMFlg1=           0
         NFxFlg=           0 DoJE=T BraDBF=F KetDBF=T FulRan=T
         Omega=  0.000000  0.000000  1.000000  0.000000  0.000000 ICntrl=     500 IOpCl=  0
         NMat0=    1 NMatS0=    1 NMatT0=    0 NMatD0=    1 NMtDS0=    0 NMtDT0=    0
         I1Cent=           4 NGrid=           0.
 Petite list used in FoFCou.
 Harris En= -40.3211260862603    
 Initial guess orbital symmetries:
       Occupied  (A) (A) (T) (T) (T)
       Virtual   (A) (T) (T) (T) (T) (T) (T) (A) (T) (T) (T) (A)
 The electronic state of the initial guess is 1-A.
 Leave Link  401 at Thu Feb 26 17:49:39 2015, MaxMem=  536870912 cpu:       4.1
 (Enter /n/sw/g09_ekwan/g09/l502.exe)
 Closed shell SCF:
 Requested convergence on RMS density matrix=1.00D-08 within 128 cycles.
 Requested convergence on MAX density matrix=1.00D-06.
 Requested convergence on             energy=1.00D-06.
 No special actions if energy rises.
 Using DIIS extrapolation, IDIIS=  1040.
 Integral symmetry usage will be decided dynamically.
        40530 words used for storage of precomputed grid.
 Keep R1 ints in memory in canonical form, NReq=930242.
 IEnd=       60527 IEndB=       60527 NGot=   536870912 MDV=   536815679
 LenX=   536815679 LenY=   536814797
 Symmetry not used in FoFDir.
 MinBra= 0 MaxBra= 1 Meth= 1.
 IRaf=       0 NMat=   1 IRICut=       1 DoRegI=T DoRafI=F ISym2E= 0 JSym2E=0.
 Integral accuracy reduced to 1.0D-05 until final iterations.

 Cycle   1  Pass 0  IDiag  1:
 E= -40.1940310450658    
 DIIS: error= 7.25D-02 at cycle   1 NSaved=   1.
 NSaved= 1 IEnMin= 1 EnMin= -40.1940310450658     IErMin= 1 ErrMin= 7.25D-02
 ErrMax= 7.25D-02 EMaxC= 1.00D-01 BMatC= 8.23D-02 BMatP= 8.23D-02
 IDIUse=3 WtCom= 2.75D-01 WtEn= 7.25D-01
 Coeff-Com:  0.100D+01
 Coeff-En:   0.100D+01
 Coeff:      0.100D+01
 Gap=     0.426 Goal=   None    Shift=    0.000
 GapD=    0.426 DampG=2.000 DampE=0.500 DampFc=1.0000 IDamp=-1.
 RMSDP=3.03D-02 MaxDP=1.35D-01              OVMax= 1.77D-01

 Cycle   2  Pass 0  IDiag  1:
 E= -40.1799326973914     Delta-E=        0.014098347674 Rises=F Damp=F
 DIIS: error= 7.18D-02 at cycle   2 NSaved=   2.
 NSaved= 2 IEnMin= 1 EnMin= -40.1940310450658     IErMin= 2 ErrMin= 7.18D-02
 ErrMax= 7.18D-02 EMaxC= 1.00D-01 BMatC= 9.10D-02 BMatP= 8.23D-02
 IDIUse=2 WtCom= 0.00D+00 WtEn= 1.00D+00
 Coeff-En:   0.537D+00 0.463D+00
 Coeff:      0.537D+00 0.463D+00
 Gap=     0.498 Goal=   None    Shift=    0.000
 RMSDP=1.55D-02 MaxDP=6.53D-02 DE= 1.41D-02 OVMax= 8.25D-02

 Cycle   3  Pass 0  IDiag  1:
 E= -40.2799378246871     Delta-E=       -0.100005127296 Rises=F Damp=F
 DIIS: error= 2.76D-03 at cycle   3 NSaved=   3.
 NSaved= 3 IEnMin= 3 EnMin= -40.2799378246871     IErMin= 3 ErrMin= 2.76D-03
 ErrMax= 2.76D-03 EMaxC= 1.00D-01 BMatC= 1.33D-04 BMatP= 8.23D-02
 IDIUse=3 WtCom= 9.72D-01 WtEn= 2.76D-02
 Coeff-Com:  0.109D-01-0.284D-01 0.102D+01
 Coeff-En:   0.000D+00 0.000D+00 0.100D+01
 Coeff:      0.106D-01-0.277D-01 0.102D+01
 Gap=     0.506 Goal=   None    Shift=    0.000
 RMSDP=4.74D-04 MaxDP=3.38D-03 DE=-1.00D-01 OVMax= 2.62D-03

 Cycle   4  Pass 0  IDiag  1:
 E= -40.2800665456801     Delta-E=       -0.000128720993 Rises=F Damp=F
 DIIS: error= 6.76D-05 at cycle   4 NSaved=   4.
 NSaved= 4 IEnMin= 4 EnMin= -40.2800665456801     IErMin= 4 ErrMin= 6.76D-05
 ErrMax= 6.76D-05 EMaxC= 1.00D-01 BMatC= 6.78D-08 BMatP= 1.33D-04
 IDIUse=1 WtCom= 1.00D+00 WtEn= 0.00D+00
 Coeff-Com:  0.118D-02-0.749D-03 0.282D-01 0.971D+00
 Coeff:      0.118D-02-0.749D-03 0.282D-01 0.971D+00
 Gap=     0.506 Goal=   None    Shift=    0.000
 RMSDP=1.45D-05 MaxDP=9.42D-05 DE=-1.29D-04 OVMax= 7.48D-05

 Cycle   5  Pass 0  IDiag  1:
 E= -40.2800666229795     Delta-E=       -0.000000077299 Rises=F Damp=F
 DIIS: error= 5.05D-06 at cycle   5 NSaved=   5.
 NSaved= 5 IEnMin= 5 EnMin= -40.2800666229795     IErMin= 5 ErrMin= 5.05D-06
 ErrMax= 5.05D-06 EMaxC= 1.00D-01 BMatC= 3.87D-10 BMatP= 6.78D-08
 IDIUse=1 WtCom= 1.00D+00 WtEn= 0.00D+00
 Coeff-Com: -0.469D-04 0.559D-04-0.389D-02-0.194D-01 0.102D+01
 Coeff:     -0.469D-04 0.559D-04-0.389D-02-0.194D-01 0.102D+01
 Gap=     0.506 Goal=   None    Shift=    0.000
 RMSDP=8.13D-07 MaxDP=9.30D-06 DE=-7.73D-08 OVMax= 5.67D-06

 Initial convergence to 1.0D-05 achieved.  Increase integral accuracy.
 Cycle   6  Pass 1  IDiag  1:
 E= -40.2800329188356     Delta-E=        0.000033704144 Rises=F Damp=F
 DIIS: error= 9.42D-06 at cycle   1 NSaved=   1.
 NSaved= 1 IEnMin= 1 EnMin= -40.2800329188356     IErMin= 1 ErrMin= 9.42D-06
 ErrMax= 9.42D-06 EMaxC= 1.00D-01 BMatC= 2.02D-09 BMatP= 2.02D-09
 IDIUse=1 WtCom= 1.00D+00 WtEn= 0.00D+00
 Coeff-Com:  0.100D+01
 Coeff:      0.100D+01
 Gap=     0.506 Goal=   None    Shift=    0.000
 RMSDP=8.13D-07 MaxDP=9.30D-06 DE= 3.37D-05 OVMax= 2.50D-05

 Cycle   7  Pass 1  IDiag  1:
 E= -40.2800329227329     Delta-E=       -0.000000003897 Rises=F Damp=F
 DIIS: error= 1.69D-06 at cycle   2 NSaved=   2.
 NSaved= 2 IEnMin= 2 EnMin= -40.2800329227329     IErMin= 2 ErrMin= 1.69D-06
 ErrMax= 1.69D-06 EMaxC= 1.00D-01 BMatC= 5.46D-11 BMatP= 2.02D-09
 IDIUse=1 WtCom= 1.00D+00 WtEn= 0.00D+00
 Coeff-Com: -0.476D-02 0.100D+01
 Coeff:     -0.476D-02 0.100D+01
 Gap=     0.506 Goal=   None    Shift=    0.000
 RMSDP=5.15D-07 MaxDP=4.70D-06 DE=-3.90D-09 OVMax= 2.60D-06

 Cycle   8  Pass 1  IDiag  1:
 E= -40.2800329227347     Delta-E=       -0.000000000002 Rises=F Damp=F
 DIIS: error= 1.69D-06 at cycle   3 NSaved=   3.
 NSaved= 3 IEnMin= 3 EnMin= -40.2800329227347     IErMin= 3 ErrMin= 1.69D-06
 ErrMax= 1.69D-06 EMaxC= 1.00D-01 BMatC= 4.72D-11 BMatP= 5.46D-11
 IDIUse=1 WtCom= 1.00D+00 WtEn= 0.00D+00
 Coeff-Com: -0.620D-02 0.487D+00 0.519D+00
 Coeff:     -0.620D-02 0.487D+00 0.519D+00
 Gap=     0.506 Goal=   None    Shift=    0.000
 RMSDP=3.51D-07 MaxDP=1.72D-06 DE=-1.82D-12 OVMax= 2.02D-06

 Cycle   9  Pass 1  IDiag  1:
 E= -40.2800329227820     Delta-E=       -0.000000000047 Rises=F Damp=F
 DIIS: error= 1.52D-07 at cycle   4 NSaved=   4.
 NSaved= 4 IEnMin= 4 EnMin= -40.2800329227820     IErMin= 4 ErrMin= 1.52D-07
 ErrMax= 1.52D-07 EMaxC= 1.00D-01 BMatC= 4.08D-13 BMatP= 4.72D-11
 IDIUse=1 WtCom= 1.00D+00 WtEn= 0.00D+00
 Coeff-Com: -0.140D-02 0.538D-03 0.838D-01 0.917D+00
 Coeff:     -0.140D-02 0.538D-03 0.838D-01 0.917D+00
 Gap=     0.506 Goal=   None    Shift=    0.000
 RMSDP=2.90D-08 MaxDP=2.07D-07 DE=-4.73D-11 OVMax= 1.59D-07

 Cycle  10  Pass 1  IDiag  1:
 E= -40.2800329227825     Delta-E=        0.000000000000 Rises=F Damp=F
 DIIS: error= 3.33D-09 at cycle   5 NSaved=   5.
 NSaved= 5 IEnMin= 5 EnMin= -40.2800329227825     IErMin= 5 ErrMin= 3.33D-09
 ErrMax= 3.33D-09 EMaxC= 1.00D-01 BMatC= 1.53D-16 BMatP= 4.08D-13
 IDIUse=1 WtCom= 1.00D+00 WtEn= 0.00D+00
 Coeff-Com:  0.410D-04-0.935D-03-0.241D-02 0.219D-02 0.100D+01
 Coeff:      0.410D-04-0.935D-03-0.241D-02 0.219D-02 0.100D+01
 Gap=     0.506 Goal=   None    Shift=    0.000
 RMSDP=8.70D-10 MaxDP=2.86D-09 DE=-4.19D-13 OVMax= 4.83D-09

 SCF Done:  E(RB3LYP) =  -40.2800329228     A.U. after   10 cycles
             Convg  =    0.8700D-09             -V/T =  2.0149
 KE= 3.969038156618D+01 PE=-1.196537250202D+02 EE= 2.599679204975D+01
 Leave Link  502 at Thu Feb 26 17:49:43 2015, MaxMem=  536870912 cpu:      19.0
 (Enter /n/sw/g09_ekwan/g09/l601.exe)
 Copying SCF densities to generalized density rwf, IOpCl= 0 IROHF=0.

 **********************************************************************

            Population analysis using the SCF density.

 **********************************************************************

 Orbital symmetries:
       Occupied  (A) (A) (T) (T) (T)
       Virtual   (A) (T) (T) (T) (T) (T) (T) (A) (A) (T) (T) (T)
 The electronic state is 1-A.
 Alpha  occ. eigenvalues --  -10.09108  -0.70205  -0.39470  -0.39470  -0.39470
 Alpha virt. eigenvalues --    0.11107   0.18125   0.18125   0.18125   0.64230
 Alpha virt. eigenvalues --    0.64230   0.64230   0.91165   0.93451   0.98082
 Alpha virt. eigenvalues --    0.98082   0.98082
          Condensed to atoms (all electrons):
              1          2          3          4          5
     1  C    5.106846   0.383840   0.383840   0.383840   0.383840
     2  H    0.383840   0.532833  -0.025741  -0.025741  -0.025741
     3  H    0.383840  -0.025741   0.532833  -0.025741  -0.025741
     4  H    0.383840  -0.025741  -0.025741   0.532833  -0.025741
     5  H    0.383840  -0.025741  -0.025741  -0.025741   0.532833
 Mulliken atomic charges:
              1
     1  C   -0.642206
     2  H    0.160551
     3  H    0.160551
     4  H    0.160551
     5  H    0.160551
 Sum of Mulliken atomic charges =   0.00000
 Mulliken charges with hydrogens summed into heavy atoms:
              1
     1  C    0.000000
 Sum of Mulliken charges with hydrogens summed into heavy atoms =   0.00000
 Electronic spatial extent (au):  <R**2>=             34.8279
 Charge=              0.0000 electrons
 Dipole moment (field-independent basis, Debye):
    X=              0.0000    Y=              0.0000    Z=              0.0000  Tot=              0.0000
 Quadrupole moment (field-independent basis, Debye-Ang):
   XX=             -8.2827   YY=             -8.2827   ZZ=             -8.2827
   XY=              0.0000   XZ=              0.0000   YZ=              0.0000
 Traceless Quadrupole moment (field-independent basis, Debye-Ang):
   XX=              0.0000   YY=              0.0000   ZZ=              0.0000
   XY=              0.0000   XZ=              0.0000   YZ=              0.0000
 Octapole moment (field-independent basis, Debye-Ang**2):
  XXX=              0.0000  YYY=              0.0000  ZZZ=              0.0000  XYY=              0.0000
  XXY=              0.0000  XXZ=              0.0000  XZZ=              0.0000  YZZ=              0.0000
  YYZ=              0.0000  XYZ=              0.6014
 Hexadecapole moment (field-independent basis, Debye-Ang**3):
 XXXX=            -15.0993 YYYY=            -15.0993 ZZZZ=            -15.0993 XXXY=              0.0000
 XXXZ=              0.0000 YYYX=              0.0000 YYYZ=              0.0000 ZZZX=              0.0000
 ZZZY=              0.0000 XXYY=             -4.6482 XXZZ=             -4.6482 YYZZ=             -4.6482
 XXYZ=              0.0000 YYXZ=              0.0000 ZZXY=              0.0000
 N-N= 1.368651848151D+01 E-N=-1.196537249475D+02  KE= 3.969038156618D+01
 Symmetry A    KE= 3.387698446088D+01
 Symmetry B1   KE= 1.937799035099D+00
 Symmetry B2   KE= 1.937799035099D+00
 Symmetry B3   KE= 1.937799035099D+00
 No NMR shielding tensors so no spin-rotation constants.
 Leave Link  601 at Thu Feb 26 17:49:44 2015, MaxMem=  536870912 cpu:       2.9
 (Enter /n/sw/g09_ekwan/g09/l701.exe)
 Compute integral first derivatives.
 ... and contract with generalized density number  0.
 Leave Link  701 at Thu Feb 26 17:49:44 2015, MaxMem=  536870912 cpu:       2.5
 (Enter /n/sw/g09_ekwan/g09/l702.exe)
 L702 exits ... SP integral derivatives will be done elsewhere.
 Leave Link  702 at Thu Feb 26 17:49:44 2015, MaxMem=  536870912 cpu:       0.1
 (Enter /n/sw/g09_ekwan/g09/l703.exe)
 Compute integral first derivatives, UseDBF=F ICtDFT=           0.
 Integral derivatives from FoFDir, PRISM(SPDF).
 Calling FoFJK, ICntrl=      2127 FMM=F ISym2X=1 I1Cent= 0 IOpClX= 0 NMat=1 NMatS=1 NMatT=0.
 FoFCou: FMM=F IPFlag=           0 FMFlag=      100000 FMFlg1=         800
         NFxFlg=           0 DoJE=F BraDBF=F KetDBF=F FulRan=T
         Omega=  0.000000  0.000000  1.000000  0.000000  0.000000 ICntrl=    2127 IOpCl=  0
         NMat0=    1 NMatS0=    1 NMatT0=    0 NMatD0=    1 NMtDS0=    0 NMtDT0=    0
         I1Cent=           0 NGrid=           0.
 Petite list used in FoFCou.
 Leave Link  703 at Thu Feb 26 17:49:45 2015, MaxMem=  536870912 cpu:       1.8
 (Enter /n/sw/g09_ekwan/g09/l716.exe)
 Dipole        = 8.88178420D-16 4.44089210D-16 4.44089210D-16
 ***** Axes restored to original set *****
 -------------------------------------------------------------------
 Center     Atomic                   Forces (Hartrees/Bohr)
 Number     Number              X              Y              Z
 -------------------------------------------------------------------
      1        6           0.000000000    0.000000000    0.000000000
      2        1           0.006628035   -0.018747636   -0.000000017
      3        1           0.006628389    0.009373688    0.016235859
      4        1           0.006628362    0.009373707   -0.016235859
      5        1          -0.019884786    0.000000241    0.000000017
 -------------------------------------------------------------------
 Cartesian Forces:  Max     0.019884786 RMS     0.010268459
 Leave Link  716 at Thu Feb 26 17:49:45 2015, MaxMem=  536870912 cpu:       0.1
 (Enter /n/sw/g09_ekwan/g09/l103.exe)

 GradGradGradGradGradGradGradGradGradGradGradGradGradGradGradGradGradGrad
 Berny optimization.
 Internal  Forces:  Max     0.019884786 RMS     0.010628865
 Search for a local minimum.
 Step number   1 out of a maximum of   24
 All quantities printed in internal units (Hartrees-Bohrs-Radians)
 RMS Force = .10629D-01 SwitMx=.10000D-02 MixMth= 1
 Mixed Optimization -- RFO/linear search
 Second derivative matrix not updated -- first step.
 The second derivative matrix:
                          R1        R2        R3        R4        A1
           R1           0.37230
           R2           0.00000   0.37230
           R3           0.00000   0.00000   0.37230
           R4           0.00000   0.00000   0.00000   0.37230
           A1           0.00000   0.00000   0.00000   0.00000   0.16000
           A2           0.00000   0.00000   0.00000   0.00000   0.00000
           A3           0.00000   0.00000   0.00000   0.00000   0.00000
           A4           0.00000   0.00000   0.00000   0.00000   0.00000
           A5           0.00000   0.00000   0.00000   0.00000   0.00000
           A6           0.00000   0.00000   0.00000   0.00000   0.00000
           D1           0.00000   0.00000   0.00000   0.00000   0.00000
           D2           0.00000   0.00000   0.00000   0.00000   0.00000
           D3           0.00000   0.00000   0.00000   0.00000   0.00000
           D4           0.00000   0.00000   0.00000   0.00000   0.00000
                          A2        A3        A4        A5        A6
           A2           0.16000
           A3           0.00000   0.16000
           A4           0.00000   0.00000   0.16000
           A5           0.00000   0.00000   0.00000   0.16000
           A6           0.00000   0.00000   0.00000   0.00000   0.16000
           D1           0.00000   0.00000   0.00000   0.00000   0.00000
           D2           0.00000   0.00000   0.00000   0.00000   0.00000
           D3           0.00000   0.00000   0.00000   0.00000   0.00000
           D4           0.00000   0.00000   0.00000   0.00000   0.00000
                          D1        D2        D3        D4
           D1           0.00499
           D2           0.00000   0.00499
           D3           0.00000   0.00000   0.00499
           D4           0.00000   0.00000   0.00000   0.00499
     Eigenvalues ---    0.05269   0.05891   0.08766   0.16000   0.16000
     Eigenvalues ---    0.37230   0.37230   0.37230   0.372301000.00000
     Eigenvalues --- 1000.000001000.000001000.000001000.00000
 RFO step:  Lambda=-4.20083125D-03 EMin= 5.26881002D-02
 Linear search not attempted -- first point.
 Iteration  1 RMS(Cart)=  0.02823057 RMS(Int)=  0.00000000
 Iteration  2 RMS(Cart)=  0.00000000 RMS(Int)=  0.00000000
 ClnCor:  largest displacement from symmetrization is 6.27D-14 for atom     3.
 Variable       Old X    -DE/DX   Delta X   Delta X   Delta X     New X
                                 (Linear)    (Quad)   (Total)
    R1        2.02201   0.01988   0.00000   0.05281   0.05281   2.07482
    R2        2.02201   0.01988   0.00000   0.05281   0.05281   2.07482
    R3        2.02201   0.01988   0.00000   0.05281   0.05281   2.07482
    R4        2.02201   0.01988   0.00000   0.05281   0.05281   2.07482
    A1        1.91063   0.00000   0.00000   0.00000   0.00000   1.91063
    A2        1.91063   0.00000   0.00000   0.00000   0.00000   1.91063
    A3        1.91063   0.00000   0.00000   0.00000   0.00000   1.91063
    A4        1.91063   0.00000   0.00000   0.00000   0.00000   1.91063
    A5        1.91063   0.00000   0.00000   0.00000   0.00000   1.91063
    A6        1.91063   0.00000   0.00000   0.00000   0.00000   1.91063
    D1       -2.09440   0.00000   0.00000   0.00000   0.00000  -2.09440
    D2        2.09440   0.00000   0.00000   0.00000   0.00000   2.09440
    D3       -2.09440   0.00000   0.00000   0.00000   0.00000  -2.09440
    D4        2.09440   0.00000   0.00000   0.00000   0.00000   2.09440
         Item               Value     Threshold  Converged?
 Maximum Force            0.019885     0.000450     NO 
 RMS     Force            0.010629     0.000300     NO 
 Maximum Displacement     0.052815     0.001800     NO 
 RMS     Displacement     0.028231     0.001200     NO 
 Predicted change in Energy=-2.123848D-03
 GradGradGradGradGradGradGradGradGradGradGradGradGradGradGradGradGradGrad

 Leave Link  103 at Thu Feb 26 17:49:46 2015, MaxMem=  536870912 cpu:       6.1
 (Enter /n/sw/g09_ekwan/g09/l202.exe)
                          Input orientation:                          
 ---------------------------------------------------------------------
 Center     Atomic      Atomic             Coordinates (Angstroms)
 Number     Number       Type             X           Y           Z
 ---------------------------------------------------------------------
      1          6           0       -0.480000    2.013333    0.000000
      2          1           0       -0.114030    0.978173   -0.000001
      3          1           0       -0.114010    2.530906    0.896471
      4          1           0       -0.114012    2.530907   -0.896471
      5          1           0       -1.577948    2.013347    0.000001
 ---------------------------------------------------------------------
                    Distance matrix (angstroms):
                    1          2          3          4          5
     1  C    0.000000
     2  H    1.097948   0.000000
     3  H    1.097948   1.792942   0.000000
     4  H    1.097948   1.792942   1.792942   0.000000
     5  H    1.097948   1.792942   1.792942   1.792942   0.000000
 Stoichiometry    CH4
 Framework group  TD[O(C),4C3(H)]
 Deg. of freedom     1
 Full point group                 TD      NOp  24
 Omega: Change in point group or standard orientation.

 Old FWG=T    [O(C1),4C3(H1)]
 New FWG=TD   [O(C1),4C3(H1)]
 Largest Abelian subgroup         D2      NOp   4
 Largest concise Abelian subgroup D2      NOp   4
                         Standard orientation:                         
 ---------------------------------------------------------------------
 Center     Atomic      Atomic             Coordinates (Angstroms)
 Number     Number       Type             X           Y           Z
 ---------------------------------------------------------------------
      1          6           0        0.000000    0.000000    0.000000
      2          1           0        0.633901    0.633901    0.633901
      3          1           0       -0.633901   -0.633901    0.633901
      4          1           0       -0.633901    0.633901   -0.633901
      5          1           0        0.633901   -0.633901   -0.633901
 ---------------------------------------------------------------------
 Rotational constants (GHZ):    155.9910205    155.9910205    155.9910205
 Leave Link  202 at Thu Feb 26 17:49:46 2015, MaxMem=  536870912 cpu:       0.3
 (Enter /n/sw/g09_ekwan/g09/l301.exe)
 Standard basis: MIDIx (5D, 7F)
 Ernie: Thresh=  0.10000D-02 Tol=  0.10000D-05 Strict=F.
 There are     5 symmetry adapted basis functions of A   symmetry.
 There are     4 symmetry adapted basis functions of B1  symmetry.
 There are     4 symmetry adapted basis functions of B2  symmetry.
 There are     4 symmetry adapted basis functions of B3  symmetry.
 Integral buffers will be    131072 words long.
 Raffenetti 2 integral format.
 Two-electron integral symmetry is turned on.
    17 basis functions,    27 primitive gaussians,    17 cartesian basis functions
     5 alpha electrons        5 beta electrons
       nuclear repulsion energy        13.3381282462 Hartrees.
 IExCor=  402 DFT=T Ex+Corr=B3LYP ExCW=0 ScaHFX=  0.200000
 ScaDFX=  0.800000  0.720000  1.000000  0.810000 ScalE2=  1.000000  1.000000
 IRadAn=      0 IRanWt=     -1 IRanGd=            0 ICorTp=0
 NAtoms=    5 NActive=    5 NUniq=    2 SFac= 3.00D+00 NAtFMM=   80 NAOKFM=F Big=F
 Leave Link  301 at Thu Feb 26 17:49:46 2015, MaxMem=  536870912 cpu:       0.3
 (Enter /n/sw/g09_ekwan/g09/l302.exe)
 NPDir=0 NMtPBC=     1 NCelOv=     1 NCel=       1 NClECP=     1 NCelD=      1
         NCelK=      1 NCelE2=     1 NClLst=     1 CellRange=     0.0.
 One-electron integrals computed using PRISM.
 One-electron integral symmetry used in STVInt
 NBasis=    17 RedAO= T  NBF=     5     4     4     4
 NBsUse=    17 1.00D-06 NBFU=     5     4     4     4
 Precomputing XC quadrature grid using
 IXCGrd= 2 IRadAn=           0 IRanWt=          -1 IRanGd=           0 AccXCQ= 1.00D-10.
 NRdTot=     304 NPtTot=       38382 NUsed=       40588 NTot=       40620
 NSgBfM=    17    17    17    17    17 NAtAll=     5     5.
 Leave Link  302 at Thu Feb 26 17:49:47 2015, MaxMem=  536870912 cpu:       2.0
 (Enter /n/sw/g09_ekwan/g09/l303.exe)
 DipDrv:  MaxL=1.
 Leave Link  303 at Thu Feb 26 17:49:47 2015, MaxMem=  536870912 cpu:       0.6
 (Enter /n/sw/g09_ekwan/g09/l401.exe)
 Initial guess read from the read-write file.
 B after Tr=     0.000000    0.000000    0.000000
         Rot=    1.000000    0.000000    0.000000    0.000000 Ang=   0.00 deg.
 Guess basis will be translated and rotated to current coordinates.
 Initial guess orbital symmetries:
       Occupied  (A1) (A1) (T2) (T2) (T2)
       Virtual   (A1) (T2) (T2) (T2) (T2) (T2) (T2) (A1) (A1) (T2)
                 (T2) (T2)
 The electronic state of the initial guess is 1-A1.
 Generating alternative initial guess.
 Harris functional with IExCor=  402 diagonalized for initial guess.
 ExpMin= 1.47D-01 ExpMax= 1.53D+02 ExpMxC= 1.53D+02 IAcc=1 IRadAn=         1 AccDes= 0.00D+00
 HarFok:  IExCor=  402 AccDes= 0.00D+00 IRadAn=         1 IDoV= 1
 ScaDFX=  1.000000  1.000000  1.000000  1.000000
 FoFCou: FMM=F IPFlag=           0 FMFlag=      100000 FMFlg1=           0
         NFxFlg=           0 DoJE=T BraDBF=F KetDBF=T FulRan=T
         Omega=  0.000000  0.000000  1.000000  0.000000  0.000000 ICntrl=     500 IOpCl=  0
         NMat0=    1 NMatS0=    1 NMatT0=    0 NMatD0=    1 NMtDS0=    0 NMtDT0=    0
         I1Cent=           4 NGrid=           0.
 Petite list used in FoFCou.
 Harris En= -40.3132258761167    
 Leave Link  401 at Thu Feb 26 17:49:49 2015, MaxMem=  536870912 cpu:       7.8
 (Enter /n/sw/g09_ekwan/g09/l502.exe)
 Closed shell SCF:
 Requested convergence on RMS density matrix=1.00D-08 within 128 cycles.
 Requested convergence on MAX density matrix=1.00D-06.
 Requested convergence on             energy=1.00D-06.
 No special actions if energy rises.
 Using DIIS extrapolation, IDIIS=  1040.
 Integral symmetry usage will be decided dynamically.
        40530 words used for storage of precomputed grid.
 Keep R1 ints in memory in canonical form, NReq=930398.
 IEnd=       60683 IEndB=       60683 NGot=   536870912 MDV=   536815523
 LenX=   536815523 LenY=   536814641
 Symmetry not used in FoFDir.
 MinBra= 0 MaxBra= 1 Meth= 1.
 IRaf=       0 NMat=   1 IRICut=       1 DoRegI=T DoRafI=F ISym2E= 0 JSym2E=0.
 Integral accuracy reduced to 1.0D-05 until final iterations.

 Cycle   1  Pass 0  IDiag  1:
 E= -40.2816764059518    
 DIIS: error= 3.80D-03 at cycle   1 NSaved=   1.
 NSaved= 1 IEnMin= 1 EnMin= -40.2816764059518     IErMin= 1 ErrMin= 3.80D-03
 ErrMax= 3.80D-03 EMaxC= 1.00D-01 BMatC= 3.79D-04 BMatP= 3.79D-04
 IDIUse=3 WtCom= 9.62D-01 WtEn= 3.80D-02
 Coeff-Com:  0.100D+01
 Coeff-En:   0.100D+01
 Coeff:      0.100D+01
 Gap=     0.492 Goal=   None    Shift=    0.000
 GapD=    0.492 DampG=2.000 DampE=1.000 DampFc=2.0000 IDamp=-1.
 RMSDP=1.77D-03 MaxDP=7.13D-03              OVMax= 9.95D-03

 Cycle   2  Pass 0  IDiag  1:
 E= -40.2818555832908     Delta-E=       -0.000179177339 Rises=F Damp=F
 DIIS: error= 3.77D-03 at cycle   2 NSaved=   2.
 NSaved= 2 IEnMin= 2 EnMin= -40.2818555832908     IErMin= 2 ErrMin= 3.77D-03
 ErrMax= 3.77D-03 EMaxC= 1.00D-01 BMatC= 2.41D-04 BMatP= 3.79D-04
 IDIUse=3 WtCom= 9.62D-01 WtEn= 3.77D-02
 Coeff-Com:  0.432D+00 0.568D+00
 Coeff-En:   0.312D+00 0.688D+00
 Coeff:      0.427D+00 0.573D+00
 Gap=     0.495 Goal=   None    Shift=    0.000
 RMSDP=9.21D-04 MaxDP=4.58D-03 DE=-1.79D-04 OVMax= 5.31D-03

 Cycle   3  Pass 0  IDiag  1:
 E= -40.2820927418788     Delta-E=       -0.000237158588 Rises=F Damp=F
 DIIS: error= 9.16D-04 at cycle   3 NSaved=   3.
 NSaved= 3 IEnMin= 3 EnMin= -40.2820927418788     IErMin= 3 ErrMin= 9.16D-04
 ErrMax= 9.16D-04 EMaxC= 1.00D-01 BMatC= 1.39D-05 BMatP= 2.41D-04
 IDIUse=3 WtCom= 9.91D-01 WtEn= 9.16D-03
 Coeff-Com:  0.120D-01 0.198D+00 0.790D+00
 Coeff-En:   0.000D+00 0.000D+00 0.100D+01
 Coeff:      0.119D-01 0.197D+00 0.792D+00
 Gap=     0.495 Goal=   None    Shift=    0.000
 RMSDP=1.55D-04 MaxDP=8.22D-04 DE=-2.37D-04 OVMax= 9.51D-04

 Cycle   4  Pass 0  IDiag  1:
 E= -40.2821066235886     Delta-E=       -0.000013881710 Rises=F Damp=F
 DIIS: error= 6.55D-06 at cycle   4 NSaved=   4.
 NSaved= 4 IEnMin= 4 EnMin= -40.2821066235886     IErMin= 4 ErrMin= 6.55D-06
 ErrMax= 6.55D-06 EMaxC= 1.00D-01 BMatC= 6.61D-10 BMatP= 1.39D-05
 IDIUse=1 WtCom= 1.00D+00 WtEn= 0.00D+00
 Coeff-Com: -0.124D-02 0.195D-02 0.969D-02 0.990D+00
 Coeff:     -0.124D-02 0.195D-02 0.969D-02 0.990D+00
 Gap=     0.495 Goal=   None    Shift=    0.000
 RMSDP=2.30D-06 MaxDP=9.37D-06 DE=-1.39D-05 OVMax= 1.10D-05

 Initial convergence to 1.0D-05 achieved.  Increase integral accuracy.
 Cycle   5  Pass 1  IDiag  1:
 E= -40.2820774935084     Delta-E=        0.000029130080 Rises=F Damp=F
 DIIS: error= 8.70D-06 at cycle   1 NSaved=   1.
 NSaved= 1 IEnMin= 1 EnMin= -40.2820774935084     IErMin= 1 ErrMin= 8.70D-06
 ErrMax= 8.70D-06 EMaxC= 1.00D-01 BMatC= 1.88D-09 BMatP= 1.88D-09
 IDIUse=1 WtCom= 1.00D+00 WtEn= 0.00D+00
 Coeff-Com:  0.100D+01
 Coeff:      0.100D+01
 Gap=     0.495 Goal=   None    Shift=    0.000
 RMSDP=2.30D-06 MaxDP=9.37D-06 DE= 2.91D-05 OVMax= 2.29D-05

 Cycle   6  Pass 1  IDiag  1:
 E= -40.2820774970868     Delta-E=       -0.000000003578 Rises=F Damp=F
 DIIS: error= 1.12D-06 at cycle   2 NSaved=   2.
 NSaved= 2 IEnMin= 2 EnMin= -40.2820774970868     IErMin= 2 ErrMin= 1.12D-06
 ErrMax= 1.12D-06 EMaxC= 1.00D-01 BMatC= 1.92D-11 BMatP= 1.88D-09
 IDIUse=1 WtCom= 1.00D+00 WtEn= 0.00D+00
 Coeff-Com: -0.221D-01 0.102D+01
 Coeff:     -0.221D-01 0.102D+01
 Gap=     0.495 Goal=   None    Shift=    0.000
 RMSDP=3.50D-07 MaxDP=3.12D-06 DE=-3.58D-09 OVMax= 1.58D-06

 Cycle   7  Pass 1  IDiag  1:
 E= -40.2820774970931     Delta-E=       -0.000000000006 Rises=F Damp=F
 DIIS: error= 8.71D-07 at cycle   3 NSaved=   3.
 NSaved= 3 IEnMin= 3 EnMin= -40.2820774970931     IErMin= 3 ErrMin= 8.71D-07
 ErrMax= 8.71D-07 EMaxC= 1.00D-01 BMatC= 1.26D-11 BMatP= 1.92D-11
 IDIUse=1 WtCom= 1.00D+00 WtEn= 0.00D+00
 Coeff-Com: -0.545D-02 0.453D+00 0.552D+00
 Coeff:     -0.545D-02 0.453D+00 0.552D+00
 Gap=     0.495 Goal=   None    Shift=    0.000
 RMSDP=1.95D-07 MaxDP=9.60D-07 DE=-6.32D-12 OVMax= 1.15D-06

 Cycle   8  Pass 1  IDiag  1:
 E= -40.2820774971055     Delta-E=       -0.000000000012 Rises=F Damp=F
 DIIS: error= 1.69D-07 at cycle   4 NSaved=   4.
 NSaved= 4 IEnMin= 4 EnMin= -40.2820774971055     IErMin= 4 ErrMin= 1.69D-07
 ErrMax= 1.69D-07 EMaxC= 1.00D-01 BMatC= 5.02D-13 BMatP= 1.26D-11
 IDIUse=1 WtCom= 1.00D+00 WtEn= 0.00D+00
 Coeff-Com: -0.130D-02 0.110D-02 0.164D+00 0.836D+00
 Coeff:     -0.130D-02 0.110D-02 0.164D+00 0.836D+00
 Gap=     0.495 Goal=   None    Shift=    0.000
 RMSDP=3.23D-08 MaxDP=2.18D-07 DE=-1.24D-11 OVMax= 1.80D-07

 Cycle   9  Pass 1  IDiag  1:
 E= -40.2820774971061     Delta-E=       -0.000000000001 Rises=F Damp=F
 DIIS: error= 3.54D-09 at cycle   5 NSaved=   5.
 NSaved= 5 IEnMin= 5 EnMin= -40.2820774971061     IErMin= 5 ErrMin= 3.54D-09
 ErrMax= 3.54D-09 EMaxC= 1.00D-01 BMatC= 1.75D-16 BMatP= 5.02D-13
 IDIUse=1 WtCom= 1.00D+00 WtEn= 0.00D+00
 Coeff-Com:  0.447D-04-0.108D-02-0.356D-02 0.494D-02 0.100D+01
 Coeff:      0.447D-04-0.108D-02-0.356D-02 0.494D-02 0.100D+01
 Gap=     0.495 Goal=   None    Shift=    0.000
 RMSDP=9.05D-10 MaxDP=2.96D-09 DE=-5.12D-13 OVMax= 5.17D-09

 SCF Done:  E(RB3LYP) =  -40.2820774971     A.U. after    9 cycles
             Convg  =    0.9049D-09             -V/T =  2.0186
 KE= 3.954481113672D+01 PE=-1.188591245685D+02 EE= 2.569410768856D+01
 Leave Link  502 at Thu Feb 26 17:49:51 2015, MaxMem=  536870912 cpu:      11.2
 (Enter /n/sw/g09_ekwan/g09/l701.exe)
 Compute integral first derivatives.
 ... and contract with generalized density number  0.
 Leave Link  701 at Thu Feb 26 17:49:51 2015, MaxMem=  536870912 cpu:       2.3
 (Enter /n/sw/g09_ekwan/g09/l702.exe)
 L702 exits ... SP integral derivatives will be done elsewhere.
 Leave Link  702 at Thu Feb 26 17:49:52 2015, MaxMem=  536870912 cpu:       0.1
 (Enter /n/sw/g09_ekwan/g09/l703.exe)
 Compute integral first derivatives, UseDBF=F ICtDFT=           0.
 Integral derivatives from FoFDir, PRISM(SPDF).
 Calling FoFJK, ICntrl=      2127 FMM=F ISym2X=1 I1Cent= 0 IOpClX= 0 NMat=1 NMatS=1 NMatT=0.
 FoFCou: FMM=F IPFlag=           0 FMFlag=      100000 FMFlg1=         800
         NFxFlg=           0 DoJE=F BraDBF=F KetDBF=F FulRan=T
         Omega=  0.000000  0.000000  1.000000  0.000000  0.000000 ICntrl=    2127 IOpCl=  0
         NMat0=    1 NMatS0=    1 NMatT0=    0 NMatD0=    1 NMtDS0=    0 NMtDT0=    0
         I1Cent=           0 NGrid=           0.
 Petite list used in FoFCou.
 Leave Link  703 at Thu Feb 26 17:49:52 2015, MaxMem=  536870912 cpu:       1.8
 (Enter /n/sw/g09_ekwan/g09/l716.exe)
 Dipole        =-6.66133815D-16 0.00000000D+00-2.22044605D-16
 ***** Axes restored to original set *****
 -------------------------------------------------------------------
 Center     Atomic                   Forces (Hartrees/Bohr)
 Number     Number              X              Y              Z
 -------------------------------------------------------------------
      1        6           0.000000000    0.000000000    0.000000000
      2        1          -0.000004499    0.000012727    0.000000000
      3        1          -0.000004500   -0.000006363   -0.000011022
      4        1          -0.000004500   -0.000006363    0.000011022
      5        1           0.000013499    0.000000000    0.000000000
 -------------------------------------------------------------------
 Cartesian Forces:  Max     0.000013499 RMS     0.000006971
 Leave Link  716 at Thu Feb 26 17:49:52 2015, MaxMem=  536870912 cpu:       0.1
 (Enter /n/sw/g09_ekwan/g09/l103.exe)

 GradGradGradGradGradGradGradGradGradGradGradGradGradGradGradGradGradGrad
 Berny optimization.
 Using GEDIIS/GDIIS optimizer.
 Internal  Forces:  Max     0.000013499 RMS     0.000007215
 Search for a local minimum.
 Step number   2 out of a maximum of   24
 All quantities printed in internal units (Hartrees-Bohrs-Radians)
 RMS Force = .72154D-05 SwitMx=.10000D-02 MixMth= 2
 Mixed Optimization -- En-DIIS/RFO-DIIS
 Update second derivatives using D2CorX and points    1    2
 DE= -2.04D-03 DEPred=-2.12D-03 R= 9.63D-01
 SS=  1.41D+00  RLast= 1.06D-01 DXNew= 5.0454D-01 3.1689D-01
 Trust test= 9.63D-01 RLast= 1.06D-01 DXMaxT set to 3.17D-01
 The second derivative matrix:
                          R1        R2        R3        R4        A1
           R1           0.37342
           R2           0.00111   0.37342
           R3           0.00111   0.00111   0.37342
           R4           0.00111   0.00111   0.00111   0.37342
           A1           0.00000   0.00000   0.00000   0.00000   0.16000
           A2           0.00000   0.00000   0.00000   0.00000   0.00000
           A3           0.00000   0.00000   0.00000   0.00000   0.00000
           A4           0.00000   0.00000   0.00000   0.00000   0.00000
           A5           0.00000   0.00000   0.00000   0.00000   0.00000
           A6           0.00000   0.00000   0.00000   0.00000   0.00000
           D1           0.00000   0.00000   0.00000   0.00000   0.00000
           D2           0.00000   0.00000   0.00000   0.00000   0.00000
           D3           0.00000   0.00000   0.00000   0.00000   0.00000
           D4           0.00000   0.00000   0.00000   0.00000   0.00000
                          A2        A3        A4        A5        A6
           A2           0.16000
           A3           0.00000   0.16000
           A4           0.00000   0.00000   0.16000
           A5           0.00000   0.00000   0.00000   0.16000
           A6           0.00000   0.00000   0.00000   0.00000   0.16000
           D1           0.00000   0.00000   0.00000   0.00000   0.00000
           D2           0.00000   0.00000   0.00000   0.00000   0.00000
           D3           0.00000   0.00000   0.00000   0.00000   0.00000
           D4           0.00000   0.00000   0.00000   0.00000   0.00000
                          D1        D2        D3        D4
           D1           0.00499
           D2           0.00000   0.00499
           D3           0.00000   0.00000   0.00499
           D4           0.00000   0.00000   0.00000   0.00499
 Use linear search instead of GDIIS.
     Eigenvalues ---    0.05269   0.05891   0.08766   0.16000   0.16000
     Eigenvalues ---    0.37230   0.37230   0.37230   0.376761000.00000
     Eigenvalues --- 1000.000001000.000001000.000001000.00000
 RFO step:  Lambda= 0.00000000D+00 EMin= 5.26881002D-02
 Quartic linear search produced a step of -0.00073.
 Iteration  1 RMS(Cart)=  0.00002074 RMS(Int)=  0.00000000
 Iteration  2 RMS(Cart)=  0.00000000 RMS(Int)=  0.00000000
 ClnCor:  largest displacement from symmetrization is 2.74D-14 for atom     4.
 Variable       Old X    -DE/DX   Delta X   Delta X   Delta X     New X
                                 (Linear)    (Quad)   (Total)
    R1        2.07482  -0.00001  -0.00004   0.00000  -0.00004   2.07478
    R2        2.07482  -0.00001  -0.00004   0.00000  -0.00004   2.07478
    R3        2.07482  -0.00001  -0.00004   0.00000  -0.00004   2.07478
    R4        2.07482  -0.00001  -0.00004   0.00000  -0.00004   2.07478
    A1        1.91063   0.00000   0.00000   0.00000   0.00000   1.91063
    A2        1.91063   0.00000   0.00000   0.00000   0.00000   1.91063
    A3        1.91063   0.00000   0.00000   0.00000   0.00000   1.91063
    A4        1.91063   0.00000   0.00000   0.00000   0.00000   1.91063
    A5        1.91063   0.00000   0.00000   0.00000   0.00000   1.91063
    A6        1.91063   0.00000   0.00000   0.00000   0.00000   1.91063
    D1       -2.09440   0.00000   0.00000   0.00000   0.00000  -2.09440
    D2        2.09440   0.00000   0.00000   0.00000   0.00000   2.09440
    D3       -2.09440   0.00000   0.00000   0.00000   0.00000  -2.09440
    D4        2.09440   0.00000   0.00000   0.00000   0.00000   2.09440
         Item               Value     Threshold  Converged?
 Maximum Force            0.000013     0.000450     YES
 RMS     Force            0.000007     0.000300     YES
 Maximum Displacement     0.000039     0.001800     YES
 RMS     Displacement     0.000021     0.001200     YES
 Predicted change in Energy=-9.606229D-10
 Optimization completed.
    -- Stationary point found.
                           ----------------------------
                           !   Optimized Parameters   !
                           ! (Angstroms and Degrees)  !
 --------------------------                            --------------------------
 ! Name  Definition              Value          Derivative Info.                !
 --------------------------------------------------------------------------------
 ! R1    R(1,2)                  1.0979         -DE/DX =    0.0                 !
 ! R2    R(1,3)                  1.0979         -DE/DX =    0.0                 !
 ! R3    R(1,4)                  1.0979         -DE/DX =    0.0                 !
 ! R4    R(1,5)                  1.0979         -DE/DX =    0.0                 !
 ! A1    A(2,1,3)              109.4712         -DE/DX =    0.0                 !
 ! A2    A(2,1,4)              109.4712         -DE/DX =    0.0                 !
 ! A3    A(2,1,5)              109.4712         -DE/DX =    0.0                 !
 ! A4    A(3,1,4)              109.4712         -DE/DX =    0.0                 !
 ! A5    A(3,1,5)              109.4712         -DE/DX =    0.0                 !
 ! A6    A(4,1,5)              109.4712         -DE/DX =    0.0                 !
 ! D1    D(2,1,4,3)           -120.0            -DE/DX =    0.0                 !
 ! D2    D(2,1,5,3)            120.0            -DE/DX =    0.0                 !
 ! D3    D(2,1,5,4)           -120.0            -DE/DX =    0.0                 !
 ! D4    D(3,1,5,4)            120.0            -DE/DX =    0.0                 !
 --------------------------------------------------------------------------------
 GradGradGradGradGradGradGradGradGradGradGradGradGradGradGradGradGradGrad

 Largest change from initial coordinates is atom    4       0.028 Angstoms.
 Leave Link  103 at Thu Feb 26 17:49:53 2015, MaxMem=  536870912 cpu:       5.3
 (Enter /n/sw/g09_ekwan/g09/l202.exe)
                          Input orientation:                          
 ---------------------------------------------------------------------
 Center     Atomic      Atomic             Coordinates (Angstroms)
 Number     Number       Type             X           Y           Z
 ---------------------------------------------------------------------
      1          6           0       -0.480000    2.013333    0.000000
      2          1           0       -0.114030    0.978173   -0.000001
      3          1           0       -0.114010    2.530906    0.896471
      4          1           0       -0.114012    2.530907   -0.896471
      5          1           0       -1.577948    2.013347    0.000001
 ---------------------------------------------------------------------
                    Distance matrix (angstroms):
                    1          2          3          4          5
     1  C    0.000000
     2  H    1.097948   0.000000
     3  H    1.097948   1.792942   0.000000
     4  H    1.097948   1.792942   1.792942   0.000000
     5  H    1.097948   1.792942   1.792942   1.792942   0.000000
 Stoichiometry    CH4
 Framework group  TD[O(C),4C3(H)]
 Deg. of freedom     1
 Full point group                 TD      NOp  24
 Largest Abelian subgroup         D2      NOp   4
 Largest concise Abelian subgroup D2      NOp   4
                         Standard orientation:                         
 ---------------------------------------------------------------------
 Center     Atomic      Atomic             Coordinates (Angstroms)
 Number     Number       Type             X           Y           Z
 ---------------------------------------------------------------------
      1          6           0        0.000000    0.000000    0.000000
      2          1           0        0.633901    0.633901    0.633901
      3          1           0       -0.633901   -0.633901    0.633901
      4          1           0       -0.633901    0.633901   -0.633901
      5          1           0        0.633901   -0.633901   -0.633901
 ---------------------------------------------------------------------
 Rotational constants (GHZ):    155.9910205    155.9910205    155.9910205
 Leave Link  202 at Thu Feb 26 17:49:53 2015, MaxMem=  536870912 cpu:       0.2
 (Enter /n/sw/g09_ekwan/g09/l601.exe)
 Copying SCF densities to generalized density rwf, IOpCl= 0 IROHF=0.

 **********************************************************************

            Population analysis using the SCF density.

 **********************************************************************

 Orbital symmetries:
       Occupied  (A1) (A1) (T2) (T2) (T2)
       Virtual   (A1) (T2) (T2) (T2) (T2) (T2) (T2) (A1) (A1) (T2)
                 (T2) (T2)
 The electronic state is 1-A1.
 Alpha  occ. eigenvalues --  -10.10281  -0.69375  -0.39002  -0.39002  -0.39002
 Alpha virt. eigenvalues --    0.10485   0.17324   0.17324   0.17324   0.65032
 Alpha virt. eigenvalues --    0.65032   0.65032   0.87013   0.92837   0.96025
 Alpha virt. eigenvalues --    0.96025   0.96025
          Condensed to atoms (all electrons):
              1          2          3          4          5
     1  C    5.130230   0.378250   0.378250   0.378250   0.378250
     2  H    0.378250   0.537180  -0.025412  -0.025412  -0.025412
     3  H    0.378250  -0.025412   0.537180  -0.025412  -0.025412
     4  H    0.378250  -0.025412  -0.025412   0.537180  -0.025412
     5  H    0.378250  -0.025412  -0.025412  -0.025412   0.537180
 Mulliken atomic charges:
              1
     1  C   -0.643230
     2  H    0.160807
     3  H    0.160807
     4  H    0.160807
     5  H    0.160807
 Sum of Mulliken atomic charges =   0.00000
 Mulliken charges with hydrogens summed into heavy atoms:
              1
     1  C    0.000000
 Sum of Mulliken charges with hydrogens summed into heavy atoms =   0.00000
 Electronic spatial extent (au):  <R**2>=             35.8683
 Charge=              0.0000 electrons
 Dipole moment (field-independent basis, Debye):
    X=              0.0000    Y=              0.0000    Z=              0.0000  Tot=              0.0000
 Quadrupole moment (field-independent basis, Debye-Ang):
   XX=             -8.3611   YY=             -8.3611   ZZ=             -8.3611
   XY=              0.0000   XZ=              0.0000   YZ=              0.0000
 Traceless Quadrupole moment (field-independent basis, Debye-Ang):
   XX=              0.0000   YY=              0.0000   ZZ=              0.0000
   XY=              0.0000   XZ=              0.0000   YZ=              0.0000
 Octapole moment (field-independent basis, Debye-Ang**2):
  XXX=              0.0000  YYY=              0.0000  ZZZ=              0.0000  XYY=              0.0000
  XXY=              0.0000  XXZ=              0.0000  XZZ=              0.0000  YZZ=              0.0000
  YYZ=              0.0000  XYZ=              0.6750
 Hexadecapole moment (field-independent basis, Debye-Ang**3):
 XXXX=            -15.7608 YYYY=            -15.7608 ZZZZ=            -15.7608 XXXY=              0.0000
 XXXZ=              0.0000 YYYX=              0.0000 YYYZ=              0.0000 ZZZX=              0.0000
 ZZZY=              0.0000 XXYY=             -4.8196 XXZZ=             -4.8196 YYZZ=             -4.8196
 XXYZ=              0.0000 YYXZ=              0.0000 ZZXY=              0.0000
 N-N= 1.333812824615D+01 E-N=-1.188591244904D+02  KE= 3.954481113672D+01
 Symmetry A    KE= 3.385299695663D+01
 Symmetry B1   KE= 1.897271393363D+00
 Symmetry B2   KE= 1.897271393363D+00
 Symmetry B3   KE= 1.897271393363D+00
 No NMR shielding tensors so no spin-rotation constants.
 Leave Link  601 at Thu Feb 26 17:49:54 2015, MaxMem=  536870912 cpu:       2.2
 (Enter /n/sw/g09_ekwan/g09/l9999.exe)
 1\1\GINC-DAE23\FOpt\RB3LYP\MIDIx\C1H4\EKWAN\26-Feb-2015\0\\#p b3lyp/mi
 dix opt freq=(noraman,hpmodes)\\methane\\0,1\C,-0.47999998,2.013333305
 ,0.\H,-0.1140297801,0.978173358,-0.0000009265\H,-0.1140102114,2.530906
 0925,0.8964709712\H,-0.1140117243,2.5309071623,-0.8964709712\H,-1.5779
 482042,2.0133466073,0.0000009265\\Version=EM64L-G09RevA.02\State=1-A1\
 HF=-40.2820775\RMSD=9.049e-10\RMSF=6.971e-06\Dipole=0.,0.,0.\Quadrupol
 e=0.,0.,0.,0.,0.,0.\PG=TD [O(C1),4C3(H1)]\\@


 HICKORY, DICKORY, DOCK
 TWO MICE RAN UP THE CLOCK
 THE CLOCK STRUCK ONE...
 THE OTHER ESCAPED WITH MINOR INJURIES.
 Leave Link 9999 at Thu Feb 26 17:49:54 2015, MaxMem=  536870912 cpu:       0.3
 Job cpu time:  0 days  0 hours  1 minutes 22.5 seconds.
 File lengths (MBytes):  RWF=      5 Int=      0 D2E=      0 Chk=      2 Scr=      1
 Normal termination of Gaussian 09 at Thu Feb 26 17:49:54 2015.
 (Enter /n/sw/g09_ekwan/g09/l1.exe)
 Link1:  Proceeding to internal job step number  2.
 -----------------------------------------------------------------
 #P Geom=AllCheck Guess=TCheck SCRF=Check GenChk RB3LYP/MIDIx Freq
 -----------------------------------------------------------------
 1/10=4,29=7,30=1,38=1,40=1/1,3;
 2/12=2,40=1/2;
 3/5=20,11=2,14=-4,16=1,25=1,30=1,70=2,71=2,74=-5,116=1/1,2,3;
 4/5=101/1;
 5/5=2,98=1/2;
 8/6=4,10=90,11=11/1;
 11/6=1,8=1,9=11,15=111,16=1/1,2,10;
 10/6=1/2;
 6/7=2,8=2,9=2,10=2,18=1,28=1/1;
 7/8=11,10=1,25=1/1,2,3,16;
 1/10=4,30=1/3;
 99//99;
 Leave Link    1 at Thu Feb 26 17:49:54 2015, MaxMem=  536870912 cpu:       0.3
 (Enter /n/sw/g09_ekwan/g09/l101.exe)
 -------
 methane
 -------
 Redundant internal coordinates taken from checkpoint file:
 chk.chk
 Charge =  0 Multiplicity = 1
 C,0,-0.47999998,2.013333305,0.
 H,0,-0.1140297801,0.978173358,-0.0000009265
 H,0,-0.1140102114,2.5309060925,0.8964709712
 H,0,-0.1140117243,2.5309071623,-0.8964709712
 H,0,-1.5779482042,2.0133466073,0.0000009265
 Recover connectivity data from disk.
                    Isotopes and Nuclear Properties:
 (Nuclear quadrupole moments (NQMom) in fm**2, nuclear magnetic moments (NMagM)
  in nuclear magnetons)

  Atom         1           2           3           4           5
 IAtWgt=          12           1           1           1           1
 AtmWgt=  12.0000000   1.0078250   1.0078250   1.0078250   1.0078250
 NucSpn=           0           1           1           1           1
 AtZEff=  -3.6000000  -1.0000000  -1.0000000  -1.0000000  -1.0000000
 NQMom=    0.0000000   0.0000000   0.0000000   0.0000000   0.0000000
 NMagM=    0.0000000   2.7928460   2.7928460   2.7928460   2.7928460
 Leave Link  101 at Thu Feb 26 17:49:54 2015, MaxMem=  536870912 cpu:       0.6
 (Enter /n/sw/g09_ekwan/g09/l103.exe)

 GradGradGradGradGradGradGradGradGradGradGradGradGradGradGradGradGradGrad
 Berny optimization.
 Initialization pass.
                           ----------------------------
                           !    Initial Parameters    !
                           ! (Angstroms and Degrees)  !
 --------------------------                            --------------------------
 ! Name  Definition              Value          Derivative Info.                !
 --------------------------------------------------------------------------------
 ! R1    R(1,2)                  1.0979         calculate D2E/DX2 analytically  !
 ! R2    R(1,3)                  1.0979         calculate D2E/DX2 analytically  !
 ! R3    R(1,4)                  1.0979         calculate D2E/DX2 analytically  !
 ! R4    R(1,5)                  1.0979         calculate D2E/DX2 analytically  !
 ! A1    A(2,1,3)              109.4712         calculate D2E/DX2 analytically  !
 ! A2    A(2,1,4)              109.4712         calculate D2E/DX2 analytically  !
 ! A3    A(2,1,5)              109.4712         calculate D2E/DX2 analytically  !
 ! A4    A(3,1,4)              109.4712         calculate D2E/DX2 analytically  !
 ! A5    A(3,1,5)              109.4712         calculate D2E/DX2 analytically  !
 ! A6    A(4,1,5)              109.4712         calculate D2E/DX2 analytically  !
 ! D1    D(2,1,4,3)           -120.0            calculate D2E/DX2 analytically  !
 ! D2    D(2,1,5,3)            120.0            calculate D2E/DX2 analytically  !
 ! D3    D(2,1,5,4)           -120.0            calculate D2E/DX2 analytically  !
 ! D4    D(3,1,5,4)            120.0            calculate D2E/DX2 analytically  !
 --------------------------------------------------------------------------------
 Trust Radius=3.00D-01 FncErr=1.00D-07 GrdErr=1.00D-07
 Number of steps in this run=   2 maximum allowed number of steps=   2.
 GradGradGradGradGradGradGradGradGradGradGradGradGradGradGradGradGradGrad

 Leave Link  103 at Thu Feb 26 17:49:55 2015, MaxMem=  536870912 cpu:       0.0
 (Enter /n/sw/g09_ekwan/g09/l202.exe)
                          Input orientation:                          
 ---------------------------------------------------------------------
 Center     Atomic      Atomic             Coordinates (Angstroms)
 Number     Number       Type             X           Y           Z
 ---------------------------------------------------------------------
      1          6           0       -0.480000    2.013333    0.000000
      2          1           0       -0.114030    0.978173   -0.000001
      3          1           0       -0.114010    2.530906    0.896471
      4          1           0       -0.114012    2.530907   -0.896471
      5          1           0       -1.577948    2.013347    0.000001
 ---------------------------------------------------------------------
                    Distance matrix (angstroms):
                    1          2          3          4          5
     1  C    0.000000
     2  H    1.097948   0.000000
     3  H    1.097948   1.792942   0.000000
     4  H    1.097948   1.792942   1.792942   0.000000
     5  H    1.097948   1.792942   1.792942   1.792942   0.000000
 Stoichiometry    CH4
 Framework group  TD[O(C),4C3(H)]
 Deg. of freedom     1
 Full point group                 TD      NOp  24
 Largest Abelian subgroup         D2      NOp   4
 Largest concise Abelian subgroup D2      NOp   4
                         Standard orientation:                         
 ---------------------------------------------------------------------
 Center     Atomic      Atomic             Coordinates (Angstroms)
 Number     Number       Type             X           Y           Z
 ---------------------------------------------------------------------
      1          6           0        0.000000    0.000000    0.000000
      2          1           0        0.633901    0.633901    0.633901
      3          1           0       -0.633901   -0.633901    0.633901
      4          1           0       -0.633901    0.633901   -0.633901
      5          1           0        0.633901   -0.633901   -0.633901
 ---------------------------------------------------------------------
 Rotational constants (GHZ):    155.9910205    155.9910205    155.9910205
 Leave Link  202 at Thu Feb 26 17:49:55 2015, MaxMem=  536870912 cpu:       0.3
 (Enter /n/sw/g09_ekwan/g09/l301.exe)
 Standard basis: MIDIx (5D, 7F)
 Ernie: Thresh=  0.10000D-02 Tol=  0.10000D-05 Strict=F.
 There are     5 symmetry adapted basis functions of A   symmetry.
 There are     4 symmetry adapted basis functions of B1  symmetry.
 There are     4 symmetry adapted basis functions of B2  symmetry.
 There are     4 symmetry adapted basis functions of B3  symmetry.
 Integral buffers will be    131072 words long.
 Raffenetti 2 integral format.
 Two-electron integral symmetry is turned on.
    17 basis functions,    27 primitive gaussians,    17 cartesian basis functions
     5 alpha electrons        5 beta electrons
       nuclear repulsion energy        13.3381282462 Hartrees.
 IExCor=  402 DFT=T Ex+Corr=B3LYP ExCW=0 ScaHFX=  0.200000
 ScaDFX=  0.800000  0.720000  1.000000  0.810000 ScalE2=  1.000000  1.000000
 IRadAn=      0 IRanWt=     -1 IRanGd=            0 ICorTp=0
 NAtoms=    5 NActive=    5 NUniq=    2 SFac= 3.00D+00 NAtFMM=   80 NAOKFM=F Big=F
 Leave Link  301 at Thu Feb 26 17:49:55 2015, MaxMem=  536870912 cpu:       0.3
 (Enter /n/sw/g09_ekwan/g09/l302.exe)
 NPDir=0 NMtPBC=     1 NCelOv=     1 NCel=       1 NClECP=     1 NCelD=      1
         NCelK=      1 NCelE2=     1 NClLst=     1 CellRange=     0.0.
 One-electron integrals computed using PRISM.
 One-electron integral symmetry used in STVInt
 NBasis=    17 RedAO= T  NBF=     5     4     4     4
 NBsUse=    17 1.00D-06 NBFU=     5     4     4     4
 Precomputing XC quadrature grid using
 IXCGrd= 2 IRadAn=           0 IRanWt=          -1 IRanGd=           0 AccXCQ= 1.00D-10.
 NRdTot=     304 NPtTot=       38382 NUsed=       40588 NTot=       40620
 NSgBfM=    17    17    17    17    17 NAtAll=     5     5.
 Leave Link  302 at Thu Feb 26 17:49:55 2015, MaxMem=  536870912 cpu:       1.8
 (Enter /n/sw/g09_ekwan/g09/l303.exe)
 DipDrv:  MaxL=1.
 Leave Link  303 at Thu Feb 26 17:49:55 2015, MaxMem=  536870912 cpu:       0.4
 (Enter /n/sw/g09_ekwan/g09/l401.exe)
 Initial guess read from the checkpoint file:  chk.chk
 B after Tr=     0.000000    0.000000    0.000000
         Rot=    1.000000    0.000000    0.000000    0.000000 Ang=   0.00 deg.
 Guess basis will be translated and rotated to current coordinates.
 Initial guess orbital symmetries:
       Occupied  (A1) (A1) (T2) (T2) (T2)
       Virtual   (A1) (T2) (T2) (T2) (T2) (T2) (T2) (A1) (A1) (T2)
                 (T2) (T2)
 The electronic state of the initial guess is 1-A1.
 Leave Link  401 at Thu Feb 26 17:49:56 2015, MaxMem=  536870912 cpu:       3.3
 (Enter /n/sw/g09_ekwan/g09/l502.exe)
 Closed shell SCF:
 Requested convergence on RMS density matrix=1.00D-08 within 128 cycles.
 Requested convergence on MAX density matrix=1.00D-06.
 Requested convergence on             energy=1.00D-06.
 No special actions if energy rises.
 Using DIIS extrapolation, IDIIS=  1040.
 Integral symmetry usage will be decided dynamically.
        40530 words used for storage of precomputed grid.
 Keep R1 ints in memory in canonical form, NReq=930398.
 IEnd=       60683 IEndB=       60683 NGot=   536870912 MDV=   536815523
 LenX=   536815523 LenY=   536814641
 Symmetry not used in FoFDir.
 MinBra= 0 MaxBra= 1 Meth= 1.
 IRaf=       0 NMat=   1 IRICut=       1 DoRegI=T DoRafI=F ISym2E= 0 JSym2E=0.

 Cycle   1  Pass 1  IDiag  1:
 E= -40.2820774971061    
 DIIS: error= 2.01D-10 at cycle   1 NSaved=   1.
 NSaved= 1 IEnMin= 1 EnMin= -40.2820774971061     IErMin= 1 ErrMin= 2.01D-10
 ErrMax= 2.01D-10 EMaxC= 1.00D-01 BMatC= 3.82D-19 BMatP= 3.82D-19
 IDIUse=1 WtCom= 1.00D+00 WtEn= 0.00D+00
 Coeff-Com:  0.100D+01
 Coeff:      0.100D+01
 Gap=     0.495 Goal=   None    Shift=    0.000
 RMSDP=6.03D-11 MaxDP=4.65D-10              OVMax= 4.16D-10

 SCF Done:  E(RB3LYP) =  -40.2820774971     A.U. after    1 cycles
             Convg  =    0.6027D-10             -V/T =  2.0186
 KE= 3.954481114166D+01 PE=-1.188591244953D+02 EE= 2.569410761041D+01
 Leave Link  502 at Thu Feb 26 17:49:57 2015, MaxMem=  536870912 cpu:       2.8
 (Enter /n/sw/g09_ekwan/g09/l801.exe)
 Range of M.O.s used for correlation:     1    17
 NBasis=    17 NAE=     5 NBE=     5 NFC=     0 NFV=     0
 NROrb=     17 NOA=     5 NOB=     5 NVA=    12 NVB=    12
 Leave Link  801 at Thu Feb 26 17:49:57 2015, MaxMem=  536870912 cpu:       0.2
 (Enter /n/sw/g09_ekwan/g09/l1101.exe)
 Using compressed storage, NAtomX=     5.
 Will process   6 centers per pass.
 Leave Link 1101 at Thu Feb 26 17:49:57 2015, MaxMem=  536870912 cpu:       2.4
 (Enter /n/sw/g09_ekwan/g09/l1102.exe)
 Symmetrizing basis deriv contribution to polar:
 IMax=3 JMax=2 DiffMx= 0.00D+00
 Leave Link 1102 at Thu Feb 26 17:49:58 2015, MaxMem=  536870912 cpu:       0.5
 (Enter /n/sw/g09_ekwan/g09/l1110.exe)
 Forming Gx(P) for the SCF density, NAtomX=     5.
 Integral derivatives from FoFDir/FoFCou, PRISM(SPDF).
 Do as many integral derivatives as possible in FoFDir.
 G2DrvN: MDV=     536870768.
 G2DrvN: will do     6 centers at a time, making    1 passes doing MaxLOS=1.
 Calling FoFCou, ICntrl=  3107 FMM=F I1Cent=   0 AccDes= 0.00D+00.
 FoFCou: FMM=F IPFlag=           0 FMFlag=      100000 FMFlg1=           0
         NFxFlg=           0 DoJE=F BraDBF=F KetDBF=F FulRan=T
         Omega=  0.000000  0.000000  1.000000  0.000000  0.000000 ICntrl=    3107 IOpCl=  0
         NMat0=    1 NMatS0=    1 NMatT0=    0 NMatD0=    1 NMtDS0=    0 NMtDT0=    0
         I1Cent=           0 NGrid=           0.
 Petite list used in FoFCou.
 FoFDir/FoFCou used for L=0 through L=1.
 End of G2Drv Frequency-dependent properties file   721 does not exist.
 End of G2Drv Frequency-dependent properties file   722 does not exist.
 Leave Link 1110 at Thu Feb 26 17:49:58 2015, MaxMem=  536870912 cpu:       2.6
 (Enter /n/sw/g09_ekwan/g09/l1002.exe)
 Minotr:  Closed shell wavefunction.
          IDoAtm=11111
          Direct CPHF calculation.
          Differentiating once with respect to electric field.
                with respect to dipole field.
          Differentiating once with respect to nuclear coordinates.
          Using symmetry in CPHF.
          Requested convergence is 1.0D-08 RMS, and 1.0D-07 maximum.
          Secondary convergence is 1.0D-12 RMS, and 1.0D-12 maximum.
          NewPWx=T KeepS1=F KeepF1=F KeepIn=T MapXYZ=F SortEE=F KeepMc=T.
          MDV=     536870858 using IRadAn=       2.
 Generate precomputed XC quadrature information.
          Keep R1 ints in memory in canonical form, NReq=813781.
 Symmetry not used in FoFDir.
 MinBra= 0 MaxBra= 1 Meth= 1.
 IRaf=       0 NMat=   1 IRICut=       1 DoRegI=T DoRafI=F ISym2E= 0 JSym2E=0.
          Solving linear equations simultaneously, MaxMat=       0.
          There are     9 degrees of freedom in the 1st order CPHF.  IDoFFX=4.
      9 vectors produced by pass  0 Test12= 6.67D-16 1.11D-08 XBig12= 5.55D+00 1.31D+00.
 AX will form     9 AO Fock derivatives at one time.
      9 vectors produced by pass  1 Test12= 6.67D-16 1.11D-08 XBig12= 4.01D-02 1.14D-01.
      9 vectors produced by pass  2 Test12= 6.67D-16 1.11D-08 XBig12= 1.60D-05 2.33D-03.
      9 vectors produced by pass  3 Test12= 6.67D-16 1.11D-08 XBig12= 4.77D-09 4.41D-05.
      7 vectors produced by pass  4 Test12= 6.67D-16 1.11D-08 XBig12= 9.41D-13 4.59D-07.
 Inverted reduced A of dimension    43 with in-core refinement.
 FullF1:  Do perturbations    1 to     9.
 Isotropic polarizability for W=    0.000000       11.38 Bohr**3.
 End of Minotr Frequency-dependent properties file   721 does not exist.
 End of Minotr Frequency-dependent properties file   722 does not exist.
 Leave Link 1002 at Thu Feb 26 17:50:02 2015, MaxMem=  536870912 cpu:      16.8
 (Enter /n/sw/g09_ekwan/g09/l601.exe)
 Copying SCF densities to generalized density rwf, IOpCl= 0 IROHF=0.

 **********************************************************************

            Population analysis using the SCF density.

 **********************************************************************

 Orbital symmetries:
       Occupied  (A1) (A1) (T2) (T2) (T2)
       Virtual   (A1) (T2) (T2) (T2) (T2) (T2) (T2) (A1) (A1) (T2)
                 (T2) (T2)
 The electronic state is 1-A1.
 Alpha  occ. eigenvalues --  -10.10281  -0.69375  -0.39002  -0.39002  -0.39002
 Alpha virt. eigenvalues --    0.10485   0.17324   0.17324   0.17324   0.65032
 Alpha virt. eigenvalues --    0.65032   0.65032   0.87013   0.92837   0.96025
 Alpha virt. eigenvalues --    0.96025   0.96025
          Condensed to atoms (all electrons):
              1          2          3          4          5
     1  C    5.130230   0.378250   0.378250   0.378250   0.378250
     2  H    0.378250   0.537180  -0.025412  -0.025412  -0.025412
     3  H    0.378250  -0.025412   0.537180  -0.025412  -0.025412
     4  H    0.378250  -0.025412  -0.025412   0.537180  -0.025412
     5  H    0.378250  -0.025412  -0.025412  -0.025412   0.537180
 Mulliken atomic charges:
              1
     1  C   -0.643230
     2  H    0.160807
     3  H    0.160807
     4  H    0.160807
     5  H    0.160807
 Sum of Mulliken atomic charges =   0.00000
 Mulliken charges with hydrogens summed into heavy atoms:
              1
     1  C    0.000000
 Sum of Mulliken charges with hydrogens summed into heavy atoms =   0.00000
 APT atomic charges:
              1
     1  C   -0.046948
     2  H    0.011737
     3  H    0.011737
     4  H    0.011737
     5  H    0.011737
 Sum of APT charges=   0.00000
 APT Atomic charges with hydrogens summed into heavy atoms:
              1
     1  C    0.000000
     2  H    0.000000
     3  H    0.000000
     4  H    0.000000
     5  H    0.000000
 Sum of APT charges=   0.00000
 Electronic spatial extent (au):  <R**2>=             35.8683
 Charge=              0.0000 electrons
 Dipole moment (field-independent basis, Debye):
    X=              0.0000    Y=              0.0000    Z=              0.0000  Tot=              0.0000
 Quadrupole moment (field-independent basis, Debye-Ang):
   XX=             -8.3611   YY=             -8.3611   ZZ=             -8.3611
   XY=              0.0000   XZ=              0.0000   YZ=              0.0000
 Traceless Quadrupole moment (field-independent basis, Debye-Ang):
   XX=              0.0000   YY=              0.0000   ZZ=              0.0000
   XY=              0.0000   XZ=              0.0000   YZ=              0.0000
 Octapole moment (field-independent basis, Debye-Ang**2):
  XXX=              0.0000  YYY=              0.0000  ZZZ=              0.0000  XYY=              0.0000
  XXY=              0.0000  XXZ=              0.0000  XZZ=              0.0000  YZZ=              0.0000
  YYZ=              0.0000  XYZ=              0.6750
 Hexadecapole moment (field-independent basis, Debye-Ang**3):
 XXXX=            -15.7608 YYYY=            -15.7608 ZZZZ=            -15.7608 XXXY=              0.0000
 XXXZ=              0.0000 YYYX=              0.0000 YYYZ=              0.0000 ZZZX=              0.0000
 ZZZY=              0.0000 XXYY=             -4.8196 XXZZ=             -4.8196 YYZZ=             -4.8196
 XXYZ=              0.0000 YYXZ=              0.0000 ZZXY=              0.0000
 N-N= 1.333812824615D+01 E-N=-1.188591245019D+02  KE= 3.954481114166D+01
 Symmetry A    KE= 3.385299695878D+01
 Symmetry B1   KE= 1.897271394291D+00
 Symmetry B2   KE= 1.897271394291D+00
 Symmetry B3   KE= 1.897271394291D+00
  Exact polarizability:  11.377   0.000  11.377   0.000   0.000  11.377
 Approx polarizability:  13.086   0.000  13.086   0.000   0.000  13.086
 No NMR shielding tensors so no spin-rotation constants.
 Leave Link  601 at Thu Feb 26 17:50:02 2015, MaxMem=  536870912 cpu:       2.9
 (Enter /n/sw/g09_ekwan/g09/l701.exe)
 Compute integral second derivatives.
 ... and contract with generalized density number  0.
 Leave Link  701 at Thu Feb 26 17:50:03 2015, MaxMem=  536870912 cpu:       2.2
 (Enter /n/sw/g09_ekwan/g09/l702.exe)
 L702 exits ... SP integral derivatives will be done elsewhere.
 Leave Link  702 at Thu Feb 26 17:50:03 2015, MaxMem=  536870912 cpu:       0.1
 (Enter /n/sw/g09_ekwan/g09/l703.exe)
 Compute integral second derivatives, UseDBF=F ICtDFT=           0.
 Integral derivatives from FoFDir, PRISM(SPDF).
 Calling FoFJK, ICntrl=    100127 FMM=F ISym2X=1 I1Cent= 0 IOpClX= 0 NMat=1 NMatS=1 NMatT=0.
 FoFCou: FMM=F IPFlag=           0 FMFlag=      100000 FMFlg1=         800
         NFxFlg=           0 DoJE=F BraDBF=F KetDBF=F FulRan=T
         Omega=  0.000000  0.000000  1.000000  0.000000  0.000000 ICntrl=  100127 IOpCl=  0
         NMat0=    1 NMatS0=    1 NMatT0=    0 NMatD0=    1 NMtDS0=    0 NMtDT0=    0
         I1Cent=           0 NGrid=           0.
 Petite list used in FoFCou.
 Leave Link  703 at Thu Feb 26 17:50:04 2015, MaxMem=  536870912 cpu:       2.4
 (Enter /n/sw/g09_ekwan/g09/l716.exe)
 Dipole        = 1.94289029D-16-2.08166817D-16 3.19189120D-16
 Polarizability= 1.13774781D+01 1.90410273D-09 1.13774781D+01
                 1.04382936D-09 1.75797591D-09 1.13774781D+01
 Full mass-weighted force constant matrix:
 Low frequencies ---   -0.0005   -0.0003    0.0007   73.5604   73.5604   73.5604
 Low frequencies --- 1412.3735 1412.3735 1412.3735
 Diagonal vibrational polarizability:
        0.3927721       0.3927721       0.3927721
 Harmonic frequencies (cm**-1), IR intensities (KM/Mole), Raman scattering
 activities (A**4/AMU), depolarization ratios for plane and unpolarized
 incident light, reduced masses (AMU), force constants (mDyne/A),
 and normal coordinates:
                           1         2         3         4         5
                          T2        T2        T2         E         E
       Frequencies ---  1412.3735 1412.3735 1412.3735 1609.0034 1609.0034
    Reduced masses ---     1.1826    1.1826    1.1826    1.0078    1.0078
   Force constants ---     1.3899    1.3899    1.3899    1.5373    1.5373
    IR Intensities ---    23.7637   23.7637   23.7637    0.0000    0.0000
 Coord Atom Element:
   1     1     6          0.00031   0.00034   0.12609   0.00000   0.00000
   2     1     6          0.00911   0.12576  -0.00036   0.00000   0.00000
   3     1     6          0.12576  -0.00911  -0.00028   0.00000   0.00000
   1     2     1          0.24434   0.21111  -0.37650  -0.34960  -0.21082
   2     2     1          0.20212  -0.39032   0.22984   0.35738  -0.19735
   3     2     1         -0.35723   0.25642   0.22947  -0.00778   0.40817
   1     3     1         -0.21303   0.24425  -0.37548   0.34960   0.21082
   2     3     1         -0.25525  -0.35718   0.23087  -0.35738   0.19735
   3     3     1         -0.39149  -0.20217  -0.22779  -0.00778   0.40817
   1     4     1          0.21120  -0.24626  -0.37520   0.34960   0.21082
   2     4     1         -0.25637  -0.35840  -0.22770   0.35738  -0.19735
   3     4     1         -0.39037  -0.20095   0.23078   0.00778  -0.40817
   1     5     1         -0.24617  -0.21312  -0.37417  -0.34960  -0.21082
   2     5     1          0.20100  -0.39154  -0.22873  -0.35738   0.19735
   3     5     1         -0.35835   0.25520  -0.22910   0.00778  -0.40817
                           6         7         8         9
                          A1        T2        T2        T2
       Frequencies ---  3021.1354 3121.6678 3121.6678 3121.6678
    Reduced masses ---     1.0078    1.0985    1.0985    1.0985
   Force constants ---     5.4197    6.3071    6.3071    6.3071
    IR Intensities ---     0.0000   26.1383   26.1383   26.1383
 Coord Atom Element:
   1     1     6          0.00000   0.00030   0.00029   0.09083
   2     1     6          0.00000   0.09072  -0.00455  -0.00029
   3     1     6          0.00000   0.00455   0.09072  -0.00031
   1     2     1         -0.28868  -0.31098  -0.28136  -0.26845
   2     2     1         -0.28868  -0.28583  -0.28270  -0.29380
   3     2     1         -0.28868  -0.30980  -0.25620  -0.29381
   1     3     1          0.28868  -0.28139   0.30922  -0.27044
   2     3     1          0.28868  -0.25624   0.30787  -0.29579
   3     3     1         -0.28868   0.28274  -0.28390   0.29563
   1     4     1          0.28868   0.27959  -0.31095  -0.27033
   2     4     1         -0.28868  -0.25426   0.30977   0.29552
   3     4     1          0.28868   0.28077  -0.28579  -0.29568
   1     5     1         -0.28868   0.30918   0.27962  -0.27232
   2     5     1          0.28868  -0.28385  -0.28081   0.29751
   3     5     1          0.28868  -0.30783  -0.25430   0.29750
 Harmonic frequencies (cm**-1), IR intensities (KM/Mole), Raman scattering
 activities (A**4/AMU), depolarization ratios for plane and unpolarized
 incident light, reduced masses (AMU), force constants (mDyne/A),
 and normal coordinates:
                     1                      2                      3
                    T2                     T2                     T2
 Frequencies --  1412.3735              1412.3735              1412.3735
 Red. masses --     1.1826                 1.1826                 1.1826
 Frc consts  --     1.3899                 1.3899                 1.3899
 IR Inten    --    23.7637                23.7637                23.7637
  Atom  AN      X      Y      Z        X      Y      Z        X      Y      Z
     1   6     0.00   0.01   0.13     0.00   0.13  -0.01     0.13   0.00   0.00
     2   1     0.24   0.20  -0.36     0.21  -0.39   0.26    -0.38   0.23   0.23
     3   1    -0.21  -0.26  -0.39     0.24  -0.36  -0.20    -0.38   0.23  -0.23
     4   1     0.21  -0.26  -0.39    -0.25  -0.36  -0.20    -0.38  -0.23   0.23
     5   1    -0.25   0.20  -0.36    -0.21  -0.39   0.26    -0.37  -0.23  -0.23
[...]
 Atom     5 has atomic number  1 and mass   1.00783
 Molecular mass:    16.03130 amu.
 Principal axes and moments of inertia in atomic units:
                           1         2         3
     Eigenvalues --    11.56952  11.56952  11.56952
           X            0.04152   0.99827  -0.04152
           Y            0.70589  -0.05872  -0.70589
           Z            0.70711   0.00000   0.70711
 This molecule is a spherical top.
 Rotational symmetry number 12.
 Rotational temperatures (Kelvin)      7.48638     7.48638     7.48638
 Rotational constants (GHZ):         155.99102   155.99102   155.99102
 Zero-point vibrational energy     118677.1 (Joules/Mol)
                                   28.36451 (Kcal/Mol)
 Vibrational temperatures:   2032.09  2032.09  2032.09  2314.99  2314.99
          (Kelvin)           4346.73  4491.38  4491.38  4491.38
 
 Zero-point correction=                           0.045202 (Hartree/Particle)
 Thermal correction to Energy=                    0.048062
 Thermal correction to Enthalpy=                  0.049006
 Thermal correction to Gibbs Free Energy=         0.027867
 Sum of electronic and zero-point Energies=            -40.236876
 Sum of electronic and thermal Energies=               -40.234016
 Sum of electronic and thermal Enthalpies=             -40.233072
 Sum of electronic and thermal Free Energies=          -40.254210
 
                     E (Thermal)             CV                S
                      KCal/Mol        Cal/Mol-Kelvin    Cal/Mol-Kelvin
 Total                   30.159              6.368             44.490
 Electronic               0.000              0.000              0.000
 Translational            0.889              2.981             34.261
 Rotational               0.889              2.981             10.163
 Vibrational             28.382              0.407              0.066
                       Q            Log10(Q)             Ln(Q)
 Total Bot       0.152068D-12        -12.817963        -29.514451
 Total V=0       0.940471D+08          7.973345         18.359306
 Vib (Bot)       0.162364D-20        -20.789510        -47.869615
 Vib (V=0)       0.100415D+01          0.001799          0.004142
 Electronic      0.100000D+01          0.000000          0.000000
 Translational   0.252295D+07          6.401908         14.740939
 Rotational      0.371226D+02          1.569638          3.614225
 
                                                               methane
                                                             IR Spectrum
 
      3   3                                                        1       1                                                         
      1   0                                                        6       4                                                         
      2   2                                                        0       1                                                         
      2   1                                                        9       2                                                         
 
      X                                                                    X                                                         
      X                                                                    X                                                         
      X                                                                    X                                                         
      X                                                                    X                                                         
      X                                                                    X                                                         
      X                                                                    X                                                         
      X                                                                    X                                                         
      X                                                                    X                                                         
      X                                                                    X                                                         
      X                                                                    X                                                         
      X                                                                    X                                                         
      X                                                                    X                                                         
      X                                                                    X                                                         
      X                                                                    X                                                         
      X                                                                    X                                                         
      X                                                                    X                                                         
      X                                                                    X                                                         
      X                                                                    X                                                         
      X                                                                                                                              
      X                                                                                                                              
 
 ***** Axes restored to original set *****
 -------------------------------------------------------------------
 Center     Atomic                   Forces (Hartrees/Bohr)
 Number     Number              X              Y              Z
 -------------------------------------------------------------------
      1        6           0.000000000    0.000000000    0.000000000
      2        1          -0.000004499    0.000012727    0.000000000
      3        1          -0.000004500   -0.000006363   -0.000011022
      4        1          -0.000004500   -0.000006363    0.000011022
      5        1           0.000013499    0.000000000    0.000000000
 -------------------------------------------------------------------
 Cartesian Forces:  Max     0.000013499 RMS     0.000006971
 Force constants in Cartesian coordinates: 
                1             2             3             4             5 
      1  0.545006D+00
      2  0.000000D+00  0.545006D+00
      3  0.000000D+00  0.000000D+00  0.545006D+00
      4 -0.784397D-01  0.817528D-01  0.000000D+00  0.811232D-01
      5  0.817528D-01 -0.280778D+00  0.000000D+00 -0.917585D-01  0.308225D+00
      6  0.000000D+00  0.000000D+00 -0.495369D-01  0.000000D+00  0.000000D+00
      7 -0.784428D-01 -0.408780D-01 -0.708035D-01  0.382223D-02  0.551241D-02
      8 -0.408780D-01 -0.107345D+00 -0.100128D+00 -0.120357D-01 -0.144031D-01
      9 -0.708035D-01 -0.100128D+00 -0.222966D+00  0.583208D-03  0.114249D-02
     10 -0.784426D-01 -0.408779D-01  0.708032D-01  0.382221D-02  0.551243D-02
     11 -0.408779D-01 -0.107346D+00  0.100129D+00 -0.120356D-01 -0.144032D-01
     12  0.708032D-01  0.100129D+00 -0.222966D+00 -0.583227D-03 -0.114252D-02
     13 -0.309681D+00  0.315191D-05  0.000000D+00 -0.103278D-01 -0.101919D-02
     14  0.315174D-05 -0.495369D-01  0.000000D+00  0.340769D-01  0.135893D-02
     15  0.000000D+00  0.000000D+00 -0.495369D-01  0.000000D+00  0.000000D+00
                6             7             8             9            10 
      6  0.486829D-01
      7  0.107142D-01  0.811266D-01
      8 -0.275135D-01  0.458810D-01  0.113567D+00
      9  0.821969D-03  0.794691D-01  0.112383D+00  0.243338D+00
     10 -0.107142D-01  0.382245D-02  0.652285D-02 -0.101316D-01  0.811264D-01
     11  0.275135D-01  0.652282D-02  0.843444D-02 -0.143278D-01  0.458809D-01
     12  0.822019D-03  0.101315D-01  0.143278D-01 -0.220158D-01 -0.794687D-01
     13  0.000000D+00 -0.103285D-01  0.509791D-03  0.882793D-03 -0.103284D-01
     14  0.000000D+00 -0.170383D-01 -0.252473D-03  0.930691D-03 -0.170383D-01
     15 -0.790005D-03 -0.295113D-01  0.931045D-03  0.822019D-03  0.295113D-01
               11            12            13            14            15 
     11  0.113567D+00
     12 -0.112383D+00  0.243338D+00
     13  0.509790D-03 -0.882774D-03  0.340665D+00
     14 -0.252471D-03 -0.930663D-03 -0.353781D-05  0.486829D-01
     15 -0.931047D-03  0.821969D-03  0.000000D+00  0.000000D+00  0.486829D-01
 Force constants in internal coordinates: 
                1             2             3             4             5 
      1  0.340665D+00
      2  0.248171D-02  0.340665D+00
      3  0.248171D-02  0.248171D-02  0.340665D+00
      4  0.248171D-02  0.248171D-02  0.248171D-02  0.340665D+00
      5  0.230532D-02  0.230532D-02 -0.144752D-02 -0.316311D-02  0.211565D-01
      6  0.361298D-02 -0.932383D-03  0.402090D-02 -0.670150D-02 -0.917776D-02
      7  0.706047D-02 -0.566656D-02 -0.627261D-02  0.487869D-02 -0.139421D-01
      8 -0.932383D-03  0.361298D-02  0.402090D-02 -0.670150D-02 -0.917776D-02
      9 -0.566656D-02  0.706047D-02 -0.627261D-02  0.487869D-02 -0.139421D-01
     10 -0.637983D-02 -0.637983D-02  0.595093D-02  0.680873D-02  0.250833D-01
     11 -0.446495D-02 -0.446495D-02 -0.315173D-02  0.120816D-01 -0.146709D-01
     12  0.367702D-02  0.367702D-02 -0.945519D-02  0.210115D-02  0.883573D-02
     13 -0.484179D-02  0.851881D-02 -0.472759D-02  0.105058D-02  0.441786D-02
     14 -0.851881D-02  0.484179D-02  0.472759D-02 -0.105058D-02 -0.441786D-02
                6             7             8             9            10 
      6  0.400997D-01
      7 -0.242465D-01  0.783309D-01
      8 -0.184456D-02  0.258589D-01  0.400997D-01
      9  0.258589D-01 -0.376260D-01 -0.242465D-01  0.783309D-01
     10 -0.306899D-01 -0.283752D-01 -0.306899D-01 -0.283752D-01  0.930468D-01
     11 -0.121860D-01  0.160882D-01 -0.121860D-01  0.160882D-01  0.686659D-02
     12 -0.102530D-01  0.785102D-02 -0.102530D-01  0.785102D-02 -0.403175D-02
     13 -0.154704D-01 -0.895725D-03  0.521744D-02  0.874674D-02 -0.201588D-02
     14 -0.521744D-02 -0.874674D-02  0.154704D-01  0.895725D-03  0.201588D-02
               11            12            13            14 
     11  0.328928D-01
     12  0.173581D-02  0.204370D-01
     13  0.867904D-03  0.102185D-01  0.207303D-01
     14 -0.867904D-03 -0.102185D-01  0.105118D-01  0.207303D-01
 Leave Link  716 at Thu Feb 26 17:50:04 2015, MaxMem=  536870912 cpu:       2.0
 (Enter /n/sw/g09_ekwan/g09/l103.exe)

 GradGradGradGradGradGradGradGradGradGradGradGradGradGradGradGradGradGrad
 Berny optimization.
 Internal  Forces:  Max     0.000013499 RMS     0.000007215
 Search for a local minimum.
 Step number   1 out of a maximum of    2
 All quantities printed in internal units (Hartrees-Bohrs-Radians)
 Second derivative matrix not updated -- analytic derivatives used.
 The second derivative matrix:
                          R1        R2        R3        R4        A1
           R1           0.34067
           R2           0.00248   0.34067
           R3           0.00248   0.00248   0.34067
           R4           0.00248   0.00248   0.00248   0.34067
           A1           0.00231   0.00231  -0.00145  -0.00316   0.02116
           A2           0.00361  -0.00093   0.00402  -0.00670  -0.00918
           A3           0.00706  -0.00567  -0.00627   0.00488  -0.01394
           A4          -0.00093   0.00361   0.00402  -0.00670  -0.00918
           A5          -0.00567   0.00706  -0.00627   0.00488  -0.01394
           A6          -0.00638  -0.00638   0.00595   0.00681   0.02508
           D1          -0.00446  -0.00446  -0.00315   0.01208  -0.01467
           D2           0.00368   0.00368  -0.00946   0.00210   0.00884
           D3          -0.00484   0.00852  -0.00473   0.00105   0.00442
           D4          -0.00852   0.00484   0.00473  -0.00105  -0.00442
                          A2        A3        A4        A5        A6
           A2           0.04010
           A3          -0.02425   0.07833
           A4          -0.00184   0.02586   0.04010
           A5           0.02586  -0.03763  -0.02425   0.07833
           A6          -0.03069  -0.02838  -0.03069  -0.02838   0.09305
           D1          -0.01219   0.01609  -0.01219   0.01609   0.00687
           D2          -0.01025   0.00785  -0.01025   0.00785  -0.00403
           D3          -0.01547  -0.00090   0.00522   0.00875  -0.00202
           D4          -0.00522  -0.00875   0.01547   0.00090   0.00202
                          D1        D2        D3        D4
           D1           0.03289
           D2           0.00174   0.02044
           D3           0.00087   0.01022   0.02073
           D4          -0.00087  -0.01022   0.01051   0.02073
     Eigenvalues ---    0.04162   0.04695   0.07150   0.14045   0.14082
     Eigenvalues ---    0.33954   0.33956   0.33997   0.348111000.00000
     Eigenvalues --- 1000.000001000.000001000.000001000.00000
 Angle between quadratic step and forces=   0.00 degrees.
 Linear search not attempted -- first point.
 Iteration  1 RMS(Cart)=  0.00002073 RMS(Int)=  0.00000000
 Iteration  2 RMS(Cart)=  0.00000000 RMS(Int)=  0.00000000
 ClnCor:  largest displacement from symmetrization is 1.06D-13 for atom     2.
 Variable       Old X    -DE/DX   Delta X   Delta X   Delta X     New X
                                 (Linear)    (Quad)   (Total)
    R1        2.07482  -0.00001   0.00000  -0.00004  -0.00004   2.07478
    R2        2.07482  -0.00001   0.00000  -0.00004  -0.00004   2.07478
    R3        2.07482  -0.00001   0.00000  -0.00004  -0.00004   2.07478
    R4        2.07482  -0.00001   0.00000  -0.00004  -0.00004   2.07478
    A1        1.91063   0.00000   0.00000   0.00000   0.00000   1.91063
    A2        1.91063   0.00000   0.00000   0.00000   0.00000   1.91063
    A3        1.91063   0.00000   0.00000   0.00000   0.00000   1.91063
    A4        1.91063   0.00000   0.00000   0.00000   0.00000   1.91063
    A5        1.91063   0.00000   0.00000   0.00000   0.00000   1.91063
    A6        1.91063   0.00000   0.00000   0.00000   0.00000   1.91063
    D1       -2.09440   0.00000   0.00000   0.00000   0.00000  -2.09440
    D2        2.09440   0.00000   0.00000   0.00000   0.00000   2.09440
    D3       -2.09440   0.00000   0.00000   0.00000   0.00000  -2.09440
    D4        2.09440   0.00000   0.00000   0.00000   0.00000   2.09440
         Item               Value     Threshold  Converged?
 Maximum Force            0.000013     0.000450     YES
 RMS     Force            0.000007     0.000300     YES
 Maximum Displacement     0.000039     0.001800     YES
 RMS     Displacement     0.000021     0.001200     YES
 Predicted change in Energy=-1.046867D-09
 Optimization completed.
    -- Stationary point found.
                           ----------------------------
                           !   Optimized Parameters   !
                           ! (Angstroms and Degrees)  !
 --------------------------                            --------------------------
 ! Name  Definition              Value          Derivative Info.                !
 --------------------------------------------------------------------------------
 ! R1    R(1,2)                  1.0979         -DE/DX =    0.0                 !
 ! R2    R(1,3)                  1.0979         -DE/DX =    0.0                 !
 ! R3    R(1,4)                  1.0979         -DE/DX =    0.0                 !
 ! R4    R(1,5)                  1.0979         -DE/DX =    0.0                 !
 ! A1    A(2,1,3)              109.4712         -DE/DX =    0.0                 !
 ! A2    A(2,1,4)              109.4712         -DE/DX =    0.0                 !
 ! A3    A(2,1,5)              109.4712         -DE/DX =    0.0                 !
 ! A4    A(3,1,4)              109.4712         -DE/DX =    0.0                 !
 ! A5    A(3,1,5)              109.4712         -DE/DX =    0.0                 !
 ! A6    A(4,1,5)              109.4712         -DE/DX =    0.0                 !
 ! D1    D(2,1,4,3)           -120.0            -DE/DX =    0.0                 !
 ! D2    D(2,1,5,3)            120.0            -DE/DX =    0.0                 !
 ! D3    D(2,1,5,4)           -120.0            -DE/DX =    0.0                 !
 ! D4    D(3,1,5,4)            120.0            -DE/DX =    0.0                 !
 --------------------------------------------------------------------------------
 GradGradGradGradGradGradGradGradGradGradGradGradGradGradGradGradGradGrad

 Leave Link  103 at Thu Feb 26 17:50:05 2015, MaxMem=  536870912 cpu:       5.8
 (Enter /n/sw/g09_ekwan/g09/l9999.exe)
 1\1\GINC-DAE23\Freq\RB3LYP\MIDIx\C1H4\EKWAN\26-Feb-2015\0\\#P Geom=All
 Check Guess=TCheck SCRF=Check GenChk RB3LYP/MIDIx Freq\\methane\\0,1\C
 ,-0.47999998,2.013333305,0.\H,-0.1140297801,0.978173358,-0.0000009265\
 H,-0.1140102114,2.5309060925,0.8964709712\H,-0.1140117243,2.5309071623
 ,-0.8964709712\H,-1.5779482042,2.0133466073,0.0000009265\\Version=EM64
 L-G09RevA.02\State=1-A1\HF=-40.2820775\RMSD=6.027e-11\RMSF=6.971e-06\Z
 eroPoint=0.0452017\Thermal=0.0480617\Dipole=0.,0.,0.\DipoleDeriv=-0.04
 69478,0.,0.,0.,-0.0469478,0.,0.,0.,-0.0469478,0.0648907,0.0751659,0.,0
 .0751659,-0.1211447,-0.0000002,0.,-0.0000002,0.0914648,0.0648879,-0.03
 75844,-0.0650988,-0.0375844,0.0383139,-0.0920609,-0.0650988,-0.0920609
 ,-0.0679909,0.0648881,-0.0375844,0.0650985,-0.0375844,0.0383137,0.0920
 611,0.0650985,0.0920611,-0.0679909,-0.1477188,0.0000029,0.0000002,0.00
 00029,0.0914648,0.,0.0000002,0.,0.0914648\Polar=11.3774781,0.,11.37747
 81,0.,0.,11.3774781\PG=TD [O(C1),4C3(H1)]\NImag=0\\0.54500567,0.,0.545
 00567,0.,0.,0.54500567,-0.07843974,0.08175281,0.00000007,0.08112315,0.
 08175281,-0.28077764,-0.00000021,-0.09175845,0.30822499,0.00000007,-0.
 00000021,-0.04953687,-0.00000008,0.00000023,0.04868289,-0.07844283,-0.
 04087802,-0.07080349,0.00382223,0.00551241,0.01071425,0.08112662,-0.04
 087802,-0.10734546,-0.10012837,-0.01203566,-0.01440312,-0.02751348,0.0
 4588104,0.11356661,-0.07080349,-0.10012837,-0.22296597,0.00058321,0.00
 114249,0.00082197,0.07946906,0.11238298,0.24333779,-0.07844259,-0.0408
 7794,0.07080320,0.00382221,0.00551243,-0.01071425,0.00382245,0.0065228
 5,-0.01013157,0.08112635,-0.04087794,-0.10734570,0.10012858,-0.0120356
 2,-0.01440315,0.02751348,0.00652282,0.00843444,-0.01432780,0.04588095,
 0.11356688,0.07080320,0.10012858,-0.22296597,-0.00058323,-0.00114252,0
 .00082202,0.01013153,0.01432782,-0.02201582,-0.07946873,-0.11238322,0.
 24333779,-0.30968051,0.00000315,0.00000022,-0.01032784,-0.00101919,0.,
 -0.01032847,0.00050979,0.00088279,-0.01032842,0.00050979,-0.00088277,0
 .34066525,0.00000315,-0.04953687,0.,0.03407693,0.00135893,-0.00000003,
 -0.01703825,-0.00025247,0.00093069,-0.01703829,-0.00025247,-0.00093066
 ,-0.00000354,0.04868289,0.00000022,0.,-0.04953687,0.00000003,0.,-0.000
 79000,-0.02951135,0.00093104,0.00082202,0.02951135,-0.00093105,0.00082
 197,-0.00000025,0.,0.04868289\\0.,0.,0.,0.00000450,-0.00001273,0.,0.00
 000450,0.00000636,0.00001102,0.00000450,0.00000636,-0.00001102,-0.0000
 1350,0.,0.\\\@


 IF YOU BELIEVE CERTAIN WORDS, YOU BELIEVE THEIR HIDDEN ARGUMENTS.
 WHEN YOU BELIEVE SOMETHING IS RIGHT OR WRONG, TRUE OR FALSE, 
 YOU BELIEVE THE ASSUMPTIONS IN THE WORDS WHICH EXPRESS THE ARGUMENTS.
 SUCH ASSUMPTIONS ARE OFTEN FULL OF HOLES, BUT REMAIN MOST PRECIOUS 
 TO THE CONVINCED.

                 -- THE OPEN-ENDED PROOF FROM THE PANOPLIA PROPHETICA
                    CHILDREN OF DUNE BY FRANK HERBERT
 Job cpu time:  0 days  0 hours  0 minutes 51.8 seconds.
 File lengths (MBytes):  RWF=      5 Int=      0 D2E=      0 Chk=      2 Scr=      1
 Normal termination of Gaussian 09 at Thu Feb 26 17:50:05 2015.
