 Entering Gaussian System, Link 0=g16
 Input=methane2.gjf
 Output=methane2.out
 Initial command:
 /n/sw/g16_nehalem/g16/l1.exe "/scratch/Gau-164547.inp" -scrdir="/scratch/"
 Entering Link 1 = /n/sw/g16_nehalem/g16/l1.exe PID=    164548.
  
 Copyright (c) 1988,1990,1992,1993,1995,1998,2003,2009,2016,
            Gaussian, Inc.  All Rights Reserved.
  
 This is part of the Gaussian(R) 16 program.  It is based on
 the Gaussian(R) 09 system (copyright 2009, Gaussian, Inc.),
 the Gaussian(R) 03 system (copyright 2003, Gaussian, Inc.),
 the Gaussian(R) 98 system (copyright 1998, Gaussian, Inc.),
 the Gaussian(R) 94 system (copyright 1995, Gaussian, Inc.),
 the Gaussian 92(TM) system (copyright 1992, Gaussian, Inc.),
 the Gaussian 90(TM) system (copyright 1990, Gaussian, Inc.),
 the Gaussian 88(TM) system (copyright 1988, Gaussian, Inc.),
 the Gaussian 86(TM) system (copyright 1986, Carnegie Mellon
 University), and the Gaussian 82(TM) system (copyright 1983,
 Carnegie Mellon University). Gaussian is a federally registered
 trademark of Gaussian, Inc.
  
 This software contains proprietary and confidential information,
 including trade secrets, belonging to Gaussian, Inc.
  
 This software is provided under written license and may be
 used, copied, transmitted, or stored only in accord with that
 written license.
  
 The following legend is applicable only to US Government
 contracts under FAR:
  
                    RESTRICTED RIGHTS LEGEND
  
 Use, reproduction and disclosure by the US Government is
 subject to restrictions as set forth in subparagraphs (a)
 and (c) of the Commercial Computer Software - Restricted
 Rights clause in FAR 52.227-19.
  
 Gaussian, Inc.
 340 Quinnipiac St., Bldg. 40, Wallingford CT 06492
  
  
 ---------------------------------------------------------------
 Warning -- This program may not be used in any manner that
 competes with the business of Gaussian, Inc. or will provide
 assistance to any competitor of Gaussian, Inc.  The licensee
 of this program is prohibited from giving any competitor of
 Gaussian, Inc. access to this program.  By using this program,
 the user acknowledges that Gaussian, Inc. is engaged in the
 business of creating and licensing software in the field of
 computational chemistry and represents and warrants to the
 licensee that it is not a competitor of Gaussian, Inc. and that
 it will not use this program in any manner prohibited above.
 ---------------------------------------------------------------
  

 Cite this work as:
 Gaussian 16, Revision A.03,
 M. J. Frisch, G. W. Trucks, H. B. Schlegel, G. E. Scuseria, 
 M. A. Robb, J. R. Cheeseman, G. Scalmani, V. Barone, 
 G. A. Petersson, H. Nakatsuji, X. Li, M. Caricato, A. V. Marenich, 
 J. Bloino, B. G. Janesko, R. Gomperts, B. Mennucci, H. P. Hratchian, 
 J. V. Ortiz, A. F. Izmaylov, J. L. Sonnenberg, D. Williams-Young, 
 F. Ding, F. Lipparini, F. Egidi, J. Goings, B. Peng, A. Petrone, 
 T. Henderson, D. Ranasinghe, V. G. Zakrzewski, J. Gao, N. Rega, 
 G. Zheng, W. Liang, M. Hada, M. Ehara, K. Toyota, R. Fukuda, 
 J. Hasegawa, M. Ishida, T. Nakajima, Y. Honda, O. Kitao, H. Nakai, 
 T. Vreven, K. Throssell, J. A. Montgomery, Jr., J. E. Peralta, 
 F. Ogliaro, M. J. Bearpark, J. J. Heyd, E. N. Brothers, K. N. Kudin, 
 V. N. Staroverov, T. A. Keith, R. Kobayashi, J. Normand, 
 K. Raghavachari, A. P. Rendell, J. C. Burant, S. S. Iyengar, 
 J. Tomasi, M. Cossi, J. M. Millam, M. Klene, C. Adamo, R. Cammi, 
 J. W. Ochterski, R. L. Martin, K. Morokuma, O. Farkas, 
 J. B. Foresman, and D. J. Fox, Gaussian, Inc., Wallingford CT, 2016.
 
 ******************************************
 Gaussian 16:  ES64L-G16RevA.03 25-Dec-2016
                25-Mar-2020 
 ******************************************
 %chk=checkpoint.chk
 %nprocshared=18
 Will use up to   18 processors via shared memory.
 %mem=16GB
 --------------------------------
 #p b3lyp 6-31g* opt freq=noraman
 --------------------------------
 1/18=20,19=15,26=3,38=1/1,3;
 2/9=110,12=2,17=6,18=5,40=1/2;
 3/5=1,6=6,7=1,11=2,25=1,30=1,71=1,74=-5/1,2,3;
 4//1;
 5/5=2,38=5/2;
 6/7=2,8=2,9=2,10=2,28=1/1;
 7//1,2,3,16;
 1/18=20,19=15,26=3/3(2);
 2/9=110/2;
 99//99;
 2/9=110/2;
 3/5=1,6=6,7=1,11=2,25=1,30=1,71=1,74=-5/1,2,3;
 4/5=5,16=3,69=1/1;
 5/5=2,38=5/2;
 7//1,2,3,16;
 1/18=20,19=15,26=3/3(-5);
 2/9=110/2;
 6/7=2,8=2,9=2,10=2,19=2,28=1/1;
 99/9=1/99;
 Leave Link    1 at Wed Mar 25 15:37:04 2020, MaxMem=  2147483648 cpu:               1.0 elap:               0.1
 (Enter /n/sw/g16_nehalem/g16/l101.exe)
 -------------------
 Title Card Required
 -------------------
 Symbolic Z-matrix:
 Charge =  0 Multiplicity = 1
 C                    -3.6566    2.09062   0. 
 H                    -3.29994   1.08181   0. 
 H                    -3.29992   2.59502   0.87365 
 H                    -3.29992   2.59502  -0.87365 
 H                    -4.7266    2.09063   0. 
 
 ITRead=  0  0  0  0  0
 MicOpt= -1 -1 -1 -1 -1
 NAtoms=      5 NQM=        5 NQMF=       0 NMMI=      0 NMMIF=      0
                NMic=       0 NMicF=      0.
                    Isotopes and Nuclear Properties:
 (Nuclear quadrupole moments (NQMom) in fm**2, nuclear magnetic moments (NMagM)
  in nuclear magnetons)

  Atom         1           2           3           4           5
 IAtWgt=          12           1           1           1           1
 AtmWgt=  12.0000000   1.0078250   1.0078250   1.0078250   1.0078250
 NucSpn=           0           1           1           1           1
 AtZEff=   0.0000000   0.0000000   0.0000000   0.0000000   0.0000000
 NQMom=    0.0000000   0.0000000   0.0000000   0.0000000   0.0000000
 NMagM=    0.0000000   2.7928460   2.7928460   2.7928460   2.7928460
 AtZNuc=   6.0000000   1.0000000   1.0000000   1.0000000   1.0000000
 Leave Link  101 at Wed Mar 25 15:37:05 2020, MaxMem=  2147483648 cpu:               5.3 elap:               0.3
 (Enter /n/sw/g16_nehalem/g16/l103.exe)

 GradGradGradGradGradGradGradGradGradGradGradGradGradGradGradGradGradGrad
 Berny optimization.
 Initialization pass.
                           ----------------------------
                           !    Initial Parameters    !
                           ! (Angstroms and Degrees)  !
 --------------------------                            --------------------------
 ! Name  Definition              Value          Derivative Info.                !
 --------------------------------------------------------------------------------
 ! R1    R(1,2)                  1.07           estimate D2E/DX2                !
 ! R2    R(1,3)                  1.07           estimate D2E/DX2                !
 ! R3    R(1,4)                  1.07           estimate D2E/DX2                !
 ! R4    R(1,5)                  1.07           estimate D2E/DX2                !
 ! A1    A(2,1,3)              109.4712         estimate D2E/DX2                !
 ! A2    A(2,1,4)              109.4712         estimate D2E/DX2                !
 ! A3    A(2,1,5)              109.4712         estimate D2E/DX2                !
 ! A4    A(3,1,4)              109.4713         estimate D2E/DX2                !
 ! A5    A(3,1,5)              109.4712         estimate D2E/DX2                !
 ! A6    A(4,1,5)              109.4712         estimate D2E/DX2                !
 ! D1    D(2,1,4,3)           -120.0            estimate D2E/DX2                !
 ! D2    D(2,1,5,3)            120.0            estimate D2E/DX2                !
 ! D3    D(2,1,5,4)           -120.0            estimate D2E/DX2                !
 ! D4    D(3,1,5,4)            120.0            estimate D2E/DX2                !
 --------------------------------------------------------------------------------
 Trust Radius=3.00D-01 FncErr=1.00D-07 GrdErr=1.00D-06 EigMax=2.50D+02 EigMin=1.00D-04
 Number of steps in this run=     24 maximum allowed number of steps=    100.
 GradGradGradGradGradGradGradGradGradGradGradGradGradGradGradGradGradGrad

 Leave Link  103 at Wed Mar 25 15:37:05 2020, MaxMem=  2147483648 cpu:               0.2 elap:               0.0
 (Enter /n/sw/g16_nehalem/g16/l202.exe)
                          Input orientation:                          
 ---------------------------------------------------------------------
 Center     Atomic      Atomic             Coordinates (Angstroms)
 Number     Number       Type             X           Y           Z
 ---------------------------------------------------------------------
      1          6           0       -3.656598    2.090620    0.000000
      2          1           0       -3.299943    1.081810    0.000000
      3          1           0       -3.299925    2.595018    0.873652
      4          1           0       -3.299925    2.595018   -0.873652
      5          1           0       -4.726598    2.090633    0.000000
 ---------------------------------------------------------------------
                    Distance matrix (angstroms):
                    1          2          3          4          5
     1  C    0.000000
     2  H    1.070000   0.000000
     3  H    1.070000   1.747302   0.000000
     4  H    1.070000   1.747302   1.747303   0.000000
     5  H    1.070000   1.747303   1.747303   1.747303   0.000000
 Stoichiometry    CH4
 Framework group  T[O(C),4C3(H)]
 Deg. of freedom     1
 Full point group                 T       NOp  12
 Largest Abelian subgroup         D2      NOp   4
 Largest concise Abelian subgroup D2      NOp   4
                         Standard orientation:                         
 ---------------------------------------------------------------------
 Center     Atomic      Atomic             Coordinates (Angstroms)
 Number     Number       Type             X           Y           Z
 ---------------------------------------------------------------------
      1          6           0        0.000000    0.000000    0.000000
      2          1           0        0.617765    0.617765    0.617765
      3          1           0       -0.617765   -0.617765    0.617765
      4          1           0       -0.617765    0.617765   -0.617765
      5          1           0        0.617765   -0.617765   -0.617765
 ---------------------------------------------------------------------
 Rotational constants (GHZ):         164.2463808         164.2463808         164.2463808
 Leave Link  202 at Wed Mar 25 15:37:05 2020, MaxMem=  2147483648 cpu:               0.3 elap:               0.0
 (Enter /n/sw/g16_nehalem/g16/l301.exe)
 Standard basis: 6-31G(d) (6D, 7F)
 Ernie: Thresh=  0.10000D-02 Tol=  0.10000D-05 Strict=F.
 There are     8 symmetry adapted cartesian basis functions of A   symmetry.
 There are     5 symmetry adapted cartesian basis functions of B1  symmetry.
 There are     5 symmetry adapted cartesian basis functions of B2  symmetry.
 There are     5 symmetry adapted cartesian basis functions of B3  symmetry.
 There are     8 symmetry adapted basis functions of A   symmetry.
 There are     5 symmetry adapted basis functions of B1  symmetry.
 There are     5 symmetry adapted basis functions of B2  symmetry.
 There are     5 symmetry adapted basis functions of B3  symmetry.
    23 basis functions,    44 primitive gaussians,    23 cartesian basis functions
     5 alpha electrons        5 beta electrons
       nuclear repulsion energy        13.6865186503 Hartrees.
 IExCor=  402 DFT=T Ex+Corr=B3LYP ExCW=0 ScaHFX=  0.200000
 ScaDFX=  0.800000  0.720000  1.000000  0.810000 ScalE2=  1.000000  1.000000
 IRadAn=      5 IRanWt=     -1 IRanGd=            0 ICorTp=0 IEmpDi=  4
 NAtoms=    5 NActive=    5 NUniq=    2 SFac= 4.00D+00 NAtFMM=   60 NAOKFM=F Big=F
 Integral buffers will be    131072 words long.
 Raffenetti 2 integral format.
 Two-electron integral symmetry is turned on.
 Leave Link  301 at Wed Mar 25 15:37:05 2020, MaxMem=  2147483648 cpu:               1.0 elap:               0.1
 (Enter /n/sw/g16_nehalem/g16/l302.exe)
 NPDir=0 NMtPBC=     1 NCelOv=     1 NCel=       1 NClECP=     1 NCelD=      1
         NCelK=      1 NCelE2=     1 NClLst=     1 CellRange=     0.0.
 One-electron integrals computed using PRISM.
 One-electron integral symmetry used in STVInt
 NBasis=    23 RedAO= T EigKep=  1.66D-02  NBF=     8     5     5     5
 NBsUse=    23 1.00D-06 EigRej= -1.00D+00 NBFU=     8     5     5     5
 Precomputing XC quadrature grid using
 IXCGrd= 4 IRadAn=           5 IRanWt=          -1 IRanGd=           0 AccXCQ= 0.00D+00.
 Generated NRdTot=       0 NPtTot=           0 NUsed=           0 NTot=          32
 NSgBfM=    23    23    23    23    23 MxSgAt=     5 MxSgA2=     5.
 Leave Link  302 at Wed Mar 25 15:37:05 2020, MaxMem=  2147483648 cpu:               2.1 elap:               0.1
 (Enter /n/sw/g16_nehalem/g16/l303.exe)
 DipDrv:  MaxL=1.
 Leave Link  303 at Wed Mar 25 15:37:05 2020, MaxMem=  2147483648 cpu:               0.5 elap:               0.1
 (Enter /n/sw/g16_nehalem/g16/l401.exe)
 ExpMin= 1.61D-01 ExpMax= 3.05D+03 ExpMxC= 4.57D+02 IAcc=3 IRadAn=         5 AccDes= 0.00D+00
 Harris functional with IExCor=  402 and IRadAn=       5 diagonalized for initial guess.
 HarFok:  IExCor=  402 AccDes= 0.00D+00 IRadAn=         5 IDoV= 1 UseB2=F ITyADJ=14
 ICtDFT=  3500011 ScaDFX=  1.000000  1.000000  1.000000  1.000000
 FoFCou: FMM=F IPFlag=           0 FMFlag=      100000 FMFlg1=           0
         NFxFlg=           0 DoJE=T BraDBF=F KetDBF=T FulRan=T
         wScrn=  0.000000 ICntrl=       500 IOpCl=  0 I1Cent=   200000004 NGrid=           0
         NMat0=    1 NMatS0=      1 NMatT0=    0 NMatD0=    1 NMtDS0=    0 NMtDT0=    0
 Petite list used in FoFCou.
 Harris En= -40.5679853174198    
 JPrj=0 DoOrth=F DoCkMO=F.
 Initial guess orbital symmetries:
       Occupied  (A) (A) (T) (T) (T)
       Virtual   (A) (T) (T) (T) (T) (T) (T) (T) (T) (T) (A) (A)
                 (E) (E) (T) (T) (T) (A)
 The electronic state of the initial guess is 1-A.
 Leave Link  401 at Wed Mar 25 15:37:05 2020, MaxMem=  2147483648 cpu:               2.7 elap:               0.2
 (Enter /n/sw/g16_nehalem/g16/l502.exe)
 Keep R1 ints in memory in symmetry-blocked form, NReq=15555009.
 FoFCou: FMM=F IPFlag=           0 FMFlag=           0 FMFlg1=           0
         NFxFlg=           0 DoJE=F BraDBF=F KetDBF=F FulRan=T
         wScrn=  0.000000 ICntrl=       600 IOpCl=  0 I1Cent=           0 NGrid=           0
         NMat0=    1 NMatS0=    276 NMatT0=    0 NMatD0=    1 NMtDS0=    0 NMtDT0=    0
 Petite list used in FoFCou.
 Closed shell SCF:
 Using DIIS extrapolation, IDIIS=  1040.
 NGot=  2147483648 LenX=  2147470473 LenY=  2147469503
 Requested convergence on RMS density matrix=1.00D-08 within 128 cycles.
 Requested convergence on MAX density matrix=1.00D-06.
 Requested convergence on             energy=1.00D-06.
 No special actions if energy rises.
 Integral accuracy reduced to 1.0D-05 until final iterations.

 Cycle   1  Pass 0  IDiag  1:
 E= -40.4196456668141    
 DIIS: error= 7.47D-02 at cycle   1 NSaved=   1.
 NSaved= 1 IEnMin= 1 EnMin= -40.4196456668141     IErMin= 1 ErrMin= 7.47D-02
 ErrMax= 7.47D-02  0.00D+00 EMaxC= 1.00D-01 BMatC= 9.05D-02 BMatP= 9.05D-02
 IDIUse=3 WtCom= 2.53D-01 WtEn= 7.47D-01
 Coeff-Com:  0.100D+01
 Coeff-En:   0.100D+01
 Coeff:      0.100D+01
 Gap=     0.433 Goal=   None    Shift=    0.000
 GapD=    0.433 DampG=2.000 DampE=0.500 DampFc=1.0000 IDamp=-1.
 RMSDP=2.31D-02 MaxDP=1.61D-01              OVMax= 1.94D-01

 Cycle   2  Pass 0  IDiag  1:
 E= -40.4020293237478     Delta-E=        0.017616343066 Rises=F Damp=F
 DIIS: error= 7.86D-02 at cycle   2 NSaved=   2.
 NSaved= 2 IEnMin= 1 EnMin= -40.4196456668141     IErMin= 1 ErrMin= 7.47D-02
 ErrMax= 7.86D-02  0.00D+00 EMaxC= 1.00D-01 BMatC= 1.06D-01 BMatP= 9.05D-02
 IDIUse=2 WtCom= 0.00D+00 WtEn= 1.00D+00
 Coeff-En:   0.540D+00 0.460D+00
 Coeff:      0.540D+00 0.460D+00
 Gap=     0.507 Goal=   None    Shift=    0.000
 RMSDP=1.17D-02 MaxDP=7.32D-02 DE= 1.76D-02 OVMax= 9.67D-02

 Cycle   3  Pass 0  IDiag  1:
 E= -40.5167867097800     Delta-E=       -0.114757386032 Rises=F Damp=F
 DIIS: error= 3.08D-03 at cycle   3 NSaved=   3.
 NSaved= 3 IEnMin= 3 EnMin= -40.5167867097800     IErMin= 3 ErrMin= 3.08D-03
 ErrMax= 3.08D-03  0.00D+00 EMaxC= 1.00D-01 BMatC= 1.74D-04 BMatP= 9.05D-02
 IDIUse=3 WtCom= 9.69D-01 WtEn= 3.08D-02
 Coeff-Com:  0.122D-01-0.298D-01 0.102D+01
 Coeff-En:   0.000D+00 0.000D+00 0.100D+01
 Coeff:      0.119D-01-0.289D-01 0.102D+01
 Gap=     0.516 Goal=   None    Shift=    0.000
 RMSDP=3.99D-04 MaxDP=3.35D-03 DE=-1.15D-01 OVMax= 3.49D-03

 Cycle   4  Pass 0  IDiag  1:
 E= -40.5169539846198     Delta-E=       -0.000167274840 Rises=F Damp=F
 DIIS: error= 6.24D-05 at cycle   4 NSaved=   4.
 NSaved= 4 IEnMin= 4 EnMin= -40.5169539846198     IErMin= 4 ErrMin= 6.24D-05
 ErrMax= 6.24D-05  0.00D+00 EMaxC= 1.00D-01 BMatC= 6.97D-08 BMatP= 1.74D-04
 IDIUse=1 WtCom= 1.00D+00 WtEn= 0.00D+00
 Coeff-Com:  0.134D-02-0.831D-03 0.335D-01 0.966D+00
 Coeff:      0.134D-02-0.831D-03 0.335D-01 0.966D+00
 Gap=     0.516 Goal=   None    Shift=    0.000
 RMSDP=8.72D-06 MaxDP=5.28D-05 DE=-1.67D-04 OVMax= 7.56D-05

 Initial convergence to 1.0D-05 achieved.  Increase integral accuracy.
 Cycle   5  Pass 1  IDiag  1:
 E= -40.5169484073836     Delta-E=        0.000005577236 Rises=F Damp=F
 DIIS: error= 5.95D-06 at cycle   1 NSaved=   1.
 NSaved= 1 IEnMin= 1 EnMin= -40.5169484073836     IErMin= 1 ErrMin= 5.95D-06
 ErrMax= 5.95D-06  0.00D+00 EMaxC= 1.00D-01 BMatC= 8.59D-10 BMatP= 8.59D-10
 IDIUse=1 WtCom= 1.00D+00 WtEn= 0.00D+00
 Coeff-Com:  0.100D+01
 Coeff:      0.100D+01
 Gap=     0.516 Goal=   None    Shift=    0.000
 RMSDP=8.72D-06 MaxDP=5.28D-05 DE= 5.58D-06 OVMax= 1.34D-05

 Cycle   6  Pass 1  IDiag  1:
 E= -40.5169484075277     Delta-E=       -0.000000000144 Rises=F Damp=F
 DIIS: error= 6.19D-06 at cycle   2 NSaved=   2.
 NSaved= 2 IEnMin= 2 EnMin= -40.5169484075277     IErMin= 1 ErrMin= 5.95D-06
 ErrMax= 6.19D-06  0.00D+00 EMaxC= 1.00D-01 BMatC= 6.61D-10 BMatP= 8.59D-10
 IDIUse=1 WtCom= 1.00D+00 WtEn= 0.00D+00
 Coeff-Com:  0.466D+00 0.534D+00
 Coeff:      0.466D+00 0.534D+00
 Gap=     0.516 Goal=   None    Shift=    0.000
 RMSDP=1.01D-06 MaxDP=7.49D-06 DE=-1.44D-10 OVMax= 8.72D-06

 Cycle   7  Pass 1  IDiag  1:
 E= -40.5169484081838     Delta-E=       -0.000000000656 Rises=F Damp=F
 DIIS: error= 8.65D-07 at cycle   3 NSaved=   3.
 NSaved= 3 IEnMin= 3 EnMin= -40.5169484081838     IErMin= 3 ErrMin= 8.65D-07
 ErrMax= 8.65D-07  0.00D+00 EMaxC= 1.00D-01 BMatC= 1.39D-11 BMatP= 6.61D-10
 IDIUse=1 WtCom= 1.00D+00 WtEn= 0.00D+00
 Coeff-Com: -0.420D-01 0.920D-01 0.950D+00
 Coeff:     -0.420D-01 0.920D-01 0.950D+00
 Gap=     0.516 Goal=   None    Shift=    0.000
 RMSDP=1.11D-07 MaxDP=9.41D-07 DE=-6.56D-10 OVMax= 9.64D-07

 Cycle   8  Pass 1  IDiag  1:
 E= -40.5169484081972     Delta-E=       -0.000000000013 Rises=F Damp=F
 DIIS: error= 1.59D-08 at cycle   4 NSaved=   4.
 NSaved= 4 IEnMin= 4 EnMin= -40.5169484081972     IErMin= 4 ErrMin= 1.59D-08
 ErrMax= 1.59D-08  0.00D+00 EMaxC= 1.00D-01 BMatC= 3.86D-15 BMatP= 1.39D-11
 IDIUse=1 WtCom= 1.00D+00 WtEn= 0.00D+00
 Coeff-Com: -0.146D-02-0.220D-03 0.251D-01 0.977D+00
 Coeff:     -0.146D-02-0.220D-03 0.251D-01 0.977D+00
 Gap=     0.516 Goal=   None    Shift=    0.000
 RMSDP=2.76D-09 MaxDP=1.73D-08 DE=-1.33D-11 OVMax= 2.26D-08

 SCF Done:  E(RB3LYP) =  -40.5169484082     A.U. after    8 cycles
            NFock=  8  Conv=0.28D-08     -V/T= 2.0080
 KE= 4.019408405214D+01 PE=-1.204955915878D+02 EE= 2.609804047715D+01
 Leave Link  502 at Wed Mar 25 15:37:06 2020, MaxMem=  2147483648 cpu:               3.8 elap:               0.2
 (Enter /n/sw/g16_nehalem/g16/l601.exe)
 Copying SCF densities to generalized density rwf, IOpCl= 0 IROHF=0.

 **********************************************************************

            Population analysis using the SCF density.

 **********************************************************************

 Orbital symmetries:
       Occupied  (A) (A) (T) (T) (T)
       Virtual   (A) (T) (T) (T) (T) (T) (T) (T) (T) (T) (A) (A)
                 (E) (E) (T) (T) (T) (A)
 The electronic state is 1-A.
 Alpha  occ. eigenvalues --  -10.15714  -0.69750  -0.39299  -0.39299  -0.39299
 Alpha virt. eigenvalues --    0.12339   0.18377   0.18377   0.18377   0.52636
 Alpha virt. eigenvalues --    0.52636   0.52636   0.91615   0.91615   0.91615
 Alpha virt. eigenvalues --    0.98351   1.10679   1.65175   1.65175   2.27536
 Alpha virt. eigenvalues --    2.27536   2.27536   4.19621
          Condensed to atoms (all electrons):
               1          2          3          4          5
     1  C    5.085250   0.388118   0.388118   0.388118   0.388118
     2  H    0.388118   0.534407  -0.027319  -0.027319  -0.027319
     3  H    0.388118  -0.027319   0.534407  -0.027319  -0.027319
     4  H    0.388118  -0.027319  -0.027319   0.534407  -0.027319
     5  H    0.388118  -0.027319  -0.027319  -0.027319   0.534407
 Mulliken charges:
               1
     1  C   -0.637723
     2  H    0.159431
     3  H    0.159431
     4  H    0.159431
     5  H    0.159431
 Sum of Mulliken charges =   0.00000
 Mulliken charges with hydrogens summed into heavy atoms:
               1
     1  C    0.000000
 Electronic spatial extent (au):  <R**2>=             34.6160
 Charge=              0.0000 electrons
 Dipole moment (field-independent basis, Debye):
    X=              0.0000    Y=              0.0000    Z=              0.0000  Tot=              0.0000
 Quadrupole moment (field-independent basis, Debye-Ang):
   XX=             -8.1876   YY=             -8.1876   ZZ=             -8.1876
   XY=              0.0000   XZ=              0.0000   YZ=              0.0000
 Traceless Quadrupole moment (field-independent basis, Debye-Ang):
   XX=              0.0000   YY=              0.0000   ZZ=              0.0000
   XY=              0.0000   XZ=              0.0000   YZ=              0.0000
 Octapole moment (field-independent basis, Debye-Ang**2):
  XXX=              0.0000  YYY=              0.0000  ZZZ=              0.0000  XYY=              0.0000
  XXY=              0.0000  XXZ=              0.0000  XZZ=              0.0000  YZZ=              0.0000
  YYZ=              0.0000  XYZ=              0.6157
 Hexadecapole moment (field-independent basis, Debye-Ang**3):
 XXXX=            -15.2018 YYYY=            -15.2018 ZZZZ=            -15.2018 XXXY=              0.0000
 XXXZ=              0.0000 YYYX=              0.0000 YYYZ=              0.0000 ZZZX=              0.0000
 ZZZY=              0.0000 XXYY=             -4.6610 XXZZ=             -4.6610 YYZZ=             -4.6610
 XXYZ=              0.0000 YYXZ=              0.0000 ZZXY=              0.0000
 N-N= 1.368651865031D+01 E-N=-1.204955912324D+02  KE= 4.019408405214D+01
 Symmetry A    KE= 3.431335146540D+01
 Symmetry B1   KE= 1.960244195581D+00
 Symmetry B2   KE= 1.960244195581D+00
 Symmetry B3   KE= 1.960244195581D+00
 No NMR shielding tensors so no spin-rotation constants.
 Leave Link  601 at Wed Mar 25 15:37:06 2020, MaxMem=  2147483648 cpu:               2.0 elap:               0.1
 (Enter /n/sw/g16_nehalem/g16/l701.exe)
 ... and contract with generalized density number  0.
 Compute integral first derivatives.
 Leave Link  701 at Wed Mar 25 15:37:06 2020, MaxMem=  2147483648 cpu:               1.9 elap:               0.1
 (Enter /n/sw/g16_nehalem/g16/l702.exe)
 L702 exits ... SP integral derivatives will be done elsewhere.
 Leave Link  702 at Wed Mar 25 15:37:06 2020, MaxMem=  2147483648 cpu:               0.4 elap:               0.0
 (Enter /n/sw/g16_nehalem/g16/l703.exe)
 Integral derivatives from FoFJK, PRISM(SPDF).
 Compute integral first derivatives, UseDBF=F ICtDFT=           0.
 Calling FoFJK, ICntrl=      2127 FMM=F ISym2X=1 I1Cent= 0 IOpClX= 0 NMat=1 NMatS=1 NMatT=0.
 FoFJK:  IHMeth= 1 ICntrl=    2127 DoSepK=F KAlg= 0 I1Cent=           0 FoldK=F
 IRaf=         0 NMat=       1 IRICut=       1 DoRegI=T DoRafI=F ISym2E= 1 IDoP0=0 IntGTp=1.
 FoFCou: FMM=F IPFlag=           0 FMFlag=      100000 FMFlg1=         800
         NFxFlg=           0 DoJE=F BraDBF=F KetDBF=F FulRan=T
         wScrn=  0.000000 ICntrl=      2127 IOpCl=  0 I1Cent=           0 NGrid=           0
         NMat0=    1 NMatS0=      1 NMatT0=    0 NMatD0=    1 NMtDS0=    0 NMtDT0=    0
 Petite list used in FoFCou.
 Leave Link  703 at Wed Mar 25 15:37:06 2020, MaxMem=  2147483648 cpu:               3.0 elap:               0.2
 (Enter /n/sw/g16_nehalem/g16/l716.exe)
 Dipole        = 0.00000000D+00 0.00000000D+00-6.66133815D-16
 ***** Axes restored to original set *****
 -------------------------------------------------------------------
 Center     Atomic                   Forces (Hartrees/Bohr)
 Number     Number              X              Y              Z
 -------------------------------------------------------------------
      1        6           0.000000000    0.000000000    0.000000000
      2        1           0.005557563   -0.015719769   -0.000000013
      3        1           0.005557860    0.007859776    0.013613661
      4        1           0.005557838    0.007859791   -0.013613661
      5        1          -0.016673262    0.000000202    0.000000013
 -------------------------------------------------------------------
 Cartesian Forces:  Max     0.016673262 RMS     0.008610035
 Leave Link  716 at Wed Mar 25 15:37:06 2020, MaxMem=  2147483648 cpu:               0.6 elap:               0.1
 (Enter /n/sw/g16_nehalem/g16/l103.exe)

 GradGradGradGradGradGradGradGradGradGradGradGradGradGradGradGradGradGrad
 Berny optimization.
 FormGI is forming the generalized inverse of G from B-inverse, IUseBI=4.
 Internal  Forces:  Max     0.016673262 RMS     0.008912233
 Search for a local minimum.
 Step number   1 out of a maximum of   24
 All quantities printed in internal units (Hartrees-Bohrs-Radians)
 RMS Force = .89122D-02 SwitMx=.10000D-02 MixMth= 1
 Mixed Optimization -- RFO/linear search
 Second derivative matrix not updated -- first step.
 The second derivative matrix:
                          R1        R2        R3        R4        A1
           R1           0.37230
           R2           0.00000   0.37230
           R3           0.00000   0.00000   0.37230
           R4           0.00000   0.00000   0.00000   0.37230
           A1           0.00000   0.00000   0.00000   0.00000   0.16000
           A2           0.00000   0.00000   0.00000   0.00000   0.00000
           A3           0.00000   0.00000   0.00000   0.00000   0.00000
           A4           0.00000   0.00000   0.00000   0.00000   0.00000
           A5           0.00000   0.00000   0.00000   0.00000   0.00000
           A6           0.00000   0.00000   0.00000   0.00000   0.00000
           D1           0.00000   0.00000   0.00000   0.00000   0.00000
           D2           0.00000   0.00000   0.00000   0.00000   0.00000
           D3           0.00000   0.00000   0.00000   0.00000   0.00000
           D4           0.00000   0.00000   0.00000   0.00000   0.00000
                          A2        A3        A4        A5        A6
           A2           0.16000
           A3           0.00000   0.16000
           A4           0.00000   0.00000   0.16000
           A5           0.00000   0.00000   0.00000   0.16000
           A6           0.00000   0.00000   0.00000   0.00000   0.16000
           D1           0.00000   0.00000   0.00000   0.00000   0.00000
           D2           0.00000   0.00000   0.00000   0.00000   0.00000
           D3           0.00000   0.00000   0.00000   0.00000   0.00000
           D4           0.00000   0.00000   0.00000   0.00000   0.00000
                          D1        D2        D3        D4
           D1           0.00499
           D2           0.00000   0.00499
           D3           0.00000   0.00000   0.00499
           D4           0.00000   0.00000   0.00000   0.00499
 ITU=  0
     Eigenvalues ---    0.05269   0.05891   0.08766   0.16000   0.16000
     Eigenvalues ---    0.37230   0.37230   0.37230   0.37230
 RFO step:  Lambda=-2.96322119D-03 EMin= 5.26881014D-02
 Linear search not attempted -- first point.
 Iteration  1 RMS(Cart)=  0.02374922 RMS(Int)=  0.00000000
 Iteration  2 RMS(Cart)=  0.00000000 RMS(Int)=  0.00000000
 ITry= 1 IFail=0 DXMaxC= 4.44D-02 DCOld= 1.00D+10 DXMaxT= 3.00D-01 DXLimC= 3.00D+00 Rises=F
 ClnCor:  largest displacement from symmetrization is 2.99D-14 for atom     4.
 Variable       Old X    -DE/DX   Delta X   Delta X   Delta X     New X
                                 (Linear)    (Quad)   (Total)
    R1        2.02201   0.01667   0.00000   0.04443   0.04443   2.06644
    R2        2.02201   0.01667   0.00000   0.04443   0.04443   2.06644
    R3        2.02201   0.01667   0.00000   0.04443   0.04443   2.06644
    R4        2.02201   0.01667   0.00000   0.04443   0.04443   2.06644
    A1        1.91063   0.00000   0.00000   0.00000   0.00000   1.91063
    A2        1.91063   0.00000   0.00000   0.00000   0.00000   1.91063
    A3        1.91063   0.00000   0.00000   0.00000   0.00000   1.91063
    A4        1.91063   0.00000   0.00000   0.00000   0.00000   1.91063
    A5        1.91063   0.00000   0.00000   0.00000   0.00000   1.91063
    A6        1.91063   0.00000   0.00000   0.00000   0.00000   1.91063
    D1       -2.09440   0.00000   0.00000   0.00000   0.00000  -2.09440
    D2        2.09440   0.00000   0.00000   0.00000   0.00000   2.09440
    D3       -2.09440   0.00000   0.00000   0.00000   0.00000  -2.09440
    D4        2.09440   0.00000   0.00000   0.00000   0.00000   2.09440
         Item               Value     Threshold  Converged?
 Maximum Force            0.016673     0.000450     NO 
 RMS     Force            0.008912     0.000300     NO 
 Maximum Displacement     0.044431     0.001800     NO 
 RMS     Displacement     0.023749     0.001200     NO 
 Predicted change in Energy=-1.493309D-03
 Lowest energy point so far.  Saving SCF results.
 GradGradGradGradGradGradGradGradGradGradGradGradGradGradGradGradGradGrad

 Leave Link  103 at Wed Mar 25 15:37:07 2020, MaxMem=  2147483648 cpu:               0.3 elap:               0.0
 (Enter /n/sw/g16_nehalem/g16/l202.exe)
                          Input orientation:                          
 ---------------------------------------------------------------------
 Center     Atomic      Atomic             Coordinates (Angstroms)
 Number     Number       Type             X           Y           Z
 ---------------------------------------------------------------------
      1          6           0       -3.656598    2.090620    0.000000
      2          1           0       -3.292106    1.059643   -0.000001
      3          1           0       -3.292087    2.606101    0.892849
      4          1           0       -3.292088    2.606102   -0.892849
      5          1           0       -4.750109    2.090633    0.000001
 ---------------------------------------------------------------------
                    Distance matrix (angstroms):
                    1          2          3          4          5
     1  C    0.000000
     2  H    1.093512   0.000000
     3  H    1.093512   1.785697   0.000000
     4  H    1.093512   1.785697   1.785697   0.000000
     5  H    1.093512   1.785697   1.785697   1.785697   0.000000
 Stoichiometry    CH4
 Framework group  TD[O(C),4C3(H)]
 Deg. of freedom     1
 Full point group                 TD      NOp  24
 Omega: Change in point group or standard orientation.

 Old FWG=T    [O(C1),4C3(H1)]
 New FWG=TD   [O(C1),4C3(H1)]
 RotChk:  IX=0 Diff= 1.59D-14
 Largest Abelian subgroup         D2      NOp   4
 Largest concise Abelian subgroup D2      NOp   4
                         Standard orientation:                         
 ---------------------------------------------------------------------
 Center     Atomic      Atomic             Coordinates (Angstroms)
 Number     Number       Type             X           Y           Z
 ---------------------------------------------------------------------
      1          6           0        0.000000    0.000000    0.000000
      2          1           0        0.631339    0.631339    0.631339
      3          1           0       -0.631339   -0.631339    0.631339
      4          1           0       -0.631339    0.631339   -0.631339
      5          1           0        0.631339   -0.631339   -0.631339
 ---------------------------------------------------------------------
 Rotational constants (GHZ):         157.2593506         157.2593506         157.2593506
 Leave Link  202 at Wed Mar 25 15:37:07 2020, MaxMem=  2147483648 cpu:               0.4 elap:               0.1
 (Enter /n/sw/g16_nehalem/g16/l301.exe)
 Standard basis: 6-31G(d) (6D, 7F)
 Ernie: Thresh=  0.10000D-02 Tol=  0.10000D-05 Strict=F.
 There are     8 symmetry adapted cartesian basis functions of A   symmetry.
 There are     5 symmetry adapted cartesian basis functions of B1  symmetry.
 There are     5 symmetry adapted cartesian basis functions of B2  symmetry.
 There are     5 symmetry adapted cartesian basis functions of B3  symmetry.
 There are     8 symmetry adapted basis functions of A   symmetry.
 There are     5 symmetry adapted basis functions of B1  symmetry.
 There are     5 symmetry adapted basis functions of B2  symmetry.
 There are     5 symmetry adapted basis functions of B3  symmetry.
    23 basis functions,    44 primitive gaussians,    23 cartesian basis functions
     5 alpha electrons        5 beta electrons
       nuclear repulsion energy        13.3922432272 Hartrees.
 IExCor=  402 DFT=T Ex+Corr=B3LYP ExCW=0 ScaHFX=  0.200000
 ScaDFX=  0.800000  0.720000  1.000000  0.810000 ScalE2=  1.000000  1.000000
 IRadAn=      5 IRanWt=     -1 IRanGd=            0 ICorTp=0 IEmpDi=  4
 NAtoms=    5 NActive=    5 NUniq=    2 SFac= 4.00D+00 NAtFMM=   60 NAOKFM=F Big=F
 Integral buffers will be    131072 words long.
 Raffenetti 2 integral format.
 Two-electron integral symmetry is turned on.
 Leave Link  301 at Wed Mar 25 15:37:07 2020, MaxMem=  2147483648 cpu:               1.1 elap:               0.1
 (Enter /n/sw/g16_nehalem/g16/l302.exe)
 NPDir=0 NMtPBC=     1 NCelOv=     1 NCel=       1 NClECP=     1 NCelD=      1
         NCelK=      1 NCelE2=     1 NClLst=     1 CellRange=     0.0.
 One-electron integrals computed using PRISM.
 One-electron integral symmetry used in STVInt
 NBasis=    23 RedAO= T EigKep=  1.80D-02  NBF=     8     5     5     5
 NBsUse=    23 1.00D-06 EigRej= -1.00D+00 NBFU=     8     5     5     5
 Precomputing XC quadrature grid using
 IXCGrd= 4 IRadAn=           5 IRanWt=          -1 IRanGd=           0 AccXCQ= 0.00D+00.
 Generated NRdTot=       0 NPtTot=           0 NUsed=           0 NTot=          32
 NSgBfM=    23    23    23    23    23 MxSgAt=     5 MxSgA2=     5.
 Leave Link  302 at Wed Mar 25 15:37:07 2020, MaxMem=  2147483648 cpu:               2.2 elap:               0.1
 (Enter /n/sw/g16_nehalem/g16/l303.exe)
 DipDrv:  MaxL=1.
 Leave Link  303 at Wed Mar 25 15:37:07 2020, MaxMem=  2147483648 cpu:               0.5 elap:               0.1
 (Enter /n/sw/g16_nehalem/g16/l401.exe)
 Initial guess from the checkpoint file:  "checkpoint.chk"
 B after Tr=     0.000000    0.000000    0.000000
         Rot=    1.000000    0.000000    0.000000    0.000000 Ang=   0.00 deg.
 Guess basis will be translated and rotated to current coordinates.
 JPrj=2 DoOrth=T DoCkMO=T.
 Initial guess orbital symmetries:
       Occupied  (A1) (A1) (T2) (T2) (T2)
       Virtual   (A1) (T2) (T2) (T2) (T2) (T2) (T2) (T2) (T2) (T2)
                 (A1) (A1) (E) (E) (T2) (T2) (T2) (A1)
 The electronic state of the initial guess is 1-A1.
 Generating alternative initial guess.
 ExpMin= 1.61D-01 ExpMax= 3.05D+03 ExpMxC= 4.57D+02 IAcc=2 IRadAn=         4 AccDes= 0.00D+00
 Harris functional with IExCor=  402 and IRadAn=       4 diagonalized for initial guess.
 HarFok:  IExCor=  402 AccDes= 0.00D+00 IRadAn=         4 IDoV= 1 UseB2=F ITyADJ=14
 ICtDFT=  3500011 ScaDFX=  1.000000  1.000000  1.000000  1.000000
 FoFCou: FMM=F IPFlag=           0 FMFlag=      100000 FMFlg1=           0
         NFxFlg=           0 DoJE=T BraDBF=F KetDBF=T FulRan=T
         wScrn=  0.000000 ICntrl=       500 IOpCl=  0 I1Cent=   200000004 NGrid=           0
         NMat0=    1 NMatS0=      1 NMatT0=    0 NMatD0=    1 NMtDS0=    0 NMtDT0=    0
 Petite list used in FoFCou.
 Harris En= -40.5603736465943    
 Leave Link  401 at Wed Mar 25 15:37:07 2020, MaxMem=  2147483648 cpu:               3.5 elap:               0.2
 (Enter /n/sw/g16_nehalem/g16/l502.exe)
 Keep R1 ints in memory in symmetry-blocked form, NReq=15555153.
 FoFCou: FMM=F IPFlag=           0 FMFlag=           0 FMFlg1=           0
         NFxFlg=           0 DoJE=F BraDBF=F KetDBF=F FulRan=T
         wScrn=  0.000000 ICntrl=       600 IOpCl=  0 I1Cent=           0 NGrid=           0
         NMat0=    1 NMatS0=    276 NMatT0=    0 NMatD0=    1 NMtDS0=    0 NMtDT0=    0
 Petite list used in FoFCou.
 Closed shell SCF:
 Using DIIS extrapolation, IDIIS=  1040.
 NGot=  2147483648 LenX=  2147470329 LenY=  2147469359
 Requested convergence on RMS density matrix=1.00D-08 within 128 cycles.
 Requested convergence on MAX density matrix=1.00D-06.
 Requested convergence on             energy=1.00D-06.
 No special actions if energy rises.
 Integral accuracy reduced to 1.0D-05 until final iterations.

 Cycle   1  Pass 0  IDiag  1:
 E= -40.5180839553044    
 DIIS: error= 3.60D-03 at cycle   1 NSaved=   1.
 NSaved= 1 IEnMin= 1 EnMin= -40.5180839553044     IErMin= 1 ErrMin= 3.60D-03
 ErrMax= 3.60D-03  0.00D+00 EMaxC= 1.00D-01 BMatC= 2.48D-04 BMatP= 2.48D-04
 IDIUse=3 WtCom= 9.64D-01 WtEn= 3.60D-02
 Coeff-Com:  0.100D+01
 Coeff-En:   0.100D+01
 Coeff:      0.100D+01
 Gap=     0.504 Goal=   None    Shift=    0.000
 GapD=    0.504 DampG=2.000 DampE=1.000 DampFc=2.0000 IDamp=-1.
 RMSDP=1.09D-03 MaxDP=7.98D-03              OVMax= 9.61D-03

 Cycle   2  Pass 0  IDiag  1:
 E= -40.5181371641090     Delta-E=       -0.000053208805 Rises=F Damp=F
 DIIS: error= 3.79D-03 at cycle   2 NSaved=   2.
 NSaved= 2 IEnMin= 2 EnMin= -40.5181371641090     IErMin= 1 ErrMin= 3.60D-03
 ErrMax= 3.79D-03  0.00D+00 EMaxC= 1.00D-01 BMatC= 2.46D-04 BMatP= 2.48D-04
 IDIUse=3 WtCom= 9.62D-01 WtEn= 3.79D-02
 Coeff-Com:  0.499D+00 0.501D+00
 Coeff-En:   0.443D+00 0.557D+00
 Coeff:      0.497D+00 0.503D+00
 Gap=     0.507 Goal=   None    Shift=    0.000
 RMSDP=5.83D-04 MaxDP=4.29D-03 DE=-5.32D-05 OVMax= 5.06D-03

 Cycle   3  Pass 0  IDiag  1:
 E= -40.5183869203404     Delta-E=       -0.000249756231 Rises=F Damp=F
 DIIS: error= 3.41D-04 at cycle   3 NSaved=   3.
 NSaved= 3 IEnMin= 3 EnMin= -40.5183869203404     IErMin= 3 ErrMin= 3.41D-04
 ErrMax= 3.41D-04  0.00D+00 EMaxC= 1.00D-01 BMatC= 2.18D-06 BMatP= 2.46D-04
 IDIUse=3 WtCom= 9.97D-01 WtEn= 3.41D-03
 Coeff-Com:  0.110D-01 0.914D-01 0.898D+00
 Coeff-En:   0.000D+00 0.000D+00 0.100D+01
 Coeff:      0.110D-01 0.911D-01 0.898D+00
 Gap=     0.507 Goal=   None    Shift=    0.000
 RMSDP=4.23D-05 MaxDP=3.85D-04 DE=-2.50D-04 OVMax= 4.22D-04

 Cycle   4  Pass 0  IDiag  1:
 E= -40.5183890128880     Delta-E=       -0.000002092548 Rises=F Damp=F
 DIIS: error= 9.38D-06 at cycle   4 NSaved=   4.
 NSaved= 4 IEnMin= 4 EnMin= -40.5183890128880     IErMin= 4 ErrMin= 9.38D-06
 ErrMax= 9.38D-06  0.00D+00 EMaxC= 1.00D-01 BMatC= 1.33D-09 BMatP= 2.18D-06
 IDIUse=1 WtCom= 1.00D+00 WtEn= 0.00D+00
 Coeff-Com: -0.187D-02 0.119D-02 0.874D-02 0.992D+00
 Coeff:     -0.187D-02 0.119D-02 0.874D-02 0.992D+00
 Gap=     0.507 Goal=   None    Shift=    0.000
 RMSDP=1.88D-06 MaxDP=1.13D-05 DE=-2.09D-06 OVMax= 1.52D-05

 Initial convergence to 1.0D-05 achieved.  Increase integral accuracy.
 Cycle   5  Pass 1  IDiag  1:
 E= -40.5183831833977     Delta-E=        0.000005829490 Rises=F Damp=F
 DIIS: error= 1.18D-06 at cycle   1 NSaved=   1.
 NSaved= 1 IEnMin= 1 EnMin= -40.5183831833977     IErMin= 1 ErrMin= 1.18D-06
 ErrMax= 1.18D-06  0.00D+00 EMaxC= 1.00D-01 BMatC= 5.51D-11 BMatP= 5.51D-11
 IDIUse=1 WtCom= 1.00D+00 WtEn= 0.00D+00
 Coeff-Com:  0.100D+01
 Coeff:      0.100D+01
 Gap=     0.507 Goal=   None    Shift=    0.000
 RMSDP=1.88D-06 MaxDP=1.13D-05 DE= 5.83D-06 OVMax= 3.96D-06

 Cycle   6  Pass 1  IDiag  1:
 E= -40.5183831834901     Delta-E=       -0.000000000092 Rises=F Damp=F
 DIIS: error= 6.36D-07 at cycle   2 NSaved=   2.
 NSaved= 2 IEnMin= 2 EnMin= -40.5183831834901     IErMin= 2 ErrMin= 6.36D-07
 ErrMax= 6.36D-07  0.00D+00 EMaxC= 1.00D-01 BMatC= 6.85D-12 BMatP= 5.51D-11
 IDIUse=1 WtCom= 1.00D+00 WtEn= 0.00D+00
 Coeff-Com:  0.192D+00 0.808D+00
 Coeff:      0.192D+00 0.808D+00
 Gap=     0.507 Goal=   None    Shift=    0.000
 RMSDP=1.93D-07 MaxDP=1.15D-06 DE=-9.23D-11 OVMax= 1.52D-06

 Cycle   7  Pass 1  IDiag  1:
 E= -40.5183831834938     Delta-E=       -0.000000000004 Rises=F Damp=F
 DIIS: error= 4.90D-07 at cycle   3 NSaved=   3.
 NSaved= 3 IEnMin= 3 EnMin= -40.5183831834938     IErMin= 3 ErrMin= 4.90D-07
 ErrMax= 4.90D-07  0.00D+00 EMaxC= 1.00D-01 BMatC= 4.24D-12 BMatP= 6.85D-12
 IDIUse=1 WtCom= 1.00D+00 WtEn= 0.00D+00
 Coeff-Com: -0.273D-01 0.430D+00 0.597D+00
 Coeff:     -0.273D-01 0.430D+00 0.597D+00
 Gap=     0.507 Goal=   None    Shift=    0.000
 RMSDP=6.04D-08 MaxDP=5.18D-07 DE=-3.72D-12 OVMax= 5.55D-07

 Cycle   8  Pass 1  IDiag  1:
 E= -40.5183831834980     Delta-E=       -0.000000000004 Rises=F Damp=F
 DIIS: error= 6.81D-09 at cycle   4 NSaved=   4.
 NSaved= 4 IEnMin= 4 EnMin= -40.5183831834980     IErMin= 4 ErrMin= 6.81D-09
 ErrMax= 6.81D-09  0.00D+00 EMaxC= 1.00D-01 BMatC= 6.97D-16 BMatP= 4.24D-12
 IDIUse=1 WtCom= 1.00D+00 WtEn= 0.00D+00
 Coeff-Com: -0.193D-02 0.667D-02 0.179D-02 0.993D+00
 Coeff:     -0.193D-02 0.667D-02 0.179D-02 0.993D+00
 Gap=     0.507 Goal=   None    Shift=    0.000
 RMSDP=1.26D-09 MaxDP=6.36D-09 DE=-4.26D-12 OVMax= 1.15D-08

 SCF Done:  E(RB3LYP) =  -40.5183831835     A.U. after    8 cycles
            NFock=  8  Conv=0.13D-08     -V/T= 2.0112
 KE= 4.006982211071D+01 PE=-1.198231545359D+02 EE= 2.584270601442D+01
 Leave Link  502 at Wed Mar 25 15:37:08 2020, MaxMem=  2147483648 cpu:               4.0 elap:               0.2
 (Enter /n/sw/g16_nehalem/g16/l701.exe)
 ... and contract with generalized density number  0.
 Compute integral first derivatives.
 Leave Link  701 at Wed Mar 25 15:37:08 2020, MaxMem=  2147483648 cpu:               2.0 elap:               0.1
 (Enter /n/sw/g16_nehalem/g16/l702.exe)
 L702 exits ... SP integral derivatives will be done elsewhere.
 Leave Link  702 at Wed Mar 25 15:37:08 2020, MaxMem=  2147483648 cpu:               0.5 elap:               0.0
 (Enter /n/sw/g16_nehalem/g16/l703.exe)
 Integral derivatives from FoFJK, PRISM(SPDF).
 Compute integral first derivatives, UseDBF=F ICtDFT=           0.
 Calling FoFJK, ICntrl=      2127 FMM=F ISym2X=1 I1Cent= 0 IOpClX= 0 NMat=1 NMatS=1 NMatT=0.
 FoFJK:  IHMeth= 1 ICntrl=    2127 DoSepK=F KAlg= 0 I1Cent=           0 FoldK=F
 IRaf=         0 NMat=       1 IRICut=       1 DoRegI=T DoRafI=F ISym2E= 1 IDoP0=0 IntGTp=1.
 FoFCou: FMM=F IPFlag=           0 FMFlag=      100000 FMFlg1=         800
         NFxFlg=           0 DoJE=F BraDBF=F KetDBF=F FulRan=T
         wScrn=  0.000000 ICntrl=      2127 IOpCl=  0 I1Cent=           0 NGrid=           0
         NMat0=    1 NMatS0=      1 NMatT0=    0 NMatD0=    1 NMtDS0=    0 NMtDT0=    0
 Petite list used in FoFCou.
 Leave Link  703 at Wed Mar 25 15:37:08 2020, MaxMem=  2147483648 cpu:               3.1 elap:               0.2
 (Enter /n/sw/g16_nehalem/g16/l716.exe)
 Dipole        = 0.00000000D+00-2.22044605D-16-4.44089210D-16
 ***** Axes restored to original set *****
 -------------------------------------------------------------------
 Center     Atomic                   Forces (Hartrees/Bohr)
 Number     Number              X              Y              Z
 -------------------------------------------------------------------
      1        6           0.000000000    0.000000000    0.000000000
      2        1          -0.000055389    0.000156670    0.000000000
      3        1          -0.000055392   -0.000078334   -0.000135680
      4        1          -0.000055392   -0.000078334    0.000135680
      5        1           0.000166173   -0.000000002    0.000000000
 -------------------------------------------------------------------
 Cartesian Forces:  Max     0.000166173 RMS     0.000085812
 Leave Link  716 at Wed Mar 25 15:37:08 2020, MaxMem=  2147483648 cpu:               0.5 elap:               0.1
 (Enter /n/sw/g16_nehalem/g16/l103.exe)

 GradGradGradGradGradGradGradGradGradGradGradGradGradGradGradGradGradGrad
 Berny optimization.
 Using GEDIIS/GDIIS optimizer.
 FormGI is forming the generalized inverse of G from B-inverse, IUseBI=4.
 Internal  Forces:  Max     0.000166173 RMS     0.000088823
 Search for a local minimum.
 Step number   2 out of a maximum of   24
 All quantities printed in internal units (Hartrees-Bohrs-Radians)
 RMS Force = .88823D-04 SwitMx=.10000D-02 MixMth= 2
 Mixed Optimization -- En-DIIS/RFO-DIIS
 Update second derivatives using D2CorX and points    1    2
 DE= -1.43D-03 DEPred=-1.49D-03 R= 9.61D-01
 TightC=F SS=  1.41D+00  RLast= 8.89D-02 DXNew= 5.0454D-01 2.6658D-01
 Trust test= 9.61D-01 RLast= 8.89D-02 DXMaxT set to 3.00D-01
 The second derivative matrix:
                          R1        R2        R3        R4        A1
           R1           0.37398
           R2           0.00168   0.37398
           R3           0.00168   0.00168   0.37398
           R4           0.00168   0.00168   0.00168   0.37398
           A1           0.00000   0.00000   0.00000   0.00000   0.16000
           A2           0.00000   0.00000   0.00000   0.00000   0.00000
           A3           0.00000   0.00000   0.00000   0.00000   0.00000
           A4           0.00000   0.00000   0.00000   0.00000   0.00000
           A5           0.00000   0.00000   0.00000   0.00000   0.00000
           A6           0.00000   0.00000   0.00000   0.00000   0.00000
           D1           0.00000   0.00000   0.00000   0.00000   0.00000
           D2           0.00000   0.00000   0.00000   0.00000   0.00000
           D3           0.00000   0.00000   0.00000   0.00000   0.00000
           D4           0.00000   0.00000   0.00000   0.00000   0.00000
                          A2        A3        A4        A5        A6
           A2           0.16000
           A3           0.00000   0.16000
           A4           0.00000   0.00000   0.16000
           A5           0.00000   0.00000   0.00000   0.16000
           A6           0.00000   0.00000   0.00000   0.00000   0.16000
           D1           0.00000   0.00000   0.00000   0.00000   0.00000
           D2           0.00000   0.00000   0.00000   0.00000   0.00000
           D3           0.00000   0.00000   0.00000   0.00000   0.00000
           D4           0.00000   0.00000   0.00000   0.00000   0.00000
                          D1        D2        D3        D4
           D1           0.00499
           D2           0.00000   0.00499
           D3           0.00000   0.00000   0.00499
           D4           0.00000   0.00000   0.00000   0.00499
 ITU=  1  0
 Use linear search instead of GDIIS.
     Eigenvalues ---    0.05269   0.05891   0.08766   0.16000   0.16000
     Eigenvalues ---    0.37230   0.37230   0.37230   0.37900
 RFO step:  Lambda= 0.00000000D+00 EMin= 5.26881014D-02
 Quartic linear search produced a step of -0.01053.
 Iteration  1 RMS(Cart)=  0.00025010 RMS(Int)=  0.00000000
 Iteration  2 RMS(Cart)=  0.00000000 RMS(Int)=  0.00000000
 ITry= 1 IFail=0 DXMaxC= 4.68D-04 DCOld= 1.00D+10 DXMaxT= 3.00D-01 DXLimC= 3.00D+00 Rises=F
 ClnCor:  largest displacement from symmetrization is 2.41D-14 for atom     3.
 Variable       Old X    -DE/DX   Delta X   Delta X   Delta X     New X
                                 (Linear)    (Quad)   (Total)
    R1        2.06644  -0.00017  -0.00047   0.00000  -0.00047   2.06597
    R2        2.06644  -0.00017  -0.00047   0.00000  -0.00047   2.06597
    R3        2.06644  -0.00017  -0.00047   0.00000  -0.00047   2.06597
    R4        2.06644  -0.00017  -0.00047   0.00000  -0.00047   2.06597
    A1        1.91063   0.00000   0.00000   0.00000   0.00000   1.91063
    A2        1.91063   0.00000   0.00000   0.00000   0.00000   1.91063
    A3        1.91063   0.00000   0.00000   0.00000   0.00000   1.91063
    A4        1.91063   0.00000   0.00000   0.00000   0.00000   1.91063
    A5        1.91063   0.00000   0.00000   0.00000   0.00000   1.91063
    A6        1.91063   0.00000   0.00000   0.00000   0.00000   1.91063
    D1       -2.09440   0.00000   0.00000   0.00000   0.00000  -2.09440
    D2        2.09440   0.00000   0.00000   0.00000   0.00000   2.09440
    D3       -2.09440   0.00000   0.00000   0.00000   0.00000  -2.09440
    D4        2.09440   0.00000   0.00000   0.00000   0.00000   2.09440
         Item               Value     Threshold  Converged?
 Maximum Force            0.000166     0.000450     YES
 RMS     Force            0.000089     0.000300     YES
 Maximum Displacement     0.000468     0.001800     YES
 RMS     Displacement     0.000250     0.001200     YES
 Predicted change in Energy=-1.450590D-07
 Optimization completed.
    -- Stationary point found.
                           ----------------------------
                           !   Optimized Parameters   !
                           ! (Angstroms and Degrees)  !
 --------------------------                            --------------------------
 ! Name  Definition              Value          Derivative Info.                !
 --------------------------------------------------------------------------------
 ! R1    R(1,2)                  1.0935         -DE/DX =   -0.0002              !
 ! R2    R(1,3)                  1.0935         -DE/DX =   -0.0002              !
 ! R3    R(1,4)                  1.0935         -DE/DX =   -0.0002              !
 ! R4    R(1,5)                  1.0935         -DE/DX =   -0.0002              !
 ! A1    A(2,1,3)              109.4712         -DE/DX =    0.0                 !
 ! A2    A(2,1,4)              109.4712         -DE/DX =    0.0                 !
 ! A3    A(2,1,5)              109.4712         -DE/DX =    0.0                 !
 ! A4    A(3,1,4)              109.4712         -DE/DX =    0.0                 !
 ! A5    A(3,1,5)              109.4712         -DE/DX =    0.0                 !
 ! A6    A(4,1,5)              109.4712         -DE/DX =    0.0                 !
 ! D1    D(2,1,4,3)           -120.0            -DE/DX =    0.0                 !
 ! D2    D(2,1,5,3)            120.0            -DE/DX =    0.0                 !
 ! D3    D(2,1,5,4)           -120.0            -DE/DX =    0.0                 !
 ! D4    D(3,1,5,4)            120.0            -DE/DX =    0.0                 !
 --------------------------------------------------------------------------------
 Lowest energy point so far.  Saving SCF results.
 Largest change from initial coordinates is atom    2       0.024 Angstoms.
 GradGradGradGradGradGradGradGradGradGradGradGradGradGradGradGradGradGrad

 Leave Link  103 at Wed Mar 25 15:37:08 2020, MaxMem=  2147483648 cpu:               0.4 elap:               0.0
 (Enter /n/sw/g16_nehalem/g16/l202.exe)
                          Input orientation:                          
 ---------------------------------------------------------------------
 Center     Atomic      Atomic             Coordinates (Angstroms)
 Number     Number       Type             X           Y           Z
 ---------------------------------------------------------------------
      1          6           0       -3.656598    2.090620    0.000000
      2          1           0       -3.292106    1.059643   -0.000001
      3          1           0       -3.292087    2.606101    0.892849
      4          1           0       -3.292088    2.606102   -0.892849
      5          1           0       -4.750109    2.090633    0.000001
 ---------------------------------------------------------------------
                    Distance matrix (angstroms):
                    1          2          3          4          5
     1  C    0.000000
     2  H    1.093512   0.000000
     3  H    1.093512   1.785697   0.000000
     4  H    1.093512   1.785697   1.785697   0.000000
     5  H    1.093512   1.785697   1.785697   1.785697   0.000000
 Stoichiometry    CH4
 Framework group  TD[O(C),4C3(H)]
 Deg. of freedom     1
 Full point group                 TD      NOp  24
 RotChk:  IX=0 Diff= 7.27D-15
 Largest Abelian subgroup         D2      NOp   4
 Largest concise Abelian subgroup D2      NOp   4
                         Standard orientation:                         
 ---------------------------------------------------------------------
 Center     Atomic      Atomic             Coordinates (Angstroms)
 Number     Number       Type             X           Y           Z
 ---------------------------------------------------------------------
      1          6           0        0.000000    0.000000    0.000000
      2          1           0        0.631339    0.631339    0.631339
      3          1           0       -0.631339   -0.631339    0.631339
      4          1           0       -0.631339    0.631339   -0.631339
      5          1           0        0.631339   -0.631339   -0.631339
 ---------------------------------------------------------------------
 Rotational constants (GHZ):         157.2593506         157.2593506         157.2593506
 Leave Link  202 at Wed Mar 25 15:37:08 2020, MaxMem=  2147483648 cpu:               0.4 elap:               0.1
 (Enter /n/sw/g16_nehalem/g16/l601.exe)
 Copying SCF densities to generalized density rwf, IOpCl= 0 IROHF=0.

 **********************************************************************

            Population analysis using the SCF density.

 **********************************************************************

 Orbital symmetries:
       Occupied  (A1) (A1) (T2) (T2) (T2)
       Virtual   (A1) (T2) (T2) (T2) (T2) (T2) (T2) (T2) (T2) (T2)
                 (A1) (A1) (E) (E) (T2) (T2) (T2) (A1)
 The electronic state is 1-A1.
 Alpha  occ. eigenvalues --  -10.16705  -0.69022  -0.38902  -0.38902  -0.38902
 Alpha virt. eigenvalues --    0.11786   0.17646   0.17646   0.17646   0.53333
 Alpha virt. eigenvalues --    0.53333   0.53333   0.89754   0.89754   0.89754
 Alpha virt. eigenvalues --    0.94711   1.09978   1.65657   1.65657   2.24329
 Alpha virt. eigenvalues --    2.24329   2.24329   4.17899
          Condensed to atoms (all electrons):
               1          2          3          4          5
     1  C    5.093154   0.383733   0.383733   0.383733   0.383733
     2  H    0.383733   0.539602  -0.026785  -0.026785  -0.026785
     3  H    0.383733  -0.026785   0.539602  -0.026785  -0.026785
     4  H    0.383733  -0.026785  -0.026785   0.539602  -0.026785
     5  H    0.383733  -0.026785  -0.026785  -0.026785   0.539602
 Mulliken charges:
               1
     1  C   -0.628084
     2  H    0.157021
     3  H    0.157021
     4  H    0.157021
     5  H    0.157021
 Sum of Mulliken charges =   0.00000
 Mulliken charges with hydrogens summed into heavy atoms:
               1
     1  C    0.000000
 Electronic spatial extent (au):  <R**2>=             35.4863
 Charge=              0.0000 electrons
 Dipole moment (field-independent basis, Debye):
    X=              0.0000    Y=              0.0000    Z=              0.0000  Tot=              0.0000
 Quadrupole moment (field-independent basis, Debye-Ang):
   XX=             -8.2521   YY=             -8.2521   ZZ=             -8.2521
   XY=              0.0000   XZ=              0.0000   YZ=              0.0000
 Traceless Quadrupole moment (field-independent basis, Debye-Ang):
   XX=              0.0000   YY=              0.0000   ZZ=              0.0000
   XY=              0.0000   XZ=              0.0000   YZ=              0.0000
 Octapole moment (field-independent basis, Debye-Ang**2):
  XXX=              0.0000  YYY=              0.0000  ZZZ=              0.0000  XYY=              0.0000
  XXY=              0.0000  XXZ=              0.0000  XZZ=              0.0000  YZZ=              0.0000
  YYZ=              0.0000  XYZ=              0.6717
 Hexadecapole moment (field-independent basis, Debye-Ang**3):
 XXXX=            -15.7572 YYYY=            -15.7572 ZZZZ=            -15.7572 XXXY=              0.0000
 XXXZ=              0.0000 YYYX=              0.0000 YYYZ=              0.0000 ZZZX=              0.0000
 ZZZY=              0.0000 XXYY=             -4.8075 XXZZ=             -4.8075 YYZZ=             -4.8075
 XXYZ=              0.0000 YYXZ=              0.0000 ZZXY=              0.0000
 N-N= 1.339224322723D+01 E-N=-1.198231546743D+02  KE= 4.006982211071D+01
 Symmetry A    KE= 3.429141488352D+01
 Symmetry B1   KE= 1.926135742394D+00
 Symmetry B2   KE= 1.926135742394D+00
 Symmetry B3   KE= 1.926135742394D+00
 No NMR shielding tensors so no spin-rotation constants.
 Leave Link  601 at Wed Mar 25 15:37:08 2020, MaxMem=  2147483648 cpu:               2.0 elap:               0.1
 (Enter /n/sw/g16_nehalem/g16/l9999.exe)
 1\1\GINC-HOLY2C14401\FOpt\RB3LYP\6-31G(d)\C1H4\EKWAN\25-Mar-2020\0\\#p
  b3lyp 6-31g* opt freq=noraman\\Title Card Required\\0,1\C,-3.65659769
 ,2.090619956,0.\H,-3.2921062968,1.0596428458,-0.0000008826\H,-3.292086
 8299,2.6061013737,0.8928485417\H,-3.2920882711,2.6061023928,-0.8928485
 417\H,-4.7501093622,2.0906332117,0.0000008826\\Version=ES64L-G16RevA.0
 3\State=1-A1\HF=-40.5183832\RMSD=1.258e-09\RMSF=8.581e-05\Dipole=0.,0.
 ,0.\Quadrupole=0.,0.,0.,0.,0.,0.\PG=TD [O(C1),4C3(H1)]\\@


 THESE ARE THE TIMES THAT TRY MENS SOULS.
 THE SUMMER SOLDIER AND THE SUNSHINE PATRIOT WILL IN THIS CRISIS,
 SHRINK FROM THE SERVICE OF HIS COUNTRY.  BUT HE THAT STANDS NOW,
 DESERVES THE LOVE AND THANKS OF MAN AND WOMAN.
 TYRANNY, LIKE HELL, IS NOT EASILY CONQUERED,
 YET WE HAVE THIS CONSOLATION WITH US,
 THAT THE HARDER THE CONFLICT, THE MORE GLORIOUS THE TRIUMPH.
 WHAT WE OBTAIN TOO CHEAP, WE ESTEEM TOO LIGHTLY, 
 'TIS DEARNESS ONLY THAT GIVES EVERYTHING ITS VALUE.

                                              -- TOM PAINE
 Leave Link 9999 at Wed Mar 25 15:37:09 2020, MaxMem=  2147483648 cpu:               1.0 elap:               0.1
 Job cpu time:       0 days  0 hours  0 minutes 46.8 seconds.
 Elapsed time:       0 days  0 hours  0 minutes  3.4 seconds.
 File lengths (MBytes):  RWF=      6 Int=      0 D2E=      0 Chk=      2 Scr=      1
 Normal termination of Gaussian 16 at Wed Mar 25 15:37:09 2020.
 (Enter /n/sw/g16_nehalem/g16/l1.exe)
 Link1:  Proceeding to internal job step number  2.
 --------------------------------------------------------------------
 #P Geom=AllCheck Guess=TCheck SCRF=Check GenChk RB3LYP/6-31G(d) Freq
 --------------------------------------------------------------------
 1/10=4,29=7,30=1,38=1,40=1/1,3;
 2/12=2,40=1/2;
 3/5=1,6=6,7=1,11=2,14=-4,25=1,30=1,70=2,71=2,74=-5,116=1,140=1/1,2,3;
 4/5=101/1;
 5/5=2,38=6,98=1/2;
 8/6=4,10=90,11=11/1;
 11/6=1,8=1,9=11,15=111,16=1/1,2,10;
 10/6=1/2;
 6/7=2,8=2,9=2,10=2,28=1/1;
 7/8=1,10=1,25=1/1,2,3,16;
 1/10=4,30=1/3;
 99//99;
 Leave Link    1 at Wed Mar 25 15:37:09 2020, MaxMem=  2147483648 cpu:               0.7 elap:               0.0
 (Enter /n/sw/g16_nehalem/g16/l101.exe)
 Structure from the checkpoint file:  "checkpoint.chk"
 -------------------
 Title Card Required
 -------------------
 Charge =  0 Multiplicity = 1
 Redundant internal coordinates found in file.  (old form).
 C,0,-3.65659769,2.090619956,0.
 H,0,-3.2921062968,1.0596428458,-0.0000008826
 H,0,-3.2920868299,2.6061013737,0.8928485417
 H,0,-3.2920882711,2.6061023928,-0.8928485417
 H,0,-4.7501093622,2.0906332117,0.0000008826
 Recover connectivity data from disk.
 ITRead=  0  0  0  0  0
 MicOpt= -1 -1 -1 -1 -1
 NAtoms=      5 NQM=        5 NQMF=       0 NMMI=      0 NMMIF=      0
                NMic=       0 NMicF=      0.
                    Isotopes and Nuclear Properties:
 (Nuclear quadrupole moments (NQMom) in fm**2, nuclear magnetic moments (NMagM)
  in nuclear magnetons)

  Atom         1           2           3           4           5
 IAtWgt=          12           1           1           1           1
 AtmWgt=  12.0000000   1.0078250   1.0078250   1.0078250   1.0078250
 NucSpn=           0           1           1           1           1
 AtZEff=   3.6000000   1.0000000   1.0000000   1.0000000   1.0000000
 NQMom=    0.0000000   0.0000000   0.0000000   0.0000000   0.0000000
 NMagM=    0.0000000   2.7928460   2.7928460   2.7928460   2.7928460
 AtZNuc=   6.0000000   1.0000000   1.0000000   1.0000000   1.0000000
 Leave Link  101 at Wed Mar 25 15:37:09 2020, MaxMem=  2147483648 cpu:               5.5 elap:               0.3
 (Enter /n/sw/g16_nehalem/g16/l103.exe)

 GradGradGradGradGradGradGradGradGradGradGradGradGradGradGradGradGradGrad
 Berny optimization.
 Initialization pass.
                           ----------------------------
                           !    Initial Parameters    !
                           ! (Angstroms and Degrees)  !
 --------------------------                            --------------------------
 ! Name  Definition              Value          Derivative Info.                !
 --------------------------------------------------------------------------------
 ! R1    R(1,2)                  1.0935         calculate D2E/DX2 analytically  !
 ! R2    R(1,3)                  1.0935         calculate D2E/DX2 analytically  !
 ! R3    R(1,4)                  1.0935         calculate D2E/DX2 analytically  !
 ! R4    R(1,5)                  1.0935         calculate D2E/DX2 analytically  !
 ! A1    A(2,1,3)              109.4712         calculate D2E/DX2 analytically  !
 ! A2    A(2,1,4)              109.4712         calculate D2E/DX2 analytically  !
 ! A3    A(2,1,5)              109.4712         calculate D2E/DX2 analytically  !
 ! A4    A(3,1,4)              109.4712         calculate D2E/DX2 analytically  !
 ! A5    A(3,1,5)              109.4712         calculate D2E/DX2 analytically  !
 ! A6    A(4,1,5)              109.4712         calculate D2E/DX2 analytically  !
 ! D1    D(2,1,4,3)           -120.0            calculate D2E/DX2 analytically  !
 ! D2    D(2,1,5,3)            120.0            calculate D2E/DX2 analytically  !
 ! D3    D(2,1,5,4)           -120.0            calculate D2E/DX2 analytically  !
 ! D4    D(3,1,5,4)            120.0            calculate D2E/DX2 analytically  !
 --------------------------------------------------------------------------------
 Trust Radius=3.00D-01 FncErr=1.00D-07 GrdErr=1.00D-07 EigMax=2.50D+02 EigMin=1.00D-04
 Number of steps in this run=      2 maximum allowed number of steps=      2.
 GradGradGradGradGradGradGradGradGradGradGradGradGradGradGradGradGradGrad

 Leave Link  103 at Wed Mar 25 15:37:09 2020, MaxMem=  2147483648 cpu:               0.2 elap:               0.0
 (Enter /n/sw/g16_nehalem/g16/l202.exe)
                          Input orientation:                          
 ---------------------------------------------------------------------
 Center     Atomic      Atomic             Coordinates (Angstroms)
 Number     Number       Type             X           Y           Z
 ---------------------------------------------------------------------
      1          6           0       -3.656598    2.090620    0.000000
      2          1           0       -3.292106    1.059643   -0.000001
      3          1           0       -3.292087    2.606101    0.892849
      4          1           0       -3.292088    2.606102   -0.892849
      5          1           0       -4.750109    2.090633    0.000001
 ---------------------------------------------------------------------
                    Distance matrix (angstroms):
                    1          2          3          4          5
     1  C    0.000000
     2  H    1.093512   0.000000
     3  H    1.093512   1.785697   0.000000
     4  H    1.093512   1.785697   1.785697   0.000000
     5  H    1.093512   1.785697   1.785697   1.785697   0.000000
 Stoichiometry    CH4
 Framework group  TD[O(C),4C3(H)]
 Deg. of freedom     1
 Full point group                 TD      NOp  24
 RotChk:  IX=0 Diff= 1.09D-15
 Largest Abelian subgroup         D2      NOp   4
 Largest concise Abelian subgroup D2      NOp   4
                         Standard orientation:                         
 ---------------------------------------------------------------------
 Center     Atomic      Atomic             Coordinates (Angstroms)
 Number     Number       Type             X           Y           Z
 ---------------------------------------------------------------------
      1          6           0        0.000000    0.000000    0.000000
      2          1           0        0.631339    0.631339    0.631339
      3          1           0       -0.631339   -0.631339    0.631339
      4          1           0       -0.631339    0.631339   -0.631339
      5          1           0        0.631339   -0.631339   -0.631339
 ---------------------------------------------------------------------
 Rotational constants (GHZ):         157.2593506         157.2593506         157.2593506
 Leave Link  202 at Wed Mar 25 15:37:09 2020, MaxMem=  2147483648 cpu:               0.4 elap:               0.0
 (Enter /n/sw/g16_nehalem/g16/l301.exe)
 Standard basis: 6-31G(d) (6D, 7F)
 Ernie: Thresh=  0.10000D-02 Tol=  0.10000D-05 Strict=F.
 There are     8 symmetry adapted cartesian basis functions of A   symmetry.
 There are     5 symmetry adapted cartesian basis functions of B1  symmetry.
 There are     5 symmetry adapted cartesian basis functions of B2  symmetry.
 There are     5 symmetry adapted cartesian basis functions of B3  symmetry.
 There are     8 symmetry adapted basis functions of A   symmetry.
 There are     5 symmetry adapted basis functions of B1  symmetry.
 There are     5 symmetry adapted basis functions of B2  symmetry.
 There are     5 symmetry adapted basis functions of B3  symmetry.
    23 basis functions,    44 primitive gaussians,    23 cartesian basis functions
     5 alpha electrons        5 beta electrons
       nuclear repulsion energy        13.3922432272 Hartrees.
 IExCor=  402 DFT=T Ex+Corr=B3LYP ExCW=0 ScaHFX=  0.200000
 ScaDFX=  0.800000  0.720000  1.000000  0.810000 ScalE2=  1.000000  1.000000
 IRadAn=      5 IRanWt=     -1 IRanGd=            0 ICorTp=0 IEmpDi=  4
 NAtoms=    5 NActive=    5 NUniq=    2 SFac= 4.00D+00 NAtFMM=   60 NAOKFM=F Big=F
 Integral buffers will be    131072 words long.
 Raffenetti 2 integral format.
 Two-electron integral symmetry is turned on.
 Leave Link  301 at Wed Mar 25 15:37:09 2020, MaxMem=  2147483648 cpu:               1.2 elap:               0.1
 (Enter /n/sw/g16_nehalem/g16/l302.exe)
 NPDir=0 NMtPBC=     1 NCelOv=     1 NCel=       1 NClECP=     1 NCelD=      1
         NCelK=      1 NCelE2=     1 NClLst=     1 CellRange=     0.0.
 One-electron integrals computed using PRISM.
 One-electron integral symmetry used in STVInt
 NBasis=    23 RedAO= T EigKep=  1.80D-02  NBF=     8     5     5     5
 NBsUse=    23 1.00D-06 EigRej= -1.00D+00 NBFU=     8     5     5     5
 Precomputing XC quadrature grid using
 IXCGrd= 4 IRadAn=           5 IRanWt=          -1 IRanGd=           0 AccXCQ= 0.00D+00.
 Generated NRdTot=       0 NPtTot=           0 NUsed=           0 NTot=          32
 NSgBfM=    23    23    23    23    23 MxSgAt=     5 MxSgA2=     5.
 Leave Link  302 at Wed Mar 25 15:37:10 2020, MaxMem=  2147483648 cpu:               2.2 elap:               0.2
 (Enter /n/sw/g16_nehalem/g16/l303.exe)
 DipDrv:  MaxL=1.
 Leave Link  303 at Wed Mar 25 15:37:10 2020, MaxMem=  2147483648 cpu:               0.6 elap:               0.1
 (Enter /n/sw/g16_nehalem/g16/l401.exe)
 Initial guess from the checkpoint file:  "checkpoint.chk"
 B after Tr=     0.000000    0.000000    0.000000
         Rot=    1.000000    0.000000    0.000000    0.000000 Ang=   0.00 deg.
 Guess basis will be translated and rotated to current coordinates.
 JPrj=2 DoOrth=T DoCkMO=T.
 Initial guess orbital symmetries:
       Occupied  (A1) (A1) (T2) (T2) (T2)
       Virtual   (A1) (T2) (T2) (T2) (T2) (T2) (T2) (T2) (T2) (T2)
                 (A1) (A1) (E) (E) (T2) (T2) (T2) (A1)
 The electronic state of the initial guess is 1-A1.
 Leave Link  401 at Wed Mar 25 15:37:10 2020, MaxMem=  2147483648 cpu:               1.5 elap:               0.1
 (Enter /n/sw/g16_nehalem/g16/l502.exe)
 Keep R1 ints in memory in symmetry-blocked form, NReq=15555153.
 FoFCou: FMM=F IPFlag=           0 FMFlag=           0 FMFlg1=           0
         NFxFlg=           0 DoJE=F BraDBF=F KetDBF=F FulRan=T
         wScrn=  0.000000 ICntrl=       600 IOpCl=  0 I1Cent=           0 NGrid=           0
         NMat0=    1 NMatS0=    276 NMatT0=    0 NMatD0=    1 NMtDS0=    0 NMtDT0=    0
 Petite list used in FoFCou.
 Closed shell SCF:
 Using DIIS extrapolation, IDIIS=  1040.
 NGot=  2147483648 LenX=  2147470329 LenY=  2147469359
 Requested convergence on RMS density matrix=1.00D-08 within 128 cycles.
 Requested convergence on MAX density matrix=1.00D-06.
 Requested convergence on             energy=1.00D-06.
 No special actions if energy rises.

 Cycle   1  Pass 1  IDiag  1:
 E= -40.5183831834979    
 DIIS: error= 6.24D-10 at cycle   1 NSaved=   1.
 NSaved= 1 IEnMin= 1 EnMin= -40.5183831834979     IErMin= 1 ErrMin= 6.24D-10
 ErrMax= 6.24D-10  0.00D+00 EMaxC= 1.00D-01 BMatC= 5.53D-18 BMatP= 5.53D-18
 IDIUse=1 WtCom= 1.00D+00 WtEn= 0.00D+00
 Coeff-Com:  0.100D+01
 Coeff:      0.100D+01
 Gap=     0.507 Goal=   None    Shift=    0.000
 RMSDP=1.91D-10 MaxDP=1.39D-09              OVMax= 1.72D-09

 SCF Done:  E(RB3LYP) =  -40.5183831835     A.U. after    1 cycles
            NFock=  1  Conv=0.19D-09     -V/T= 2.0112
 KE= 4.006982209148D+01 PE=-1.198231546551D+02 EE= 2.584270615284D+01
 Leave Link  502 at Wed Mar 25 15:37:11 2020, MaxMem=  2147483648 cpu:               2.7 elap:               0.2
 (Enter /n/sw/g16_nehalem/g16/l801.exe)
 DoSCS=F DFT=T ScalE2(SS,OS)=  1.000000  1.000000
 Range of M.O.s used for correlation:     1    23
 NBasis=    23 NAE=     5 NBE=     5 NFC=     0 NFV=     0
 NROrb=     23 NOA=     5 NOB=     5 NVA=    18 NVB=    18
 Leave Link  801 at Wed Mar 25 15:37:11 2020, MaxMem=  2147483648 cpu:               0.6 elap:               0.1
 (Enter /n/sw/g16_nehalem/g16/l1101.exe)
 Using compressed storage, NAtomX=     5.
 Will process      6 centers per pass.
 Leave Link 1101 at Wed Mar 25 15:37:11 2020, MaxMem=  2147483648 cpu:               2.1 elap:               0.1
 (Enter /n/sw/g16_nehalem/g16/l1102.exe)
 Symmetrizing basis deriv contribution to polar:
 IMax=3 JMax=2 DiffMx= 0.00D+00
 Leave Link 1102 at Wed Mar 25 15:37:11 2020, MaxMem=  2147483648 cpu:               0.6 elap:               0.1
 (Enter /n/sw/g16_nehalem/g16/l1110.exe)
 Forming Gx(P) for the SCF density, NAtomX=     5.
 Integral derivatives from FoFJK, PRISM(SPDF).
 Do as many integral derivatives as possible in FoFJK.
 G2DrvN: MDV=    2147483152.
 G2DrvN: will do     6 centers at a time, making    1 passes.
 Calling FoFCou, ICntrl=  3107 FMM=F I1Cent=   0 AccDes= 0.00D+00.
 FoFJK:  IHMeth= 1 ICntrl=    3107 DoSepK=F KAlg= 0 I1Cent=           0 FoldK=F
 IRaf=         0 NMat=       1 IRICut=       1 DoRegI=T DoRafI=F ISym2E= 1 IDoP0=0 IntGTp=1.
 FoFCou: FMM=F IPFlag=           0 FMFlag=      100000 FMFlg1=           0
         NFxFlg=           0 DoJE=F BraDBF=F KetDBF=F FulRan=T
         wScrn=  0.000000 ICntrl=      3107 IOpCl=  0 I1Cent=           0 NGrid=           0
         NMat0=    1 NMatS0=      1 NMatT0=    0 NMatD0=    1 NMtDS0=    0 NMtDT0=    0
 Petite list used in FoFCou.
 End of G2Drv F.D. properties file   721 does not exist.
 End of G2Drv F.D. properties file   722 does not exist.
 End of G2Drv F.D. properties file   788 does not exist.
 Leave Link 1110 at Wed Mar 25 15:37:12 2020, MaxMem=  2147483648 cpu:               3.9 elap:               0.2
 (Enter /n/sw/g16_nehalem/g16/l1002.exe)
 Minotr:  Closed shell wavefunction.
          IDoAtm=11111
          Direct CPHF calculation.
          Differentiating once with respect to electric field.
                with respect to dipole field.
          Differentiating once with respect to nuclear coordinates.
          Using symmetry in CPHF.
          Requested convergence is 1.0D-08 RMS, and 1.0D-07 maximum.
          Secondary convergence is 1.0D-12 RMS, and 1.0D-12 maximum.
          NewPWx=T KeepS1=F KeepF1=F KeepIn=T MapXYZ=F SortEE=F KeepMc=T.
         1449 words used for storage of precomputed grid.
 Keep R1 ints in memory in symmetry-blocked form, NReq=15496602.
 FoFCou: FMM=F IPFlag=           0 FMFlag=           0 FMFlg1=           0
         NFxFlg=           0 DoJE=F BraDBF=F KetDBF=F FulRan=T
         wScrn=  0.000000 ICntrl=       600 IOpCl=  0 I1Cent=           0 NGrid=           0
         NMat0=    1 NMatS0=    276 NMatT0=    0 NMatD0=    1 NMtDS0=    0 NMtDT0=    0
 Petite list used in FoFCou.
          MDV=    2147483648 using IRadAn=       1.
          Solving linear equations simultaneously, MaxMat=       0.
          There are     9 degrees of freedom in the 1st order CPHF.  IDoFFX=4 NUNeed=     9.
      9 vectors produced by pass  0 Test12= 1.00D-15 1.11D-08 XBig12= 6.11D+00 1.43D+00.
 AX will form     9 AO Fock derivatives at one time.
      9 vectors produced by pass  1 Test12= 1.00D-15 1.11D-08 XBig12= 8.43D-02 1.25D-01.
      9 vectors produced by pass  2 Test12= 1.00D-15 1.11D-08 XBig12= 2.14D-04 5.63D-03.
      9 vectors produced by pass  3 Test12= 1.00D-15 1.11D-08 XBig12= 2.94D-07 1.50D-04.
      9 vectors produced by pass  4 Test12= 1.00D-15 1.11D-08 XBig12= 1.07D-10 3.53D-06.
      4 vectors produced by pass  5 Test12= 1.00D-15 1.11D-08 XBig12= 4.02D-14 8.39D-08.
 InvSVY:  IOpt=1 It=  1 EMax= 1.78D-15
 Solved reduced A of dimension    49 with     9 vectors.
 FullF1:  Do perturbations      1 to       9.
 Isotropic polarizability for W=    0.000000       12.36 Bohr**3.
 End of Minotr F.D. properties file   721 does not exist.
 End of Minotr F.D. properties file   722 does not exist.
 End of Minotr F.D. properties file   788 does not exist.
 Leave Link 1002 at Wed Mar 25 15:37:12 2020, MaxMem=  2147483648 cpu:               3.7 elap:               0.2
 (Enter /n/sw/g16_nehalem/g16/l601.exe)
 Copying SCF densities to generalized density rwf, IOpCl= 0 IROHF=0.

 **********************************************************************

            Population analysis using the SCF density.

 **********************************************************************

 Orbital symmetries:
       Occupied  (A1) (A1) (T2) (T2) (T2)
       Virtual   (A1) (T2) (T2) (T2) (T2) (T2) (T2) (T2) (T2) (T2)
                 (A1) (A1) (E) (E) (T2) (T2) (T2) (A1)
 The electronic state is 1-A1.
 Alpha  occ. eigenvalues --  -10.16705  -0.69022  -0.38902  -0.38902  -0.38902
 Alpha virt. eigenvalues --    0.11786   0.17646   0.17646   0.17646   0.53333
 Alpha virt. eigenvalues --    0.53333   0.53333   0.89754   0.89754   0.89754
 Alpha virt. eigenvalues --    0.94711   1.09978   1.65657   1.65657   2.24329
 Alpha virt. eigenvalues --    2.24329   2.24329   4.17899
          Condensed to atoms (all electrons):
               1          2          3          4          5
     1  C    5.093154   0.383733   0.383733   0.383733   0.383733
     2  H    0.383733   0.539602  -0.026785  -0.026785  -0.026785
     3  H    0.383733  -0.026785   0.539602  -0.026785  -0.026785
     4  H    0.383733  -0.026785  -0.026785   0.539602  -0.026785
     5  H    0.383733  -0.026785  -0.026785  -0.026785   0.539602
 Mulliken charges:
               1
     1  C   -0.628084
     2  H    0.157021
     3  H    0.157021
     4  H    0.157021
     5  H    0.157021
 Sum of Mulliken charges =   0.00000
 Mulliken charges with hydrogens summed into heavy atoms:
               1
     1  C    0.000000
 APT charges:
               1
     1  C    0.001028
     2  H   -0.000257
     3  H   -0.000257
     4  H   -0.000257
     5  H   -0.000257
 Sum of APT charges =   0.00000
 APT charges with hydrogens summed into heavy atoms:
               1
     1  C    0.000000
 Electronic spatial extent (au):  <R**2>=             35.4863
 Charge=              0.0000 electrons
 Dipole moment (field-independent basis, Debye):
    X=              0.0000    Y=              0.0000    Z=              0.0000  Tot=              0.0000
 Quadrupole moment (field-independent basis, Debye-Ang):
   XX=             -8.2521   YY=             -8.2521   ZZ=             -8.2521
   XY=              0.0000   XZ=              0.0000   YZ=              0.0000
 Traceless Quadrupole moment (field-independent basis, Debye-Ang):
   XX=              0.0000   YY=              0.0000   ZZ=              0.0000
   XY=              0.0000   XZ=              0.0000   YZ=              0.0000
 Octapole moment (field-independent basis, Debye-Ang**2):
  XXX=              0.0000  YYY=              0.0000  ZZZ=              0.0000  XYY=              0.0000
  XXY=              0.0000  XXZ=              0.0000  XZZ=              0.0000  YZZ=              0.0000
  YYZ=              0.0000  XYZ=              0.6717
 Hexadecapole moment (field-independent basis, Debye-Ang**3):
 XXXX=            -15.7572 YYYY=            -15.7572 ZZZZ=            -15.7572 XXXY=              0.0000
 XXXZ=              0.0000 YYYX=              0.0000 YYYZ=              0.0000 ZZZX=              0.0000
 ZZZY=              0.0000 XXYY=             -4.8075 XXZZ=             -4.8075 YYZZ=             -4.8075
 XXYZ=              0.0000 YYXZ=              0.0000 ZZXY=              0.0000
 N-N= 1.339224322723D+01 E-N=-1.198231546261D+02  KE= 4.006982209148D+01
 Symmetry A    KE= 3.429141488011D+01
 Symmetry B1   KE= 1.926135737124D+00
 Symmetry B2   KE= 1.926135737124D+00
 Symmetry B3   KE= 1.926135737124D+00
  Exact polarizability:  12.356   0.000  12.356   0.000   0.000  12.356
 Approx polarizability:  14.605   0.000  14.605   0.000   0.000  14.605
 No NMR shielding tensors so no spin-rotation constants.
 Leave Link  601 at Wed Mar 25 15:37:12 2020, MaxMem=  2147483648 cpu:               2.0 elap:               0.1
 (Enter /n/sw/g16_nehalem/g16/l701.exe)
 ... and contract with generalized density number  0.
 Compute integral second derivatives.
 Leave Link  701 at Wed Mar 25 15:37:12 2020, MaxMem=  2147483648 cpu:               2.4 elap:               0.2
 (Enter /n/sw/g16_nehalem/g16/l702.exe)
 L702 exits ... SP integral derivatives will be done elsewhere.
 Leave Link  702 at Wed Mar 25 15:37:12 2020, MaxMem=  2147483648 cpu:               0.5 elap:               0.0
 (Enter /n/sw/g16_nehalem/g16/l703.exe)
 Integral derivatives from FoFJK, PRISM(SPDF).
 Compute integral second derivatives, UseDBF=F ICtDFT=           0.
 Calling FoFJK, ICntrl=    100127 FMM=F ISym2X=1 I1Cent= 0 IOpClX= 0 NMat=1 NMatS=1 NMatT=0.
 FoFJK:  IHMeth= 1 ICntrl=  100127 DoSepK=F KAlg= 0 I1Cent=           0 FoldK=F
 IRaf=         0 NMat=       1 IRICut=       1 DoRegI=T DoRafI=F ISym2E= 1 IDoP0=0 IntGTp=1.
 FoFCou: FMM=F IPFlag=           0 FMFlag=      100000 FMFlg1=         800
         NFxFlg=           0 DoJE=F BraDBF=F KetDBF=F FulRan=T
         wScrn=  0.000000 ICntrl=    100127 IOpCl=  0 I1Cent=           0 NGrid=           0
         NMat0=    1 NMatS0=      1 NMatT0=    0 NMatD0=    1 NMtDS0=    0 NMtDT0=    0
 Petite list used in FoFCou.
 Leave Link  703 at Wed Mar 25 15:37:13 2020, MaxMem=  2147483648 cpu:               6.5 elap:               0.4
 (Enter /n/sw/g16_nehalem/g16/l716.exe)
 Dipole        = 7.66530936D-16 8.02309608D-16-2.43837069D-16
 Polarizability= 1.23562054D+01 9.28307098D-11 1.23562054D+01
                 9.18783525D-11 8.11996498D-11 1.23562054D+01
 Full mass-weighted force constant matrix:
 Low frequencies ---   -0.0002    0.0004    0.0004   46.3552   46.3552   46.3552
 Low frequencies --- 1373.5436 1373.5436 1373.5436
 Diagonal vibrational polarizability:
        0.2906389       0.2906389       0.2906389
 Harmonic frequencies (cm**-1), IR intensities (KM/Mole), Raman scattering
 activities (A**4/AMU), depolarization ratios for plane and unpolarized
 incident light, reduced masses (AMU), force constants (mDyne/A),
 and normal coordinates:
                      1                      2                      3
[...]
 J. Hasegawa, M. Ishida, T. Nakajima, Y. Honda, O. Kitao, H. Nakai, 
 T. Vreven, K. Throssell, J. A. Montgomery, Jr., J. E. Peralta, 
 F. Ogliaro, M. J. Bearpark, J. J. Heyd, E. N. Brothers, K. N. Kudin, 
 V. N. Staroverov, T. A. Keith, R. Kobayashi, J. Normand, 
 K. Raghavachari, A. P. Rendell, J. C. Burant, S. S. Iyengar, 
 J. Tomasi, M. Cossi, J. M. Millam, M. Klene, C. Adamo, R. Cammi, 
 J. W. Ochterski, R. L. Martin, K. Morokuma, O. Farkas, 
 J. B. Foresman, and D. J. Fox, Gaussian, Inc., Wallingford CT, 2016.
 
 ******************************************
 Gaussian 16:  ES64L-G16RevA.03 25-Dec-2016
                25-Mar-2020 
 ******************************************
 %chk=checkpoint.chk
 %nprocshared=18
 Will use up to   18 processors via shared memory.
 %mem=16GB
 --------------------------------------------
 #p b3lyp 6-31g* NMR geom=allcheck guess=read
 --------------------------------------------
 1/29=7,38=1,172=1/1;
 2/12=2,40=1/2;
 3/5=1,6=6,7=1,11=2,14=-4,25=1,30=1,74=-5,116=-2/1,2,3,8;
 4/5=1/1;
 5/5=2,38=6/2;
 8/6=1,10=90,11=11/1;
 10/13=100,45=16/2;
 6/7=2,8=2,9=2,10=2,28=1/1;
 99/9=1/99;
 Leave Link    1 at Wed Mar 25 15:37:13 2020, MaxMem=  2147483648 cpu:               0.9 elap:               0.1
 (Enter /n/sw/g16_nehalem/g16/l101.exe)
 Structure from the checkpoint file:  "checkpoint.chk"
 -------------------
 Title Card Required
 -------------------
 Charge =  0 Multiplicity = 1
 Redundant internal coordinates found in file.  (old form).
 C,0,-3.65659769,2.090619956,0.
 H,0,-3.2921062968,1.0596428458,-0.0000008826
 H,0,-3.2920868299,2.6061013737,0.8928485417
 H,0,-3.2920882711,2.6061023928,-0.8928485417
 H,0,-4.7501093622,2.0906332117,0.0000008826
 Recover connectivity data from disk.
 ITRead=  0  0  0  0  0
 MicOpt= -1 -1 -1 -1 -1
                           ----------------------------
                           !    Current Parameters    !
                           ! (Angstroms and Degrees)  !
 --------------------------                            --------------------------
 ! Name  Definition              Value                                          !
 --------------------------------------------------------------------------------
 ! R1    R(1,2)                  1.0935                                         !
 ! R2    R(1,3)                  1.0935                                         !
 ! R3    R(1,4)                  1.0935                                         !
 ! R4    R(1,5)                  1.0935                                         !
 ! A1    A(2,1,3)              109.4712                                         !
 ! A2    A(2,1,4)              109.4712                                         !
 ! A3    A(2,1,5)              109.4712                                         !
 ! A4    A(3,1,4)              109.4712                                         !
 ! A5    A(3,1,5)              109.4712                                         !
 ! A6    A(4,1,5)              109.4712                                         !
 ! D1    D(2,1,4,3)           -120.0                                            !
 ! D2    D(2,1,5,3)            120.0                                            !
 ! D3    D(2,1,5,4)           -120.0                                            !
 ! D4    D(3,1,5,4)            120.0                                            !
 --------------------------------------------------------------------------------
 NAtoms=      5 NQM=        5 NQMF=       0 NMMI=      0 NMMIF=      0
                NMic=       0 NMicF=      0.
                    Isotopes and Nuclear Properties:
 (Nuclear quadrupole moments (NQMom) in fm**2, nuclear magnetic moments (NMagM)
  in nuclear magnetons)

  Atom         1           2           3           4           5
 IAtWgt=          12           1           1           1           1
 AtmWgt=  12.0000000   1.0078250   1.0078250   1.0078250   1.0078250
 NucSpn=           0           1           1           1           1
 AtZEff=   3.6000000   1.0000000   1.0000000   1.0000000   1.0000000
 NQMom=    0.0000000   0.0000000   0.0000000   0.0000000   0.0000000
 NMagM=    0.0000000   2.7928460   2.7928460   2.7928460   2.7928460
 AtZNuc=   6.0000000   1.0000000   1.0000000   1.0000000   1.0000000
 Leave Link  101 at Wed Mar 25 15:37:14 2020, MaxMem=  2147483648 cpu:               5.7 elap:               0.3
 (Enter /n/sw/g16_nehalem/g16/l202.exe)
                          Input orientation:                          
 ---------------------------------------------------------------------
 Center     Atomic      Atomic             Coordinates (Angstroms)
 Number     Number       Type             X           Y           Z
 ---------------------------------------------------------------------
      1          6           0       -3.656598    2.090620    0.000000
      2          1           0       -3.292106    1.059643   -0.000001
      3          1           0       -3.292087    2.606101    0.892849
      4          1           0       -3.292088    2.606102   -0.892849
      5          1           0       -4.750109    2.090633    0.000001
 ---------------------------------------------------------------------
                    Distance matrix (angstroms):
                    1          2          3          4          5
     1  C    0.000000
     2  H    1.093512   0.000000
     3  H    1.093512   1.785697   0.000000
     4  H    1.093512   1.785697   1.785697   0.000000
     5  H    1.093512   1.785697   1.785697   1.785697   0.000000
 Stoichiometry    CH4
 Framework group  TD[O(C),4C3(H)]
 Deg. of freedom     1
 Full point group                 TD      NOp  24
 RotChk:  IX=0 Diff= 7.26D-15
 Largest Abelian subgroup         D2      NOp   4
 Largest concise Abelian subgroup D2      NOp   4
                         Standard orientation:                         
 ---------------------------------------------------------------------
 Center     Atomic      Atomic             Coordinates (Angstroms)
 Number     Number       Type             X           Y           Z
 ---------------------------------------------------------------------
      1          6           0        0.000000    0.000000    0.000000
      2          1           0        0.631339    0.631339    0.631339
      3          1           0       -0.631339   -0.631339    0.631339
      4          1           0       -0.631339    0.631339   -0.631339
      5          1           0        0.631339   -0.631339   -0.631339
 ---------------------------------------------------------------------
 Rotational constants (GHZ):         157.2593506         157.2593506         157.2593506
 Leave Link  202 at Wed Mar 25 15:37:14 2020, MaxMem=  2147483648 cpu:               0.4 elap:               0.0
 (Enter /n/sw/g16_nehalem/g16/l301.exe)
 Standard basis: 6-31G(d) (6D, 7F)
 Ernie: Thresh=  0.10000D-02 Tol=  0.10000D-05 Strict=F.
 There are     8 symmetry adapted cartesian basis functions of A   symmetry.
 There are     5 symmetry adapted cartesian basis functions of B1  symmetry.
 There are     5 symmetry adapted cartesian basis functions of B2  symmetry.
 There are     5 symmetry adapted cartesian basis functions of B3  symmetry.
 There are     8 symmetry adapted basis functions of A   symmetry.
 There are     5 symmetry adapted basis functions of B1  symmetry.
 There are     5 symmetry adapted basis functions of B2  symmetry.
 There are     5 symmetry adapted basis functions of B3  symmetry.
    23 basis functions,    44 primitive gaussians,    23 cartesian basis functions
     5 alpha electrons        5 beta electrons
       nuclear repulsion energy        13.3922432272 Hartrees.
 IExCor=  402 DFT=T Ex+Corr=B3LYP ExCW=0 ScaHFX=  0.200000
 ScaDFX=  0.800000  0.720000  1.000000  0.810000 ScalE2=  1.000000  1.000000
 IRadAn=      5 IRanWt=     -1 IRanGd=            0 ICorTp=0 IEmpDi=  4
 NAtoms=    5 NActive=    5 NUniq=    2 SFac= 4.00D+00 NAtFMM=   60 NAOKFM=F Big=F
 Integral buffers will be    131072 words long.
 Raffenetti 2 integral format.
 Two-electron integral symmetry is turned on.
 Leave Link  301 at Wed Mar 25 15:37:14 2020, MaxMem=  2147483648 cpu:               1.1 elap:               0.1
 (Enter /n/sw/g16_nehalem/g16/l302.exe)
 NPDir=0 NMtPBC=     1 NCelOv=     1 NCel=       1 NClECP=     1 NCelD=      1
         NCelK=      1 NCelE2=     1 NClLst=     1 CellRange=     0.0.
 One-electron integrals computed using PRISM.
 One-electron integral symmetry used in STVInt
 NBasis=    23 RedAO= T EigKep=  1.80D-02  NBF=     8     5     5     5
 NBsUse=    23 1.00D-06 EigRej= -1.00D+00 NBFU=     8     5     5     5
 Precomputing XC quadrature grid using
 IXCGrd= 4 IRadAn=           5 IRanWt=          -1 IRanGd=           0 AccXCQ= 0.00D+00.
 Generated NRdTot=       0 NPtTot=           0 NUsed=           0 NTot=          32
 NSgBfM=    23    23    23    23    23 MxSgAt=     5 MxSgA2=     5.
 Leave Link  302 at Wed Mar 25 15:37:14 2020, MaxMem=  2147483648 cpu:               2.2 elap:               0.2
 (Enter /n/sw/g16_nehalem/g16/l303.exe)
 DipDrv:  MaxL=1.
 Leave Link  303 at Wed Mar 25 15:37:14 2020, MaxMem=  2147483648 cpu:               0.5 elap:               0.1
 (Enter /n/sw/g16_nehalem/g16/l308.exe)
 Leave Link  308 at Wed Mar 25 15:37:14 2020, MaxMem=  2147483648 cpu:               0.4 elap:               0.0
 (Enter /n/sw/g16_nehalem/g16/l401.exe)
 Initial guess from the checkpoint file:  "checkpoint.chk"
 B after Tr=     0.000000    0.000000    0.000000
         Rot=    1.000000    0.000000    0.000000    0.000000 Ang=   0.00 deg.
 Guess basis will be translated and rotated to current coordinates.
 JPrj=2 DoOrth=T DoCkMO=T.
 Initial guess orbital symmetries:
       Occupied  (A1) (A1) (T2) (T2) (T2)
       Virtual   (A1) (T2) (T2) (T2) (T2) (T2) (T2) (T2) (T2) (T2)
                 (A1) (A1) (E) (E) (T2) (T2) (T2) (A1)
 The electronic state of the initial guess is 1-A1.
 Leave Link  401 at Wed Mar 25 15:37:14 2020, MaxMem=  2147483648 cpu:               1.4 elap:               0.1
 (Enter /n/sw/g16_nehalem/g16/l502.exe)
 Keep R1 ints in memory in symmetry-blocked form, NReq=15555153.
 FoFCou: FMM=F IPFlag=           0 FMFlag=           0 FMFlg1=           0
         NFxFlg=           0 DoJE=F BraDBF=F KetDBF=F FulRan=T
         wScrn=  0.000000 ICntrl=       600 IOpCl=  0 I1Cent=           0 NGrid=           0
         NMat0=    1 NMatS0=    276 NMatT0=    0 NMatD0=    1 NMtDS0=    0 NMtDT0=    0
 Petite list used in FoFCou.
 Closed shell SCF:
 Using DIIS extrapolation, IDIIS=  1040.
 NGot=  2147483648 LenX=  2147470329 LenY=  2147469359
 Requested convergence on RMS density matrix=1.00D-08 within 128 cycles.
 Requested convergence on MAX density matrix=1.00D-06.
 Requested convergence on             energy=1.00D-06.
 No special actions if energy rises.

 Cycle   1  Pass 1  IDiag  1:
 E= -40.5183831834978    
 DIIS: error= 6.74D-10 at cycle   1 NSaved=   1.
 NSaved= 1 IEnMin= 1 EnMin= -40.5183831834978     IErMin= 1 ErrMin= 6.74D-10
 ErrMax= 6.74D-10  0.00D+00 EMaxC= 1.00D-01 BMatC= 7.86D-18 BMatP= 7.86D-18
 IDIUse=1 WtCom= 1.00D+00 WtEn= 0.00D+00
 Coeff-Com:  0.100D+01
 Coeff:      0.100D+01
 Gap=     0.507 Goal=   None    Shift=    0.000
 RMSDP=2.03D-10 MaxDP=1.53D-09              OVMax= 1.77D-09

 SCF Done:  E(RB3LYP) =  -40.5183831835     A.U. after    1 cycles
            NFock=  1  Conv=0.20D-09     -V/T= 2.0112
 KE= 4.006982211500D+01 PE=-1.198231546496D+02 EE= 2.584270612385D+01
 Leave Link  502 at Wed Mar 25 15:37:15 2020, MaxMem=  2147483648 cpu:               2.7 elap:               0.2
 (Enter /n/sw/g16_nehalem/g16/l801.exe)
 DoSCS=F DFT=T ScalE2(SS,OS)=  1.000000  1.000000
 Range of M.O.s used for correlation:     1    23
 NBasis=    23 NAE=     5 NBE=     5 NFC=     0 NFV=     0
 NROrb=     23 NOA=     5 NOB=     5 NVA=    18 NVB=    18
 Leave Link  801 at Wed Mar 25 15:37:15 2020, MaxMem=  2147483648 cpu:               0.6 elap:               0.1
 (Enter /n/sw/g16_nehalem/g16/l1002.exe)
 Minotr:  Closed shell wavefunction.
          Direct CPHF calculation.
          Differentiating once with respect to magnetic field using GIAOs.
          Electric field/nuclear overlap derivatives assumed to be zero.
          Using symmetry in CPHF.
          Requested convergence is 1.0D-08 RMS, and 1.0D-07 maximum.
          Secondary convergence is 1.0D-12 RMS, and 1.0D-12 maximum.
          NewPWx=T KeepS1=F KeepF1=F KeepIn=T MapXYZ=F SortEE=F KeepMc=T.
         1449 words used for storage of precomputed grid.
 Keep R3 ints in memory in symmetry-blocked form, NReq=17534846.
 FoFCou: FMM=F IPFlag=           0 FMFlag=           0 FMFlg1=           0
         NFxFlg=           0 DoJE=F BraDBF=F KetDBF=F FulRan=T
         wScrn=  0.000000 ICntrl=       600 IOpCl=  0 I1Cent=           0 NGrid=           0
         NMat0=    1 NMatS0=    276 NMatT0=    0 NMatD0=    1 NMtDS0=    0 NMtDT0=    0
 Petite list used in FoFCou.
 Two-electron integral symmetry used by symmetrizing perturbed Fock matrices.
          MDV=    2147483648 using IRadAn=       1.
          Solving linear equations simultaneously, MaxMat=       0.
 FoFJK:  IHMeth= 1 ICntrl=    6127 DoSepK=F KAlg= 0 I1Cent=           0 FoldK=F
 IRaf=         1 NMat=       1 IRICut=       1 DoRegI=T DoRafI=F ISym2E= 0 IDoP0=0 IntGTp=1.
          There are     3 degrees of freedom in the 1st order CPHF.  IDoFFX=0 NUNeed=     3.
      3 vectors produced by pass  0 Test12= 3.00D-15 3.33D-08 XBig12= 1.29D-01 2.30D-01.
 AX will form     3 AO Fock derivatives at one time.
      3 vectors produced by pass  1 Test12= 3.00D-15 3.33D-08 XBig12= 3.04D-05 3.27D-03.
      3 vectors produced by pass  2 Test12= 3.00D-15 3.33D-08 XBig12= 7.14D-10 1.40D-05.
      3 vectors produced by pass  3 Test12= 3.00D-15 3.33D-08 XBig12= 3.14D-13 2.58D-07.
 InvSVY:  IOpt=1 It=  1 EMax= 6.20D-19
 Solved reduced A of dimension    12 with     3 vectors.
 Calculating GIAO nuclear magnetic shielding tensors.
 SCF GIAO Magnetic shielding tensor (ppm):
      1  C    Isotropic =   192.9242   Anisotropy =     0.0000
   XX=   192.9242   YX=     0.0000   ZX=     0.0000
   XY=     0.0000   YY=   192.9242   ZY=     0.0000
   XZ=     0.0000   YZ=     0.0000   ZZ=   192.9242
   Eigenvalues:   192.9242   192.9242   192.9242
      2  H    Isotropic =    31.8851   Anisotropy =     8.5868
   XX=    31.8851   YX=     2.8623   ZX=     2.8623
   XY=     2.8623   YY=    31.8851   ZY=     2.8623
   XZ=     2.8623   YZ=     2.8623   ZZ=    31.8851
   Eigenvalues:    29.0229    29.0229    37.6096
      3  H    Isotropic =    31.8851   Anisotropy =     8.5868
   XX=    31.8851   YX=     2.8623   ZX=    -2.8623
   XY=     2.8623   YY=    31.8851   ZY=    -2.8623
   XZ=    -2.8623   YZ=    -2.8623   ZZ=    31.8851
   Eigenvalues:    29.0229    29.0229    37.6096
      4  H    Isotropic =    31.8851   Anisotropy =     8.5868
   XX=    31.8851   YX=    -2.8623   ZX=     2.8623
   XY=    -2.8623   YY=    31.8851   ZY=    -2.8623
   XZ=     2.8623   YZ=    -2.8623   ZZ=    31.8851
   Eigenvalues:    29.0229    29.0229    37.6096
      5  H    Isotropic =    31.8851   Anisotropy =     8.5868
   XX=    31.8851   YX=    -2.8623   ZX=    -2.8623
   XY=    -2.8623   YY=    31.8851   ZY=     2.8623
   XZ=    -2.8623   YZ=     2.8623   ZZ=    31.8851
   Eigenvalues:    29.0229    29.0229    37.6096
 End of Minotr F.D. properties file   721 does not exist.
 End of Minotr F.D. properties file   722 does not exist.
 End of Minotr F.D. properties file   788 does not exist.
 Leave Link 1002 at Wed Mar 25 15:37:15 2020, MaxMem=  2147483648 cpu:               3.3 elap:               0.3
 (Enter /n/sw/g16_nehalem/g16/l601.exe)
 Copying SCF densities to generalized density rwf, IOpCl= 0 IROHF=0.

 **********************************************************************

            Population analysis using the SCF density.

 **********************************************************************

 Orbital symmetries:
       Occupied  (A1) (A1) (T2) (T2) (T2)
       Virtual   (A1) (T2) (T2) (T2) (T2) (T2) (T2) (T2) (T2) (T2)
                 (A1) (A1) (E) (E) (T2) (T2) (T2) (A1)
 The electronic state is 1-A1.
 Alpha  occ. eigenvalues --  -10.16705  -0.69022  -0.38902  -0.38902  -0.38902
 Alpha virt. eigenvalues --    0.11786   0.17646   0.17646   0.17646   0.53333
 Alpha virt. eigenvalues --    0.53333   0.53333   0.89754   0.89754   0.89754
 Alpha virt. eigenvalues --    0.94711   1.09978   1.65657   1.65657   2.24329
 Alpha virt. eigenvalues --    2.24329   2.24329   4.17899
          Condensed to atoms (all electrons):
               1          2          3          4          5
     1  C    5.093154   0.383733   0.383733   0.383733   0.383733
     2  H    0.383733   0.539602  -0.026785  -0.026785  -0.026785
     3  H    0.383733  -0.026785   0.539602  -0.026785  -0.026785
     4  H    0.383733  -0.026785  -0.026785   0.539602  -0.026785
     5  H    0.383733  -0.026785  -0.026785  -0.026785   0.539602
 Mulliken charges:
               1
     1  C   -0.628084
     2  H    0.157021
     3  H    0.157021
     4  H    0.157021
     5  H    0.157021
 Sum of Mulliken charges =   0.00000
 Mulliken charges with hydrogens summed into heavy atoms:
               1
     1  C    0.000000
 Electronic spatial extent (au):  <R**2>=             35.4863
 Charge=              0.0000 electrons
 Dipole moment (field-independent basis, Debye):
    X=              0.0000    Y=              0.0000    Z=              0.0000  Tot=              0.0000
 Quadrupole moment (field-independent basis, Debye-Ang):
   XX=             -8.2521   YY=             -8.2521   ZZ=             -8.2521
   XY=              0.0000   XZ=              0.0000   YZ=              0.0000
 Traceless Quadrupole moment (field-independent basis, Debye-Ang):
   XX=              0.0000   YY=              0.0000   ZZ=              0.0000
   XY=              0.0000   XZ=              0.0000   YZ=              0.0000
 Octapole moment (field-independent basis, Debye-Ang**2):
  XXX=              0.0000  YYY=              0.0000  ZZZ=              0.0000  XYY=              0.0000
  XXY=              0.0000  XXZ=              0.0000  XZZ=              0.0000  YZZ=              0.0000
  YYZ=              0.0000  XYZ=              0.6717
 Hexadecapole moment (field-independent basis, Debye-Ang**3):
 XXXX=            -15.7572 YYYY=            -15.7572 ZZZZ=            -15.7572 XXXY=              0.0000
 XXXZ=              0.0000 YYYX=              0.0000 YYYZ=              0.0000 ZZZX=              0.0000
 ZZZY=              0.0000 XXYY=             -4.8075 XXZZ=             -4.8075 YYZZ=             -4.8075
 XXYZ=              0.0000 YYXZ=              0.0000 ZZXY=              0.0000
 N-N= 1.339224322723D+01 E-N=-1.198231546827D+02  KE= 4.006982211500D+01
 Symmetry A    KE= 3.429141488758D+01
 Symmetry B1   KE= 1.926135742472D+00
 Symmetry B2   KE= 1.926135742472D+00
 Symmetry B3   KE= 1.926135742472D+00
 Calculating spin-rotation constants.
 Leave Link  601 at Wed Mar 25 15:37:15 2020, MaxMem=  2147483648 cpu:               2.3 elap:               0.4
 (Enter /n/sw/g16_nehalem/g16/l9999.exe)
 1\1\GINC-HOLY2C14401\SP\RB3LYP\6-31G(d)\C1H4\EKWAN\25-Mar-2020\0\\#p b
 3lyp 6-31g* NMR geom=allcheck guess=read\\Title Card Required\\0,1\C,0
 ,-3.65659769,2.090619956,0.\H,0,-3.2921062968,1.0596428458,-0.00000088
 26\H,0,-3.2920868299,2.6061013737,0.8928485417\H,0,-3.2920882711,2.606
 1023928,-0.8928485417\H,0,-4.7501093622,2.0906332117,0.0000008826\\Ver
 sion=ES64L-G16RevA.03\State=1-A1\HF=-40.5183832\RMSD=2.028e-10\Dipole=
 0.,0.,0.\Quadrupole=0.,0.,0.,0.,0.,0.\PG=TD [O(C1),4C3(H1)]\\@


 NATURE WILL TELL YOU A DIRECT LIE IF SHE CAN.

                                -- CHARLES DARWIN
 Job cpu time:       0 days  0 hours  0 minutes 22.4 seconds.
 Elapsed time:       0 days  0 hours  0 minutes  1.9 seconds.
 File lengths (MBytes):  RWF=      6 Int=      0 D2E=      0 Chk=      2 Scr=      1
 Normal termination of Gaussian 16 at Wed Mar 25 15:37:16 2020.
