
                                 *****************
                                 * O   R   C   A *
                                 *****************

           --- An Ab Initio, DFT and Semiempirical electronic structure package ---

                  #######################################################
                  #                        -***-                        #
                  #          Department of theory and spectroscopy      #
                  #               Directorship: Frank Neese             #
                  #        Max Planck Institute fuer Kohlenforschung    #
                  #                Kaiser Wilhelm Platz 1               #
                  #                 D-45470 Muelheim/Ruhr               #
                  #                      Germany                        #
                  #                                                     #
                  #                  All rights reserved                #
                  #                        -***-                        #
                  #######################################################


                         Program Version 4.1.2  - RELEASE  -


 With contributions from (in alphabetic order):
   Daniel Aravena         : Magnetic Properties
   Michael Atanasov       : Ab Initio Ligand Field Theory
   Alexander A. Auer      : GIAO ZORA
   Ute Becker             : Parallelization
   Giovanni Bistoni       : ED, Open-shell LED
   Martin Brehm           : Molecular dynamics
   Dmytro Bykov           : SCF Hessian
   Vijay G. Chilkuri      : MRCI spin determinant printing
   Dipayan Datta          : RHF DLPNO-CCSD density
   Achintya Kumar Dutta   : EOM-CC, STEOM-CC
   Dmitry Ganyushin       : Spin-Orbit,Spin-Spin,Magnetic field MRCI
   Miquel Garcia          : C-PCM Hessian
   Yang Guo               : DLPNO-NEVPT2, CIM, IAO-localization
   Andreas Hansen         : Spin unrestricted coupled pair/coupled cluster methods
   Benjamin Helmich-Paris : CASSCF linear response (MC-RPA)
   Lee Huntington         : MR-EOM, pCC
   Robert Izsak           : Overlap fitted RIJCOSX, COSX-SCS-MP3, EOM
   Christian Kollmar      : KDIIS, OOCD, Brueckner-CCSD(T), CCSD density
   Simone Kossmann        : Meta GGA functionals, TD-DFT gradient, OOMP2, MP2 Hessian
   Martin Krupicka        : AUTO-CI
   Lucas Lang             : DCDCAS
   Dagmar Lenk            : GEPOL surface, SMD
   Dimitrios Liakos       : Extrapolation schemes; parallel MDCI
   Dimitrios Manganas     : ROCIS; embedding schemes
   Dimitrios Pantazis     : SARC Basis sets
   Taras Petrenko         : DFT Hessian,TD-DFT gradient, ASA, ECA, R-Raman, ABS, FL, XAS/XES, NRVS
   Peter Pinski           : DLPNO-MP2, DLPNO-MP2 Gradient
   Christoph Reimann      : Effective Core Potentials
   Marius Retegan         : Local ZFS, SOC
   Christoph Riplinger    : Optimizer, TS searches, QM/MM, DLPNO-CCSD(T), (RO)-DLPNO pert. Triples
   Tobias Risthaus        : Range-separated hybrids, TD-DFT gradient, RPA, STAB
   Michael Roemelt        : Restricted open shell CIS
   Masaaki Saitow         : Open-shell DLPNO
   Barbara Sandhoefer     : DKH picture change effects
   Avijit Sen             : IP-ROCIS
   Kantharuban Sivalingam : CASSCF convergence, NEVPT2, FIC-MRCI
   Bernardo de Souza      : ESD, SOC TD-DFT
   Georgi Stoychev        : AutoAux, RI-MP2 NMR
   Willem Van den Heuvel  : Paramagnetic NMR
   Boris Wezisla          : Elementary symmetry handling
   Frank Wennmohs         : Technical directorship


 We gratefully acknowledge several colleagues who have allowed us to
 interface, adapt or use parts of their codes:
   Stefan Grimme, W. Hujo, H. Kruse,             : VdW corrections, initial TS optimization,
                  C. Bannwarth                     DFT functionals, gCP, sTDA/sTD-DF
   Ed Valeev                                     : LibInt (2-el integral package), F12 methods
   Garnet Chan, S. Sharma, J. Yang, R. Olivares  : DMRG
   Ulf Ekstrom                                   : XCFun DFT Library
   Mihaly Kallay                                 : mrcc  (arbitrary order and MRCC methods)
   Andreas Klamt, Michael Diedenhofen            : otool_cosmo (COSMO solvation model)
   Jiri Pittner, Ondrej Demel                    : Mk-CCSD
   Frank Weinhold                                : gennbo (NPA and NBO analysis)
   Christopher J. Cramer and Donald G. Truhlar   : smd solvation model
   Lars Goerigk                                  : TD-DFT with DH, B97 family of functionals
   V. Asgeirsson, H. Jonsson                     : NEB implementation
   FAccTs GmbH                                   : IRC, NEB, NEB-TS, Multilevel


 Your calculation uses the libint2 library for the computation of 2-el integrals
 For citations please refer to: http://libint.valeyev.net

 This ORCA versions uses:
   CBLAS   interface :  Fast vector & matrix operations
   LAPACKE interface :  Fast linear algebra routines
   SCALAPACK package :  Parallel linear algebra routines


----- Orbital basis set information -----
Your calculation utilizes the basis: aug-cc-pVQZ 
    H, B-Ne : Obtained from the ccRepo (grant-hill.group.shef.ac.uk/ccrepo) Feb. 2017
              R. A. Kendall, T. H. Dunning, Jr., R. J. Harrison, J. Chem. Phys. 96, 6796 (1992)
         He : Obtained from the ccRepo (grant-hill.group.shef.ac.uk/ccrepo) Feb. 2017
              D. E. Woon, T. H. Dunning, Jr., J. Chem. Phys. 100, 2975 (1994)
  Li-Be, Na : Obtained from the ccRepo (grant-hill.group.shef.ac.uk/ccrepo) Feb. 2017
              B. P. Prascher, D. E. Woon, K. A. Peterson, T. H. Dunning, Jr., A. K. Wilson, Theor. Chem. Acc. 128, 69 (2011)
         Mg : Obtained from the Peterson Research Group Website (tyr0.chem.wsu.edu/~kipeters) Feb. 2017
              B. P. Prascher, D. E. Woon, K. A. Peterson, T. H. Dunning, Jr., A. K. Wilson, Theor. Chem. Acc. 128, 69 (2011)
      Al-Ar : Obtained from the ccRepo (grant-hill.group.shef.ac.uk/ccrepo) Feb. 2017
              D. E. Woon, T. H. Dunning, Jr., J. Chem. Phys. 98, 1358 (1993)
      Sc-Zn : Obtained from the ccRepo (grant-hill.group.shef.ac.uk/ccrepo) Feb. 2017
              N. B. Balabanov, K. A. Peterson, J. Chem. Phys. 123, 064107 (2005)
              N. B. Balabanov, K. A. Peterson, J. Chem. Phys. 125, 074110 (2006)
      Ga-Kr : Obtained from the ccRepo (grant-hill.group.shef.ac.uk/ccrepo) Feb. 2017
              A. K. Wilson, D. E. Woon, K. A. Peterson, T. H. Dunning, Jr., J. Chem. Phys. 110, 7667 (1999)

----- AuxC basis set information -----
Your calculation utilizes the auxiliary basis: aug-cc-pVQZ/C 
  H-He, B-F, Al-Ar, Ga-Kr : Obtained from the EMSL Basis Set Exchange (bse.pnl.gov) Feb. 2017
                            F. Weigend, A. Kohn, C. Hattig, J. Chem. Phys. 116, 3175 (2002)
                   Be, Mg : Obtained from the TURBOMOLE 7.0 basis set library
                            C. Haettig, Phys. Chem. Chem. Phys. 7, 59 (2005)
                       Ne : Obtained from the EMSL Basis Set Exchange (bse.pnl.gov) Feb. 2017
                            C. Haettig, Phys. Chem. Chem. Phys. 7, 59 (2005)
                            F. Weigend, A. Kohn, C. Hattig, J. Chem. Phys. 116, 3175 (2002)
                    Sc-Zn : Obtained from the EMSL Basis Set Exchange (bse.pnl.gov) Feb. 2017
                            D. H. Bross, J. G. Hill, H. J. Werner, K. A. Peterson, J. Chem. Phys. 139, 094302 (2013)

================================================================================
                                        WARNINGS
                       Please study these warnings very carefully!
================================================================================


WARNING: MDCI localization with Augmented Hessian Foster-Boys
  ===> : Switching off randomization!

WARNING: Post HF methods need fully converged wavefunctions
  ===> : Setting SCFConvForced true
         You can overwrite this default with %scf ConvForced false 


INFO   : the flag for use of LIBINT has been found!

================================================================================
                                       INPUT FILE
================================================================================
NAME = MsOH_dlpno-ccsdt_augqz.inp
|  1> ! aug-cc-pVQZ aug-cc-pVQZ/C DLPNO-CCSD(T) TightSCF TightPNO MiniPrint
|  2> %pal nproc 4 end
|  3> %maxcore 50000
|  4> %mdci
|  5>     density none
|  6> end
|  7> 
|  8> * xyz 0 1
|  9>  1     1.47699400      1.45503700      -0.24652200
| 10>  6     -1.63632200      0.30903900      0.09352700
| 11>  1     -1.74411900      1.21028300      0.69747600
| 12>  1     -1.98027100      0.47452800      -0.92846400
| 13>  1     -2.17334500      -0.52768100      0.54464600
| 14> 16     0.09542000      -0.15057200      0.04375400
| 15>  8     0.66324700      -0.13744400      1.39135900
| 16>  8     0.25269700      -1.30619700      -0.82677400
| 17>  8     0.67305100      1.18648400      -0.73063000
| 18> *
| 19> 
| 20> 
| 21>                          ****END OF INPUT****
================================================================================

                       ****************************
                       * Single Point Calculation *
                       ****************************

---------------------------------
CARTESIAN COORDINATES (ANGSTROEM)
---------------------------------
  H      1.476994    1.455037   -0.246522
  C     -1.636322    0.309039    0.093527
  H     -1.744119    1.210283    0.697476
  H     -1.980271    0.474528   -0.928464
  H     -2.173345   -0.527681    0.544646
  S      0.095420   -0.150572    0.043754
  O      0.663247   -0.137444    1.391359
  O      0.252697   -1.306197   -0.826774
  O      0.673051    1.186484   -0.730630

----------------------------
CARTESIAN COORDINATES (A.U.)
----------------------------
  NO LB      ZA    FRAG     MASS         X           Y           Z
   0 H     1.0000    0     1.008    2.791114    2.749621   -0.465859
   1 C     6.0000    0    12.011   -3.092200    0.583999    0.176740
   2 H     1.0000    0     1.008   -3.295907    2.287103    1.318039
   3 H     1.0000    0     1.008   -3.742170    0.896728   -1.754543
   4 H     1.0000    0     1.008   -4.107027   -0.997173    1.029232
   5 S    16.0000    0    32.060    0.180318   -0.284540    0.082683
   6 O     8.0000    0    15.999    1.253355   -0.259732    2.629287
   7 O     8.0000    0    15.999    0.477528   -2.468355   -1.562376
   8 O     8.0000    0    15.999    1.271882    2.242130   -1.380691



           ************************************************************
           *        Program running with 4 parallel MPI-processes     *
           *              working on a common directory               *
           ************************************************************


           ************************************************************
           *        Program running with 4 parallel MPI-processes     *
           *              working on a common directory               *
           ************************************************************

Diagonalization of the overlap matrix:
Smallest eigenvalue                        ... 8.285e-06
Time for diagonalization                   ...    0.130 sec
Threshold for overlap eigenvalues          ... 1.000e-08
Number of eigenvalues below threshold      ... 0
Time for construction of square roots      ...    0.102 sec
Total time needed                          ...    0.234 sec

-------------------
DFT GRID GENERATION
-------------------

General Integration Accuracy     IntAcc      ...  4.340
Radial Grid Type                 RadialGrid  ... Gauss-Chebyshev
Angular Grid (max. acc.)         AngularGrid ... Lebedev-110
Angular grid pruning method      GridPruning ... 3 (G Style)
Weight generation scheme         WeightScheme... Becke
Basis function cutoff            BFCut       ...    1.0000e-11
Integration weight cutoff        WCut        ...    1.0000e-14
Grids for H and He will be reduced by one unit

# of grid points (after initial pruning)     ...  11786 (   0.0 sec)
# of grid points (after weights+screening)   ...  11337 (   0.0 sec)
nearest neighbour list constructed           ...    0.0 sec
Grid point re-assignment to atoms done       ...    0.0 sec
Grid point division into batches done        ...    0.0 sec
Reduced shell lists constructed in    0.1 sec

Total number of grid points                  ...    11337
Total number of batches                      ...      183
Average number of points per batch           ...       61
Average number of grid points per atom       ...     1260
Average number of shells per batch           ...   115.26 (72.95%)
Average number of basis functions per batch  ...   433.17 (73.67%)
Average number of large shells per batch     ...    97.47 (84.57%)
Average number of large basis fcns per batch ...   361.94 (83.56%)
Maximum spatial batch extension              ...  20.44, 19.30, 22.36 au
Average spatial batch extension              ...   1.15,  1.14,  1.22 au

Time for grid setup =    0.196 sec

Loading Hartree-Fock densities                     ... done
Calculating cut-offs                               ... done
Setting up the integral package                    ... done
Initializing the effective Hamiltonian             ... done
Starting the Coulomb interaction                   ... done (   0.2 sec)
Reading the grid                                   ... done
Mapping shells                                     ... done
Starting the XC term evaluation                    ... done (   0.3 sec)
Transforming the Hamiltonian                       ... done (   0.1 sec)
Diagonalizing the Hamiltonian                      ... done (   0.1 sec)
Back transforming the eigenvectors                 ... done (   0.0 sec)
Now organizing SCF variables                       ... done
--------------
SCF ITERATIONS
--------------
ITER       Energy         Delta-E        Max-DP      RMS-DP      [F,P]     Damp
               ***  Starting incremental Fock matrix formation  ***
  0   -662.0970386063   0.000000000000 0.11952556  0.00059962  0.3674661 0.7000
  1   -662.2220391254  -0.125000519063 0.07855023  0.00041914  0.2172787 0.7000
                               ***Turning on DIIS***
  2   -662.2897043337  -0.067665208314 0.05041680  0.00027969  0.1220920 0.7000
  3   -662.5665490619  -0.276844728194 0.10048041  0.00064335  0.0725371 0.0000
  4   -662.4127003653   0.153848696618 0.00416799  0.00005637  0.0083729 0.0000
                      *** Initiating the SOSCF procedure ***
                           *** Shutting down DIIS ***
                      *** Re-Reading the Fockian *** 
                      *** Removing any level shift *** 
ITER      Energy       Delta-E        Grad      Rot      Max-DP    RMS-DP
  5   -662.41983996  -0.0071395943  0.001089  0.001089  0.001369  0.000025
               *** Restarting incremental Fock matrix formation ***
  6   -662.42709225  -0.0072522884  0.000371  0.000470  0.000716  0.000010
  7   -662.42711757  -0.0000253219  0.000230  0.000536  0.000439  0.000009
  8   -662.42712368  -0.0000061128  0.000083  0.000095  0.000188  0.000002
  9   -662.42712440  -0.0000007150  0.000014  0.000019  0.000041  0.000000
 10   -662.42712444  -0.0000000387  0.000007  0.000014  0.000025  0.000000
                  ***Gradient check signals convergence***
              ***Rediagonalizing the Fockian in SOSCF/NRSCF***

               *****************************************************
               *                     SUCCESS                       *
               *           SCF CONVERGED AFTER  11 CYCLES          *
               *****************************************************

Total Energy       :         -662.42712444 Eh          -18025.55846 eV
  Last Energy change         ...   -6.0249e-09  Tolerance :   1.0000e-08
  Last MAX-Density change    ...    5.0437e-06  Tolerance :   1.0000e-07
             **** THE GBW FILE WAS UPDATED (MsOH_dlpno-ccsdt_augqz.gbw) ****
             **** DENSITY FILE WAS UPDATED (MsOH_dlpno-ccsdt_augqz.scfp.tmp) ****
             **** ENERGY FILE WAS UPDATED (MsOH_dlpno-ccsdt_augqz.en.tmp) ****
----------------
ORBITAL ENERGIES
----------------

  NO   OCC          E(Eh)            E(eV) 
   0   2.0000     -92.227949     -2509.6501 
   1   2.0000     -20.636533      -561.5486 
   2   2.0000     -20.570202      -559.7437 
   3   2.0000     -20.566978      -559.6559 
   4   2.0000     -11.293732      -307.3181 
   5   2.0000      -9.190907      -250.0973 
   6   2.0000      -6.877312      -187.1412 
   7   2.0000      -6.875655      -187.0961 
   8   2.0000      -6.875088      -187.0807 
   9   2.0000      -1.497445       -40.7476 
  10   2.0000      -1.388860       -37.7928 
  11   2.0000      -1.355322       -36.8802 
  12   2.0000      -1.057397       -28.7732 
  13   2.0000      -0.870548       -23.6888 
  14   2.0000      -0.748143       -20.3580 
  15   2.0000      -0.708550       -19.2806 
  16   2.0000      -0.688543       -18.7362 
  17   2.0000      -0.647937       -17.6313 
  18   2.0000      -0.624229       -16.9861 
  19   2.0000      -0.615760       -16.7557 
  20   2.0000      -0.576540       -15.6885 
  21   2.0000      -0.529626       -14.4118 
  22   2.0000      -0.507754       -13.8167 
  23   2.0000      -0.491086       -13.3631 
  24   2.0000      -0.484956       -13.1963 
  25   0.0000       0.020350         0.5538 
  26   0.0000       0.031673         0.8619 
  27   0.0000       0.039776         1.0824 
  28   0.0000       0.043054         1.1716 
  29   0.0000       0.070987         1.9317 
  30   0.0000       0.079551         2.1647 
  31   0.0000       0.086074         2.3422 
  32   0.0000       0.095954         2.6111 
  33   0.0000       0.102048         2.7769 
  34   0.0000       0.107460         2.9241 
  35   0.0000       0.113481         3.0880 
  36   0.0000       0.134079         3.6485 
  37   0.0000       0.136612         3.7174 
  38   0.0000       0.144670         3.9367 
  39   0.0000       0.155821         4.2401 
  40   0.0000       0.168980         4.5982 
  41   0.0000       0.173985         4.7344 
  42   0.0000       0.179428         4.8825 
  43   0.0000       0.184461         5.0194 
  44   0.0000       0.190017         5.1706 
  45   0.0000       0.204350         5.5607 
  46   0.0000       0.210711         5.7337 
  47   0.0000       0.220128         5.9900 
  48   0.0000       0.228593         6.2203 
  49   0.0000       0.235747         6.4150 
  50   0.0000       0.244349         6.6491 
  51   0.0000       0.244648         6.6572 
  52   0.0000       0.254191         6.9169 
  53   0.0000       0.265044         7.2122 
  54   0.0000       0.269105         7.3227 
  55   0.0000       0.272456         7.4139 
  56   0.0000       0.283215         7.7067 
  57   0.0000       0.291438         7.9304 
  58   0.0000       0.296449         8.0668 
  59   0.0000       0.302217         8.2238 
  60   0.0000       0.306673         8.3450 
  61   0.0000       0.313686         8.5358 
  62   0.0000       0.316274         8.6063 
  63   0.0000       0.325989         8.8706 
  64   0.0000       0.331790         9.0285 
  65   0.0000       0.338174         9.2022 
  66   0.0000       0.344866         9.3843 
  67   0.0000       0.352029         9.5792 
  68   0.0000       0.361706         9.8425 
  69   0.0000       0.373965        10.1761 
  70   0.0000       0.375781        10.2255 
  71   0.0000       0.389833        10.6079 
  72   0.0000       0.395700        10.7675 
  73   0.0000       0.399492        10.8707 
  74   0.0000       0.407452        11.0873 
  75   0.0000       0.414749        11.2859 
  76   0.0000       0.430590        11.7170 
  77   0.0000       0.430687        11.7196 
  78   0.0000       0.456254        12.4153 
  79   0.0000       0.497515        13.5381 
  80   0.0000       0.513659        13.9774 
  81   0.0000       0.521886        14.2012 
  82   0.0000       0.527571        14.3559 
  83   0.0000       0.540061        14.6958 
  84   0.0000       0.552021        15.0213 
  85   0.0000       0.556083        15.1318 
  86   0.0000       0.568236        15.4625 
  87   0.0000       0.570462        15.5231 
  88   0.0000       0.584649        15.9091 
  89   0.0000       0.585868        15.9423 
  90   0.0000       0.599519        16.3137 
  91   0.0000       0.607395        16.5281 
  92   0.0000       0.614278        16.7154 
  93   0.0000       0.641706        17.4617 
  94   0.0000       0.646755        17.5991 
  95   0.0000       0.651257        17.7216 
  96   0.0000       0.661837        18.0095 
  97   0.0000       0.669849        18.2275 
  98   0.0000       0.674571        18.3560 
  99   0.0000       0.677487        18.4354 
 100   0.0000       0.693487        18.8707 
 101   0.0000       0.696786        18.9605 
 102   0.0000       0.707137        19.2422 
 103   0.0000       0.717969        19.5369 
 104   0.0000       0.721390        19.6300 
 105   0.0000       0.725317        19.7369 
 106   0.0000       0.741881        20.1876 
 107   0.0000       0.752832        20.4856 
 108   0.0000       0.762341        20.7443 
 109   0.0000       0.767455        20.8835 
 110   0.0000       0.770694        20.9717 
 111   0.0000       0.776172        21.1207 
 112   0.0000       0.791024        21.5248 
 113   0.0000       0.799647        21.7595 
 114   0.0000       0.814018        22.1506 
 115   0.0000       0.814921        22.1751 
 116   0.0000       0.837803        22.7978 
 117   0.0000       0.842831        22.9346 
 118   0.0000       0.854144        23.2424 
 119   0.0000       0.856506        23.3067 
 120   0.0000       0.879061        23.9205 
 121   0.0000       0.884360        24.0647 
 122   0.0000       0.886309        24.1177 
 123   0.0000       0.896106        24.3843 
 124   0.0000       0.910165        24.7668 
 125   0.0000       0.914211        24.8769 
 126   0.0000       0.926114        25.2009 
 127   0.0000       0.937690        25.5158 
 128   0.0000       0.949826        25.8461 
 129   0.0000       0.958093        26.0710 
 130   0.0000       0.966795        26.3078 
 131   0.0000       0.979187        26.6450 
 132   0.0000       0.986548        26.8453 
 133   0.0000       1.002929        27.2911 
 134   0.0000       1.008597        27.4453 
 135   0.0000       1.014883        27.6164 
 136   0.0000       1.031584        28.0708 
 137   0.0000       1.042883        28.3783 
 138   0.0000       1.064539        28.9676 
 139   0.0000       1.075422        29.2637 
 140   0.0000       1.091524        29.7019 
 141   0.0000       1.098936        29.9036 
 142   0.0000       1.104839        30.0642 
 143   0.0000       1.141290        31.0561 
 144   0.0000       1.148474        31.2516 
 145   0.0000       1.151565        31.3357 
 146   0.0000       1.167588        31.7717 
 147   0.0000       1.172477        31.9047 
 148   0.0000       1.179926        32.1074 
 149   0.0000       1.184818        32.2405 
 150   0.0000       1.200010        32.6539 
 151   0.0000       1.207993        32.8712 
 152   0.0000       1.222148        33.2563 
 153   0.0000       1.223852        33.3027 
 154   0.0000       1.237790        33.6820 
 155   0.0000       1.243061        33.8254 
 156   0.0000       1.273833        34.6628 
 157   0.0000       1.286353        35.0034 
 158   0.0000       1.328400        36.1476 
 159   0.0000       1.343098        36.5476 
 160   0.0000       1.348610        36.6976 
 161   0.0000       1.418820        38.6081 
 162   0.0000       1.430834        38.9350 
 163   0.0000       1.445970        39.3469 
 164   0.0000       1.454735        39.5853 
 165   0.0000       1.458434        39.6860 
 166   0.0000       1.479989        40.2725 
 167   0.0000       1.488394        40.5013 
 168   0.0000       1.499065        40.7916 
 169   0.0000       1.504293        40.9339 
 170   0.0000       1.523273        41.4504 
 171   0.0000       1.535118        41.7727 
 172   0.0000       1.540425        41.9171 
 173   0.0000       1.551073        42.2068 
 174   0.0000       1.565613        42.6025 
 175   0.0000       1.572517        42.7904 
 176   0.0000       1.582601        43.0647 
 177   0.0000       1.593069        43.3496 
 178   0.0000       1.604908        43.6718 
 179   0.0000       1.611487        43.8508 
 180   0.0000       1.628145        44.3041 
 181   0.0000       1.649467        44.8843 
 182   0.0000       1.652021        44.9538 
 183   0.0000       1.665138        45.3107 
 184   0.0000       1.686764        45.8992 
 185   0.0000       1.691149        46.0185 
 186   0.0000       1.696014        46.1509 
 187   0.0000       1.706807        46.4446 
 188   0.0000       1.709278        46.5118 
 189   0.0000       1.720736        46.8236 
 190   0.0000       1.735137        47.2155 
 191   0.0000       1.738809        47.3154 
 192   0.0000       1.744847        47.4797 
 193   0.0000       1.755938        47.7815 
 194   0.0000       1.796409        48.8828 
 195   0.0000       1.805477        49.1295 
 196   0.0000       1.816769        49.4368 
 197   0.0000       1.826452        49.7003 
 198   0.0000       1.831123        49.8274 
 199   0.0000       1.840497        50.0825 
 200   0.0000       1.844754        50.1983 
 201   0.0000       1.857467        50.5443 
 202   0.0000       1.872484        50.9529 
 203   0.0000       1.878756        51.1236 
 204   0.0000       1.891437        51.4686 
 205   0.0000       1.921598        52.2893 
 206   0.0000       1.933681        52.6181 
 207   0.0000       1.938428        52.7473 
 208   0.0000       1.946061        52.9550 
 209   0.0000       1.984338        53.9966 
 210   0.0000       1.993981        54.2590 
 211   0.0000       2.005095        54.5614 
 212   0.0000       2.008166        54.6450 
 213   0.0000       2.018897        54.9370 
 214   0.0000       2.022876        55.0453 
 215   0.0000       2.032217        55.2994 
 216   0.0000       2.040407        55.5223 
 217   0.0000       2.054686        55.9109 
 218   0.0000       2.062303        56.1181 
 219   0.0000       2.070954        56.3535 
 220   0.0000       2.086705        56.7821 
 221   0.0000       2.093933        56.9788 
 222   0.0000       2.104136        57.2565 
 223   0.0000       2.109423        57.4003 
 224   0.0000       2.123927        57.7950 
 225   0.0000       2.136533        58.1380 
 226   0.0000       2.149236        58.4837 
 227   0.0000       2.164484        58.8986 
 228   0.0000       2.174734        59.1775 
 229   0.0000       2.203423        59.9582 
 230   0.0000       2.205661        60.0191 
 231   0.0000       2.216811        60.3225 
 232   0.0000       2.224677        60.5365 
 233   0.0000       2.232416        60.7471 
 234   0.0000       2.238285        60.9068 
 235   0.0000       2.244424        61.0739 
 236   0.0000       2.267383        61.6986 
 237   0.0000       2.279313        62.0233 
 238   0.0000       2.304605        62.7115 
 239   0.0000       2.330671        63.4208 
 240   0.0000       2.338249        63.6270 
 241   0.0000       2.357087        64.1396 
 242   0.0000       2.358530        64.1789 
 243   0.0000       2.371794        64.5398 
 244   0.0000       2.387483        64.9667 
 245   0.0000       2.392245        65.0963 
 246   0.0000       2.403332        65.3980 
 247   0.0000       2.422601        65.9223 
 248   0.0000       2.444923        66.5297 
 249   0.0000       2.460552        66.9550 
 250   0.0000       2.478081        67.4320 
 251   0.0000       2.484972        67.6195 
 252   0.0000       2.492206        67.8164 
 253   0.0000       2.512327        68.3639 
 254   0.0000       2.522900        68.6516 
 255   0.0000       2.561840        69.7112 
 256   0.0000       2.574112        70.0451 
 257   0.0000       2.599335        70.7315 
 258   0.0000       2.628827        71.5340 
 259   0.0000       2.644882        71.9709 
 260   0.0000       2.659673        72.3734 
 261   0.0000       2.687514        73.1310 
 262   0.0000       2.696432        73.3736 
 263   0.0000       2.700227        73.4769 
 264   0.0000       2.727429        74.2171 
 265   0.0000       2.741546        74.6013 
 266   0.0000       2.770372        75.3857 
 267   0.0000       2.788309        75.8737 
 268   0.0000       2.819320        76.7176 
 269   0.0000       2.826300        76.9075 
 270   0.0000       2.846656        77.4614 
 271   0.0000       2.848578        77.5138 
 272   0.0000       2.857891        77.7672 
 273   0.0000       2.888509        78.6003 
 274   0.0000       2.922921        79.5367 
 275   0.0000       2.936871        79.9163 
 276   0.0000       2.976045        80.9823 
 277   0.0000       2.988478        81.3206 
 278   0.0000       3.012692        81.9795 
 279   0.0000       3.054070        83.1055 
 280   0.0000       3.060302        83.2750 
 281   0.0000       3.075010        83.6753 
 282   0.0000       3.086630        83.9915 
 283   0.0000       3.105846        84.5144 
 284   0.0000       3.139573        85.4321 
 285   0.0000       3.146961        85.6332 
 286   0.0000       3.167172        86.1831 
 287   0.0000       3.177429        86.4623 
 288   0.0000       3.201688        87.1224 
 289   0.0000       3.230018        87.8933 
 290   0.0000       3.254310        88.5543 
 291   0.0000       3.300468        89.8103 
 292   0.0000       3.319898        90.3390 
 293   0.0000       3.339756        90.8794 
 294   0.0000       3.373661        91.8020 
 295   0.0000       3.395768        92.4035 
 296   0.0000       3.421148        93.0942 
 297   0.0000       3.479402        94.6793 
 298   0.0000       3.521565        95.8266 
 299   0.0000       3.564646        96.9989 
 300   0.0000       3.605606        98.1135 
 301   0.0000       3.622813        98.5817 
 302   0.0000       3.637792        98.9894 
 303   0.0000       3.652667        99.3941 
 304   0.0000       3.670155        99.8700 
 305   0.0000       3.672557        99.9354 
 306   0.0000       3.721541       101.2683 
 307   0.0000       3.735782       101.6558 
 308   0.0000       3.759761       102.3083 
 309   0.0000       3.796119       103.2977 
 310   0.0000       3.810059       103.6770 
 311   0.0000       3.827478       104.1510 
 312   0.0000       3.835173       104.3604 
 313   0.0000       3.844312       104.6090 
 314   0.0000       3.859998       105.0359 
 315   0.0000       3.885932       105.7416 
 316   0.0000       3.900400       106.1353 
 317   0.0000       3.909158       106.3736 
 318   0.0000       3.921764       106.7166 
 319   0.0000       3.927176       106.8639 
 320   0.0000       3.948523       107.4448 
 321   0.0000       3.957329       107.6844 
 322   0.0000       3.980375       108.3115 
 323   0.0000       3.984349       108.4197 
 324   0.0000       4.001131       108.8763 
 325   0.0000       4.038047       109.8809 
 326   0.0000       4.056937       110.3949 
 327   0.0000       4.064928       110.6123 
 328   0.0000       4.078508       110.9818 
 329   0.0000       4.104940       111.7011 
 330   0.0000       4.120833       112.1336 
 331   0.0000       4.131257       112.4172 
 332   0.0000       4.149696       112.9190 
 333   0.0000       4.163078       113.2831 
 334   0.0000       4.166268       113.3699 
 335   0.0000       4.184852       113.8756 
 336   0.0000       4.193098       114.1000 
 337   0.0000       4.212646       114.6319 
 338   0.0000       4.218483       114.7908 
 339   0.0000       4.231841       115.1542 
 340   0.0000       4.250406       115.6594 
 341   0.0000       4.255945       115.8102 
 342   0.0000       4.280435       116.4766 
 343   0.0000       4.290876       116.7607 
 344   0.0000       4.310249       117.2878 
 345   0.0000       4.324459       117.6745 
 346   0.0000       4.337285       118.0235 
 347   0.0000       4.357708       118.5793 
 348   0.0000       4.373019       118.9959 
 349   0.0000       4.386351       119.3587 
 350   0.0000       4.405223       119.8722 
 351   0.0000       4.426266       120.4448 
 352   0.0000       4.439816       120.8135 
 353   0.0000       4.467074       121.5553 
 354   0.0000       4.487049       122.0988 
 355   0.0000       4.493050       122.2621 
 356   0.0000       4.498372       122.4069 
 357   0.0000       4.502370       122.5157 
 358   0.0000       4.516631       122.9038 
 359   0.0000       4.535084       123.4059 
 360   0.0000       4.546528       123.7173 
 361   0.0000       4.572797       124.4321 
 362   0.0000       4.589984       124.8998 
 363   0.0000       4.591508       124.9413 
 364   0.0000       4.616376       125.6180 
 365   0.0000       4.622334       125.7801 
 366   0.0000       4.647367       126.4613 
 367   0.0000       4.669428       127.0616 
 368   0.0000       4.673931       127.1841 
 369   0.0000       4.703153       127.9793 
 370   0.0000       4.725858       128.5971 
 371   0.0000       4.739127       128.9582 
 372   0.0000       4.767878       129.7406 
 373   0.0000       4.785494       130.2199 
 374   0.0000       4.804811       130.7455 
 375   0.0000       4.828208       131.3822 
 376   0.0000       4.851468       132.0152 
 377   0.0000       4.872112       132.5769 
 378   0.0000       4.884220       132.9064 
 379   0.0000       4.920543       133.8948 
 380   0.0000       4.986538       135.6906 
 381   0.0000       5.005531       136.2074 
 382   0.0000       5.024022       136.7106 
 383   0.0000       5.060327       137.6985 
 384   0.0000       5.075756       138.1183 
 385   0.0000       5.112334       139.1137 
 386   0.0000       5.127882       139.5368 
 387   0.0000       5.140311       139.8750 
 388   0.0000       5.166339       140.5832 
 389   0.0000       5.170045       140.6841 
 390   0.0000       5.183857       141.0599 
 391   0.0000       5.200924       141.5243 
 392   0.0000       5.207710       141.7090 
 393   0.0000       5.261785       143.1805 
 394   0.0000       5.294006       144.0572 
 395   0.0000       5.330189       145.0418 
 396   0.0000       5.347266       145.5065 
 397   0.0000       5.362861       145.9309 
 398   0.0000       5.395734       146.8254 
 399   0.0000       5.445354       148.1756 
 400   0.0000       5.499186       149.6405 
 401   0.0000       5.540175       150.7558 
 402   0.0000       5.605775       152.5409 
 403   0.0000       5.661532       154.0581 
 404   0.0000       5.724843       155.7809 
 405   0.0000       5.797840       157.7672 
 406   0.0000       5.826694       158.5524 
 407   0.0000       5.840405       158.9255 
 408   0.0000       5.902497       160.6151 
 409   0.0000       5.975244       162.5947 
 410   0.0000       5.996272       163.1669 
 411   0.0000       6.069347       165.1553 
 412   0.0000       6.118746       166.4996 
 413   0.0000       6.172254       167.9556 
 414   0.0000       6.189426       168.4229 
 415   0.0000       6.222044       169.3104 
 416   0.0000       6.274122       170.7275 
 417   0.0000       6.282221       170.9479 
 418   0.0000       6.294761       171.2892 
 419   0.0000       6.380285       173.6164 
 420   0.0000       6.438043       175.1880 
 421   0.0000       6.524945       177.5528 
 422   0.0000       6.547515       178.1669 
 423   0.0000       6.606681       179.7769 
 424   0.0000       6.622453       180.2061 
 425   0.0000       6.733110       183.2172 
 426   0.0000       6.740697       183.4237 
 427   0.0000       6.750438       183.6888 
 428   0.0000       6.766229       184.1185 
 429   0.0000       6.810829       185.3321 
 430   0.0000       6.815790       185.4671 
 431   0.0000       6.887278       187.4124 
 432   0.0000       6.930484       188.5881 
 433   0.0000       6.961148       189.4225 
 434   0.0000       6.978330       189.8900 
 435   0.0000       6.997516       190.4121 
 436   0.0000       7.077294       192.5830 
 437   0.0000       7.104530       193.3241 
 438   0.0000       7.130015       194.0176 
 439   0.0000       7.167344       195.0333 
 440   0.0000       7.204317       196.0394 
 441   0.0000       7.221454       196.5057 
 442   0.0000       7.317319       199.1144 
 443   0.0000       7.394690       201.2197 
 444   0.0000       7.422382       201.9733 
 445   0.0000       7.431314       202.2163 
 446   0.0000       7.571666       206.0355 
 447   0.0000       7.658591       208.4008 
 448   0.0000       7.672641       208.7832 
 449   0.0000       7.688255       209.2081 
 450   0.0000       7.772380       211.4972 
 451   0.0000       7.798558       212.2096 
 452   0.0000       7.832154       213.1237 
 453   0.0000       7.864696       214.0093 
 454   0.0000       7.878570       214.3868 
 455   0.0000       7.913632       215.3409 
 456   0.0000       7.938377       216.0142 
 457   0.0000       7.952760       216.4056 
 458   0.0000       7.965097       216.7413 
 459   0.0000       8.126170       221.1243 
 460   0.0000       8.139311       221.4819 
 461   0.0000       8.286857       225.4969 
 462   0.0000       8.308720       226.0918 
 463   0.0000       8.399549       228.5634 
 464   0.0000       8.513840       231.6734 
 465   0.0000       8.540230       232.3915 
 466   0.0000       8.575848       233.3607 
 467   0.0000       8.604832       234.1494 
 468   0.0000       8.620336       234.5713 
 469   0.0000       8.685431       236.3426 
 470   0.0000       8.693518       236.5626 
 471   0.0000       8.897370       242.1097 
 472   0.0000       8.927702       242.9351 
 473   0.0000       8.944004       243.3787 
 474   0.0000       8.964768       243.9437 
 475   0.0000       9.032272       245.7806 
 476   0.0000       9.068005       246.7530 
 477   0.0000       9.079954       247.0781 
 478   0.0000       9.160891       249.2805 
 479   0.0000       9.211986       250.6709 
 480   0.0000       9.218260       250.8416 
 481   0.0000       9.265018       252.1140 
 482   0.0000       9.308090       253.2860 
 483   0.0000       9.364998       254.8346 
 484   0.0000       9.464062       257.5302 
 485   0.0000       9.481229       257.9973 
 486   0.0000       9.619569       261.7618 
 487   0.0000       9.629615       262.0351 
 488   0.0000       9.668100       263.0824 
 489   0.0000       9.801432       266.7105 
 490   0.0000       9.815697       267.0987 
 491   0.0000       9.912584       269.7351 
 492   0.0000       9.973565       271.3945 
 493   0.0000       9.996932       272.0304 
 494   0.0000      10.101145       274.8661 
 495   0.0000      10.144505       276.0460 
 496   0.0000      10.182719       277.0859 
 497   0.0000      10.212129       277.8862 
 498   0.0000      10.316888       280.7368 
 499   0.0000      10.330060       281.0952 
 500   0.0000      10.390700       282.7453 
 501   0.0000      10.738791       292.2174 
 502   0.0000      10.756304       292.6939 
 503   0.0000      10.795507       293.7607 
 504   0.0000      10.799378       293.8660 
 505   0.0000      10.844597       295.0965 
 506   0.0000      10.849030       295.2171 
 507   0.0000      10.857940       295.4596 
 508   0.0000      10.899175       296.5816 
 509   0.0000      10.913767       296.9787 
 510   0.0000      10.953624       298.0633 
 511   0.0000      10.959852       298.2327 
 512   0.0000      10.981089       298.8106 
 513   0.0000      11.007109       299.5187 
 514   0.0000      11.016585       299.7765 
 515   0.0000      11.040199       300.4191 
 516   0.0000      11.054051       300.7960 
 517   0.0000      11.062594       301.0285 
 518   0.0000      11.088899       301.7443 
 519   0.0000      11.098585       302.0079 
 520   0.0000      11.110472       302.3313 
 521   0.0000      11.115313       302.4630 
 522   0.0000      11.131359       302.8997 
 523   0.0000      11.144064       303.2454 
 524   0.0000      11.164221       303.7939 
 525   0.0000      11.174091       304.0625 
 526   0.0000      11.194433       304.6160 
 527   0.0000      11.270038       306.6733 
 528   0.0000      11.275819       306.8306 
 529   0.0000      11.382069       309.7219 
 530   0.0000      11.432260       311.0876 
 531   0.0000      11.456471       311.7464 
 532   0.0000      11.481696       312.4328 
 533   0.0000      11.610495       315.9376 
 534   0.0000      11.639278       316.7208 
 535   0.0000      11.705220       318.5152 
 536   0.0000      11.736068       319.3546 
 537   0.0000      11.791686       320.8681 
 538   0.0000      11.895603       323.6958 
 539   0.0000      11.955979       325.3387 
 540   0.0000      11.983417       326.0854 
 541   0.0000      12.029786       327.3471 
 542   0.0000      12.067842       328.3827 
 543   0.0000      12.083981       328.8219 
 544   0.0000      12.116964       329.7194 
 545   0.0000      12.119221       329.7808 
 546   0.0000      12.180451       331.4469 
 547   0.0000      12.207790       332.1909 
 548   0.0000      12.269548       333.8714 
 549   0.0000      12.292546       334.4972 
 550   0.0000      12.299585       334.6887 
 551   0.0000      12.378851       336.8457 
 552   0.0000      12.414561       337.8174 
 553   0.0000      12.498164       340.0923 
 554   0.0000      12.522648       340.7586 
 555   0.0000      12.782591       347.8320 
 556   0.0000      12.802059       348.3617 
 557   0.0000      12.829089       349.0973 
 558   0.0000      12.920085       351.5734 
 559   0.0000      12.962569       352.7294 
 560   0.0000      12.975134       353.0713 
 561   0.0000      13.025973       354.4547 
 562   0.0000      13.159819       358.0969 
 563   0.0000      13.180879       358.6699 
 564   0.0000      13.189323       358.8997 
 565   0.0000      13.240242       360.2853 
 566   0.0000      13.270408       361.1062 
 567   0.0000      13.287633       361.5749 
 568   0.0000      13.331587       362.7709 
 569   0.0000      13.377471       364.0195 
 570   0.0000      13.418156       365.1266 
 571   0.0000      13.443730       365.8225 
 572   0.0000      13.482649       366.8815 
 573   0.0000      13.517215       367.8221 
 574   0.0000      13.583928       369.6375 
 575   0.0000      13.619983       370.6186 
 576   0.0000      13.648819       371.4032 
 577   0.0000      14.126519       384.4021 
 578   0.0000      14.190716       386.1490 
 579   0.0000      14.494797       394.4235 
 580   0.0000      14.592669       397.0867 
 581   0.0000      14.690885       399.7593 
 582   0.0000      17.076539       464.6762 
 583   0.0000      26.008084       707.7159 
 584   0.0000      28.789944       783.4142 
 585   0.0000      43.976693      1196.6667 
 586   0.0000      44.208270      1202.9682 
 587   0.0000      44.950214      1223.1575 
Total SCF time: 0 days 0 hours 47 min 36 sec 


           ************************************************************
           *        Program running with 4 parallel MPI-processes     *
           *              working on a common directory               *
           ************************************************************


------------------------------------------------------------------------------- 
                              ORCA-MATRIX DRIVEN CI                            
------------------------------------------------------------------------------- 


Wavefunction type
-----------------
Correlation treatment                      ...      CCSD     
Single excitations                         ... ON
Orbital optimization                       ... OFF
Calculation of Z vector                    ... OFF
Calculation of Brueckner orbitals          ... OFF
Perturbative triple excitations            ... ON
Calculation of F12 correction              ... OFF
Frozen core treatment                      ... chemical core (18 el)
Reference Wavefunction                     ... RHF
  Internal Orbitals:     9 ...   24 ( 16 MO's/ 32 electrons)
  Virtual  Orbitals:    25 ...  587 (563 MO's              )
Number of AO's                             ...    588
Number of electrons                        ...     50
Number of correlated electrons             ...     32

Algorithmic settings
--------------------
Integral transformation                    ... All integrals via the RI transformation
K(C) Formation                             ... RI-DLPNO
   PNO-Integral Storage                    ... ON DISK
   PNO occupation number cut-off           ... 1.000e-07
   Singles PNO occupation number cut-off   ... 3.000e-09
   PNO Mulliken prescreening cut-off       ... 1.000e-03
   Domain cut-off (Mulliken population)    ... 1.000e-03
   PNO Normalization                       ...    1
Maximum number of iterations               ...        50
Convergence tolerance (max. residuum)      ... 1.000e-05
Level shift for amplitude update           ... 2.000e-01
Maximum number of DIIS vectors             ...         7
DIIS turned on at iteration                ...         0
Damping before turning on DIIS             ...     0.500
Damping after turning on DIIS              ...     0.000
Pair specific amplitude update             ... OFF
Natural orbital iterations                 ... OFF
Perturbative natural orbital generation    ... OFF
Printlevel                                 ... 2

Singles Fock matrix elements calculated using PNOs.

Memory handling:
----------------
Maximum memory for working arrays          ...  50000 MB
Data storage in matrix containers          ... UNCOMPRESSED
Data type for integral storage             ... DOUBLE
In-Core Storage of quantities:
   Amplitudes+Sigma Vector      ... NO
   J+K operators                ... NO
   DIIS vectors                 ... NO
   3-external integrals         ... NO
   4-external integrals         ... NO

Localization treatment:
-----------------------
Localization option                        ...    6
Localization threshhold                    ... -1.0e+00
Using relative localization threshhold     ... 1.0e-08
Neglect threshold for strong pairs         ... 1.000e-05 Eh
Prescreening threshold for very weak pairs ... 1.000e-07 Eh

Initializing the integral package          ... done
Localizing the valence orbitals
------------------------------------------------------------------------------
                           ORCA ORBITAL LOCALIZATION
------------------------------------------------------------------------------

Input orbitals are from                  ... MsOH_dlpno-ccsdt_augqz.proc0.gbw
Output orbitals are to                   ... MsOH_dlpno-ccsdt_augqz.proc0.loc
Max. number of iterations                ... 128
Localizations seeded randomly            ... off
Convergence tolerance                    ... 1.000e-06
Using relative localization threshhold   ... 1.000e-08
Treshold for strong local MOs            ... 9.500e-01
Treshold for bond MOs                    ... 8.500e-01
Operator                                 ... 0
Orbital range for localization           ... 9 to 24
Localization criterion                   ... FOSTER-BOYS (AUGMENTED HESSIAN)
Doing the dipole integrals     ... o.k.
Initial value of the localization sum :   107.407499
ITERATION   0 : L=  135.4489485722 DL=  2.80e+01 (AVERGE_DL)=    0.4834032938 
ITERATION   1 : L=  137.9395606145 DL=  2.49e+00 (AVERGE_DL)=    0.1440663054 
ITERATION   2 : L=  138.0327153749 DL=  9.32e-02 (AVERGE_DL)=    0.0278619753 
ITERATION   3 : L=  138.0744618309 DL=  4.17e-02 (AVERGE_DL)=    0.0186517327 
ITERATION   4 : L=  138.0996996276 DL=  2.52e-02 (AVERGE_DL)=    0.0145022402 
ITERATION   5 : L=  138.1164771413 DL=  1.68e-02 (AVERGE_DL)=    0.0118242384 
ITERATION   6 : L=  138.1271439333 DL=  1.07e-02 (AVERGE_DL)=    0.0094281458 
ITERATION   7 : L=  138.1339224255 DL=  6.78e-03 (AVERGE_DL)=    0.0075158123 
ITERATION   8 : L=  138.1381394256 DL=  4.22e-03 (AVERGE_DL)=    0.0059280408 
ITERATION   9 : L=  138.1407217268 DL=  2.58e-03 (AVERGE_DL)=    0.0046388767 
ITERATION  10 : L=  138.1422802405 DL=  1.56e-03 (AVERGE_DL)=    0.0036038332 
ITERATION  11 : L=  138.1432110850 DL=  9.31e-04 (AVERGE_DL)=    0.0027851459 
ITERATION  12 : L=  138.1437628899 DL=  5.52e-04 (AVERGE_DL)=    0.0021443820 
ITERATION  13 : L=  138.1440883349 DL=  3.25e-04 (AVERGE_DL)=    0.0016468277 
ITERATION  14 : L=  138.1442796294 DL=  1.91e-04 (AVERGE_DL)=    0.0012625852 
ITERATION  15 : L=  138.1443918279 DL=  1.12e-04 (AVERGE_DL)=    0.0009669474 
ITERATION  16 : L=  138.1444575549 DL=  6.57e-05 (AVERGE_DL)=    0.0007400845 
ITERATION  17 : L=  138.1444960369 DL=  3.85e-05 (AVERGE_DL)=    0.0005662888 
ITERATION  18 : L=  138.1445185656 DL=  2.25e-05 (AVERGE_DL)=    0.0004332894 
ITERATION  19 : L=  138.1445317582 DL=  1.32e-05 (AVERGE_DL)=    0.0003315692 
ITERATION  20 : L=  138.1445394899 DL=  7.73e-06 (AVERGE_DL)=    0.0002538318 
ITERATION  21 : L=  138.1445440241 DL=  4.53e-06 (AVERGE_DL)=    0.0001943833 
ITERATION  22 : L=  138.1445466861 DL=  2.66e-06 (AVERGE_DL)=    0.0001489420 
ITERATION  23 : L=  138.1445482508 DL=  1.56e-06 (AVERGE_DL)=    0.0001141901 
ITERATION  24 : L=  138.1445491708 DL=  9.20e-07 (AVERGE_DL)=    0.0000875566 
LOCALIZATION SUM CONVERGED

------------------------------------------------------
AUGMENTED HESSIAN OPTIMIZATION OF FOSTER-BOYS ORBITALS
------------------------------------------------------

Spin operator:           0
Orbital window:          9 to 24
Number of iterations:    128
Gradient tolerance:      1.000e-06
Number of pairs:         120
Davidson threshold:      2000
Diagonalization method:  LAPACK
Iter:    0   L: 138.1445491708   Grad. norm: 1.451049e-03
   *** Likely close to a maximum now. ***
       Augmented Hessian eigenvalues:  2.65e-06 -2.28e-01 -3.47e-01 -4.12e-01 ... 
Iter:    1   L: 138.1445504972   Grad. norm: 4.711094e-06
Iter:    2   L: 138.1445504972   Grad. norm: 3.474569e-12
LOCALIZATION HAS CONVERGED.

Eigenvalues of the Hessian:
  0 -2.274e-01
  1 -3.471e-01
  2 -4.117e-01
  3 -4.348e-01
  4 -4.819e-01
  5 -6.164e-01
  6 -1.049e+00
  7 -3.074e+00
  8 -3.623e+00
  9 -3.783e+00
    ...


------------------------------------------------------------------------------- 
                    LOCALIZED MOLECULAR ORBITAL COMPOSITIONS                   
------------------------------------------------------------------------------- 

The Mulliken populations for each LMO on each atom are computed
The LMO`s will be ordered according to atom index and type
  (A) Strongly localized MO`s have populations of >=0.950 on one atom
  (B) Two center bond orbitals have populations of >=0.850 on two atoms
  (C) Other MO`s are considered to be `delocalized`

FOUND  -   8 strongly local MO`s
       -   8 two center bond MO`s
       -   0 significantly delocalized MO`s

Rather strongly localized orbitals:
MO  16:   8O  -   1.007557
MO  15:   8O  -   1.033854
MO  14:   7O  -   0.958593
MO  13:   7O  -   0.992300
MO  12:   7O  -   0.985407
MO  11:   6O  -   0.982230
MO  10:   6O  -   0.994896
MO   9:   6O  -   0.974323
Bond-like localized orbitals:
MO  24:   8O  -   0.736749  and   5S  -   0.283258
MO  23:   8O  -   0.656263  and   0H  -   0.338892
MO  22:   7O  -   0.660102  and   5S  -   0.362707
MO  21:   6O  -   0.651289  and   5S  -   0.373528
MO  20:   5S  -   0.559067  and   1C  -   0.508838
MO  19:   4H  -   0.281147  and   1C  -   0.671996
MO  18:   3H  -   0.289222  and   1C  -   0.673982
MO  17:   2H  -   0.286181  and   1C  -   0.679524
Localized MO's were stored in: MsOH_dlpno-ccsdt_augqz.proc0.loc

Localizing the core orbitals
------------------------------------------------------------------------------
                           ORCA ORBITAL LOCALIZATION
------------------------------------------------------------------------------

Input orbitals are from                  ... MsOH_dlpno-ccsdt_augqz.proc0.loc
Output orbitals are to                   ... MsOH_dlpno-ccsdt_augqz.proc0.loc
Max. number of iterations                ... 128
Localizations seeded randomly            ... off
Convergence tolerance                    ... 1.000e-06
Using relative localization threshhold   ... 1.000e-08
Treshold for strong local MOs            ... 9.500e-01
Treshold for bond MOs                    ... 8.500e-01
Operator                                 ... 0
Orbital range for localization           ... 0 to 8
Localization criterion                   ... FOSTER-BOYS (AUGMENTED HESSIAN)
Doing the dipole integrals     ... o.k.
Initial value of the localization sum :    36.393206
ITERATION   0 : L=   36.5451090213 DL=  1.52e-01 (AVERGE_DL)=    0.0649578324 
ITERATION   1 : L=   36.5941425664 DL=  4.90e-02 (AVERGE_DL)=    0.0369058657 
ITERATION   2 : L=   36.5993807590 DL=  5.24e-03 (AVERGE_DL)=    0.0120625599 
ITERATION   3 : L=   36.5995998419 DL=  2.19e-04 (AVERGE_DL)=    0.0024669081 
ITERATION   4 : L=   36.5996233510 DL=  2.35e-05 (AVERGE_DL)=    0.0008081032 
ITERATION   5 : L=   36.5996248816 DL=  1.53e-06 (AVERGE_DL)=    0.0002061950 
ITERATION   6 : L=   36.5996249689 DL=  8.73e-08 (AVERGE_DL)=    0.0000492330 
LOCALIZATION SUM CONVERGED

------------------------------------------------------
AUGMENTED HESSIAN OPTIMIZATION OF FOSTER-BOYS ORBITALS
------------------------------------------------------

Spin operator:           0
Orbital window:          0 to 8
Number of iterations:    128
Gradient tolerance:      1.000e-06
Number of pairs:         36
Davidson threshold:      2000
Diagonalization method:  LAPACK
Iter:    0   L: 36.5996249689   Grad. norm: 1.104863e-04
Iter:    1   L: 36.5996295027   Grad. norm: 5.626176e-05
Iter:    2   L: 36.5996305950   Grad. norm: 9.047780e-06
Iter:    3   L: 36.5996306745   Grad. norm: 1.042762e-06
   *** Likely close to a maximum now. ***
       Augmented Hessian eigenvalues:  2.79e-09 -1.80e-05 -2.26e-04 -4.46e-04 ... 
Iter:    4   L: 36.5996306760   Grad. norm: 2.806469e-08
LOCALIZATION HAS CONVERGED.

Eigenvalues of the Hessian:
  0 -1.729e-05
  1 -2.269e-04
  2 -4.454e-04
  3 -1.375e-01
  4 -1.376e-01
  5 -1.378e-01
  6 -4.128e-01
  7 -5.501e-01
  8 -5.504e-01
  9 -5.512e-01
    ...


------------------------------------------------------------------------------- 
                    LOCALIZED MOLECULAR ORBITAL COMPOSITIONS                   
------------------------------------------------------------------------------- 

The Mulliken populations for each LMO on each atom are computed
The LMO`s will be ordered according to atom index and type
  (A) Strongly localized MO`s have populations of >=0.950 on one atom
  (B) Two center bond orbitals have populations of >=0.850 on two atoms
  (C) Other MO`s are considered to be `delocalized`

FOUND  -   9 strongly local MO`s
       -   0 two center bond MO`s
       -   0 significantly delocalized MO`s

Rather strongly localized orbitals:
MO   8:   8O  -   1.000075
MO   7:   7O  -   1.000566
MO   6:   6O  -   1.000552
MO   5:   5S  -   0.999769
MO   4:   5S  -   0.999992
MO   3:   5S  -   0.999179
MO   2:   5S  -   0.999516
MO   1:   5S  -   0.999477
MO   0:   1C  -   0.998084
Localized MO's were stored in: MsOH_dlpno-ccsdt_augqz.proc0.loc

Warning: internal orbitals are localized - no re-canonicalization of internal orbitals

--------------------------
CLOSED-SHELL FOCK OPERATOR
--------------------------

<ss|ss>:       770661 b        77489 skpd ( 10.1%)    0.274 s ( 0.000 ms/b)
<ss|sp>:      2532881 b       258684 skpd ( 10.2%)    1.358 s ( 0.001 ms/b)
<ss|sd>:      1926032 b       216183 skpd ( 11.2%)    0.961 s ( 0.001 ms/b)
<ss|sf>:      1379992 b       139323 skpd ( 10.1%)    0.980 s ( 0.001 ms/b)
<ss|sg>:       622982 b        80899 skpd ( 13.0%)    0.590 s ( 0.001 ms/b)
<ss|pp>:      1083393 b       102358 skpd (  9.4%)    0.555 s ( 0.001 ms/b)
<ss|pd>:      1602131 b       159503 skpd ( 10.0%)    0.859 s ( 0.001 ms/b)
<ss|pf>:      1155371 b       110896 skpd (  9.6%)    0.921 s ( 0.001 ms/b)
<ss|pg>:       516256 b        60332 skpd ( 11.7%)    0.631 s ( 0.001 ms/b)
<ss|dd>:       627946 b        66532 skpd ( 10.6%)    0.407 s ( 0.001 ms/b)
<ss|df>:       883592 b       100508 skpd ( 11.4%)    0.852 s ( 0.001 ms/b)
<ss|dg>:       393397 b        49687 skpd ( 12.6%)    0.528 s ( 0.002 ms/b)
<ss|ff>:       337552 b        41784 skpd ( 12.4%)    0.487 s ( 0.002 ms/b)
<ss|fg>:       281707 b        29988 skpd ( 10.6%)    0.718 s ( 0.003 ms/b)
<ss|gg>:        68255 b         5446 skpd (  8.0%)    0.251 s ( 0.004 ms/b)
<sp|sp>:      2083861 b       212233 skpd ( 10.2%)    0.957 s ( 0.001 ms/b)
<sp|sd>:      3167632 b       357620 skpd ( 11.3%)    1.678 s ( 0.001 ms/b)
<sp|sf>:      2269592 b       225804 skpd (  9.9%)    1.801 s ( 0.001 ms/b)
<sp|sg>:      1024582 b       131939 skpd ( 12.9%)    1.257 s ( 0.001 ms/b)
<sp|pp>:      1781793 b       164958 skpd (  9.3%)    1.131 s ( 0.001 ms/b)
<sp|pd>:      2634931 b       256015 skpd (  9.7%)    2.310 s ( 0.001 ms/b)
<sp|pf>:      1900171 b       174183 skpd (  9.2%)    2.550 s ( 0.001 ms/b)
<sp|pg>:       849056 b        96982 skpd ( 11.4%)    1.640 s ( 0.002 ms/b)
<sp|dd>:      1032746 b       106665 skpd ( 10.3%)    1.267 s ( 0.001 ms/b)
<sp|df>:      1453192 b       160360 skpd ( 11.0%)    2.690 s ( 0.002 ms/b)
<sp|dg>:       646997 b        79945 skpd ( 12.4%)    1.658 s ( 0.003 ms/b)
<sp|ff>:       555152 b        67186 skpd ( 12.1%)    1.610 s ( 0.003 ms/b)
<sp|fg>:       463307 b        46054 skpd (  9.9%)    2.023 s ( 0.005 ms/b)
<sp|gg>:       112255 b         8341 skpd (  7.4%)    0.858 s ( 0.008 ms/b)
<sd|sd>:      1205128 b       153550 skpd ( 12.7%)    0.936 s ( 0.001 ms/b)
<sd|sf>:      1725824 b       202406 skpd ( 11.7%)    2.133 s ( 0.001 ms/b)
<sd|sg>:       779104 b       112805 skpd ( 14.5%)    1.471 s ( 0.002 ms/b)
<sd|pp>:      1354896 b       140127 skpd ( 10.3%)    1.393 s ( 0.001 ms/b)
<sd|pd>:      2003632 b       226190 skpd ( 11.3%)    2.945 s ( 0.002 ms/b)
<sd|pf>:      1444912 b       156076 skpd ( 10.8%)    3.317 s ( 0.003 ms/b)
<sd|pg>:       645632 b        84264 skpd ( 13.1%)    2.350 s ( 0.004 ms/b)
<sd|dd>:       785312 b        97258 skpd ( 12.4%)    1.753 s ( 0.003 ms/b)
<sd|df>:      1105024 b       143672 skpd ( 13.0%)    3.919 s ( 0.004 ms/b)
<sd|dg>:       491984 b        72398 skpd ( 14.7%)    2.479 s ( 0.006 ms/b)
<sd|ff>:       422144 b        60400 skpd ( 14.3%)    2.436 s ( 0.007 ms/b)
<sd|fg>:       352304 b        45739 skpd ( 13.0%)    3.010 s ( 0.010 ms/b)
<sd|gg>:        85360 b         8125 skpd (  9.5%)    1.251 s ( 0.016 ms/b)
<sf|sf>:       618828 b        67910 skpd ( 11.0%)    1.455 s ( 0.003 ms/b)
<sf|sg>:       558224 b        77145 skpd ( 13.8%)    2.485 s ( 0.005 ms/b)
<sf|pp>:       970776 b        87240 skpd (  9.0%)    1.812 s ( 0.002 ms/b)
<sf|pd>:      1435592 b       144924 skpd ( 10.1%)    4.065 s ( 0.003 ms/b)
<sf|pf>:      1035272 b       101602 skpd (  9.8%)    5.396 s ( 0.006 ms/b)
<sf|pg>:       462592 b        56082 skpd ( 12.1%)    3.874 s ( 0.010 ms/b)
<sf|dd>:       562672 b        65170 skpd ( 11.6%)    2.607 s ( 0.005 ms/b)
<sf|df>:       791744 b        97713 skpd ( 12.3%)    5.787 s ( 0.008 ms/b)
<sf|dg>:       352504 b        50682 skpd ( 14.4%)    3.662 s ( 0.012 ms/b)
<sf|ff>:       302464 b        41866 skpd ( 13.8%)    3.637 s ( 0.014 ms/b)
<sf|fg>:       252424 b        33695 skpd ( 13.3%)    4.480 s ( 0.020 ms/b)
<sf|gg>:        61160 b         5718 skpd (  9.3%)    1.783 s ( 0.032 ms/b)
<sg|sg>:       126253 b        20919 skpd ( 16.6%)    1.231 s ( 0.012 ms/b)
<sg|pp>:       438246 b        52069 skpd ( 11.9%)    1.458 s ( 0.004 ms/b)
<sg|pd>:       648082 b        83615 skpd ( 12.9%)    3.671 s ( 0.007 ms/b)
<sg|pf>:       467362 b        58991 skpd ( 12.6%)    4.459 s ( 0.011 ms/b)
<sg|pg>:       208832 b        30797 skpd ( 14.7%)    3.461 s ( 0.019 ms/b)
<sg|dd>:       254012 b        36659 skpd ( 14.4%)    2.057 s ( 0.009 ms/b)
<sg|df>:       357424 b        53941 skpd ( 15.1%)    4.646 s ( 0.015 ms/b)
<sg|dg>:       159134 b        27247 skpd ( 17.1%)    3.036 s ( 0.023 ms/b)
<sg|ff>:       136544 b        22636 skpd ( 16.6%)    2.946 s ( 0.026 ms/b)
<sg|fg>:       113954 b        18878 skpd ( 16.6%)    3.785 s ( 0.040 ms/b)
<sg|gg>:        27610 b         3364 skpd ( 12.2%)    1.447 s ( 0.060 ms/b)
<pp|pp>:       381501 b        31132 skpd (  8.2%)    0.494 s ( 0.001 ms/b)
<pp|pd>:      1127043 b        96585 skpd (  8.6%)    2.179 s ( 0.002 ms/b)
<pp|pf>:       812763 b        65787 skpd (  8.1%)    2.396 s ( 0.003 ms/b)
<pp|pg>:       363168 b        37563 skpd ( 10.3%)    1.635 s ( 0.005 ms/b)
<pp|dd>:       441738 b        40844 skpd (  9.2%)    1.313 s ( 0.003 ms/b)
<pp|df>:       621576 b        61854 skpd ( 10.0%)    2.936 s ( 0.005 ms/b)
<pp|dg>:       276741 b        31025 skpd ( 11.2%)    1.807 s ( 0.007 ms/b)
<pp|ff>:       237456 b        26109 skpd ( 11.0%)    1.800 s ( 0.009 ms/b)
<pp|fg>:       198171 b        17683 skpd (  8.9%)    2.262 s ( 0.013 ms/b)
<pp|gg>:        48015 b         3163 skpd (  6.6%)    0.873 s ( 0.019 ms/b)
<pd|pd>:       833986 b        79032 skpd (  9.5%)    2.841 s ( 0.004 ms/b)
<pd|pf>:      1201921 b       108393 skpd (  9.0%)    6.829 s ( 0.006 ms/b)
<pd|pg>:       537056 b        60900 skpd ( 11.3%)    4.437 s ( 0.009 ms/b)
<pd|dd>:       653246 b        69641 skpd ( 10.7%)    3.745 s ( 0.006 ms/b)
<pd|df>:       919192 b       103848 skpd ( 11.3%)    8.060 s ( 0.010 ms/b)
<pd|dg>:       409247 b        53581 skpd ( 13.1%)    4.906 s ( 0.014 ms/b)
<pd|ff>:       351152 b        44581 skpd ( 12.7%)    4.821 s ( 0.016 ms/b)
<pd|fg>:       293057 b        33233 skpd ( 11.3%)    5.939 s ( 0.023 ms/b)
<pd|gg>:        71005 b         5729 skpd (  8.1%)    2.272 s ( 0.035 ms/b)
<pf|pf>:       433846 b        37648 skpd (  8.7%)    4.482 s ( 0.011 ms/b)
<pf|pg>:       387296 b        42631 skpd ( 11.0%)    6.107 s ( 0.018 ms/b)
<pf|dd>:       471086 b        49454 skpd ( 10.5%)    4.699 s ( 0.011 ms/b)
<pf|df>:       662872 b        73847 skpd ( 11.1%)   10.339 s ( 0.018 ms/b)
<pf|dg>:       295127 b        39196 skpd ( 13.3%)    6.137 s ( 0.024 ms/b)
<pf|ff>:       253232 b        32510 skpd ( 12.8%)    6.196 s ( 0.028 ms/b)
<pf|fg>:       211337 b        26041 skpd ( 12.3%)    7.339 s ( 0.040 ms/b)
<pf|gg>:        51205 b         4267 skpd (  8.3%)    2.801 s ( 0.060 ms/b)
<pg|pg>:        86736 b        11365 skpd ( 13.1%)    2.338 s ( 0.031 ms/b)
<pg|dd>:       210496 b        27138 skpd ( 12.9%)    3.169 s ( 0.017 ms/b)
<pg|df>:       296192 b        39740 skpd ( 13.4%)    6.997 s ( 0.027 ms/b)
<pg|dg>:       131872 b        20567 skpd ( 15.6%)    4.437 s ( 0.040 ms/b)
<pg|ff>:       113152 b        17063 skpd ( 15.1%)    4.279 s ( 0.045 ms/b)
<pg|fg>:        94432 b        14057 skpd ( 14.9%)    5.186 s ( 0.065 ms/b)
<pg|gg>:        22880 b         2402 skpd ( 10.5%)    2.026 s ( 0.099 ms/b)
<dd|dd>:       128271 b        15858 skpd ( 12.4%)    1.338 s ( 0.012 ms/b)
<dd|df>:       360272 b        47433 skpd ( 13.2%)    5.699 s ( 0.018 ms/b)
<dd|dg>:       160402 b        24576 skpd ( 15.3%)    3.433 s ( 0.025 ms/b)
<dd|ff>:       137632 b        20292 skpd ( 14.7%)    3.423 s ( 0.029 ms/b)
<dd|fg>:       114862 b        16334 skpd ( 14.2%)    4.063 s ( 0.041 ms/b)
<dd|gg>:        27830 b         2847 skpd ( 10.2%)    1.580 s ( 0.063 ms/b)
<df|df>:       253828 b        35283 skpd ( 13.9%)    6.630 s ( 0.030 ms/b)
<df|dg>:       225704 b        36481 skpd ( 16.2%)    8.036 s ( 0.042 ms/b)
<df|ff>:       193664 b        30153 skpd ( 15.6%)    8.083 s ( 0.049 ms/b)
<df|fg>:       161624 b        25508 skpd ( 15.8%)    9.414 s ( 0.069 ms/b)
<df|gg>:        39160 b         4477 skpd ( 11.4%)    3.684 s ( 0.106 ms/b)
<dg|dg>:        50403 b         9377 skpd ( 18.6%)    2.653 s ( 0.065 ms/b)
<dg|ff>:        86224 b        15311 skpd ( 17.8%)    5.191 s ( 0.073 ms/b)
<dg|fg>:        71959 b        13292 skpd ( 18.5%)    6.205 s ( 0.106 ms/b)
<dg|gg>:        17435 b         2420 skpd ( 13.9%)    2.424 s ( 0.161 ms/b)
<ff|ff>:        37128 b         6336 skpd ( 17.1%)    2.827 s ( 0.092 ms/b)
<ff|fg>:        61744 b        10823 skpd ( 17.5%)    6.783 s ( 0.133 ms/b)
<ff|gg>:        14960 b         1940 skpd ( 13.0%)    2.666 s ( 0.205 ms/b)
<fg|fg>:        25878 b         4816 skpd ( 18.6%)    4.444 s ( 0.211 ms/b)
<fg|gg>:        12485 b         1764 skpd ( 14.1%)    3.341 s ( 0.312 ms/b)
<gg|gg>:         1540 b          157 skpd ( 10.2%)    0.847 s ( 0.613 ms/b)
Time needed for Fock operator              ...          367.530 sec
Reference energy                           ...   -662.427124443

--------------
DLPNO SETTINGS (2015 fully linear scaling implementation)
--------------

TCutMKN:           1.000e-03
TCutPAO:           1.000e-03
TCutPNO:           1.000e-07
TCutPNOSingles:    3.000e-09
TCutEN:            9.700e-01
TCutPAOExt:        1.000e-01
TCutPairs:         1.000e-05
TCutPre:           1.000e-07
TCutOSV:           1.000e-06
TCutDOij:          1.000e-05
TCutDO:            5.000e-03
TCutC:             1.000e-04
TCutCPAO:          1.000e-03
TCutCMO:           1.000e-03
TScaleDOMP2PreScr: 2.000e+00
TScaleMKNMP2PreScr:1.000e+01
TScalePNOMP2PreScr:1.000e+00
PAO overlap thresh 1.000e-08
Using PNOs for Singles Fock computation
Use new domains
Use fully linear algorithm
TCutTNO:           1.000e-09
TCutMP2Pairs:      1.000e-06
TCutDOStrong:      2.000e-03
TCutMKNStrong:     1.000e-02
TCutMKNWeak:       1.000e-01
TCutDOWeak:        4.000e-03
NTCutTNO:          1

--------------------------
Calculating differential overlap integrals ... ok
--------------------------
ELECTRON PAIR PRESCREENING
--------------------------

Dipole-based pair screening          .... used

   TCutDOij = 1.000000e-05
   TCutPre  = 1.000000e-07
   .... Finished loop over pairs
Total time spent in the prescreening                  ...     0.015 sec
sum of pair energies estimated for screened out pairs ...       0.000000000000 Eh
Thresholds for map construction and integral transformation for crude MP2:
   TCutMKN                    ...     1.0e-02
   TCutDO                     ...     1.0e-02
   TCutPairs                  ...     1.0e-05
   TCutPNO_CrudeMP2           ...     1.0e-07
   TCutPNOSingles_CrudeMP2    ...     3.0e-09
--------------------------------
LOCAL RI TRANSFORMATION (IAVPAO)
--------------------------------

Orbital window:       9 to 24
Number of PAOs:     588
Basis functions:    588 (158 shells)
Aux. functions:    1186 (268 shells)

Processing maps (0.0 sec)
Average map sizes:
   Aux shells -> MOs              16.0
   Aux shells -> PAOs            588.0
   MOs        -> AO shells       158.0
   PAOs       -> AO shells       158.0

Calculating integrals (6.4 sec, 85.142 MB)
Sorting integrals (0.5 sec, 85.128 MB)
Total time for the integral transformation: 7.1 sec
--------------------------------
INITIAL GUESS AND PNO GENERATION
--------------------------------

PNO truncation parameters                   .... 
    PAOOverlapThresh   =        1.000e-08

    TCutPairs          =        1.000e-05
    TCutPNO            =        1.000e-07
    TCutPNOSingles     =        3.000e-09
    TCutMP2Pairs       =        1.000e-06
    TCutMKN            =        1.000e-02
    TCutDO             =        1.000e-02

Pair selection                          .... not used
Type of local MP2 treatment                 .... semi-local MP2
Strategy for PNO selection                  .... occupation number selection
Pair density normalization                  .... MP2 norm
Spin component scaling                      .... not used

   .... Finished loop over pairs
Making pair pair interaction lists          ... done

                       ===========================
                        136 OF  136 PAIRS ARE KEPT CCSD PAIRS
                          0 OF  136 PAIRS ARE KEPT MP2 PAIRS FOR (T)
                          0 OF  136 PAIRS ARE SKIPPED
                       ===========================

Total time spent in the initial guess                 ...    24.904 sec
SL-MP2 correlation energy (all non-screened pairs)    ...      -1.139952363023 Eh

Initial PNO correlation energy                        ...      -1.137980742698 Eh
sum of pair energies prescreened and skipped MP2 pairs...       0.000000000000 Eh
sum of pair energies of crude MP2 skipped pairs only  ...       0.000000000000 Eh
sum of MP2 pair energies for pairs that were not kept ...       0.000000000000 Eh
sum of PNO error estimates for the kept pairs         ...      -0.001971620325 Eh
                                                          --------------------
sum of all corrections                                         -0.001971620325
Initial total correlation energy                               -1.139952363023
Thresholds for map construction and integral transformation for fine MP2 and CCSD(T) calculation:
   TCutMKN   ...     1.0e-03
   TCutDO    ...     5.0e-03
   TCutPairs ...     1.0e-05
   TCutCMO   ...     1.0e-03
   TCutCPAO  ...     1.0e-03

Thresholds for map construction and integral transformation for strong Triples:
   TCutMKN   ...     1.0e-02
   TCutDO    ...     1.0e-02
   TCutCMO   ...     1.0e-03
   TCutCPAO  ...     1.0e-03

Thresholds for map construction and integral transformation for weak Triples:
   TCutMKN   ...     1.0e-01
   TCutDO    ...     2.0e-02
   TCutCMO   ...     1.0e-03
   TCutCPAO  ...     1.0e-03

--------------------------------
LOCAL RI TRANSFORMATION (IAVPAO)
--------------------------------

Orbital window:       9 to 24
Number of PAOs:     588
Basis functions:    588 (158 shells)
Aux. functions:    1186 (268 shells)

Processing maps (0.0 sec)
Average map sizes:
   Aux shells -> MOs              16.0
   Aux shells -> PAOs            588.0
   MOs        -> AO shells       158.0
   PAOs       -> AO shells       158.0

Calculating integrals (6.3 sec, 85.142 MB)
Sorting integrals (0.5 sec, 85.128 MB)
Total time for the integral transformation: 6.9 sec
--------------------------------
INITIAL GUESS AND PNO GENERATION
--------------------------------

PNO truncation parameters                   .... 
    ScaleTCutPNO       =        1.000e-02
    PAOOverlapThresh   =        1.000e-08

    TCutPairs          =        1.000e-05
    TCutPNO            =        1.000e-07
    TCutPNOSingles     =        3.000e-09
    TCutMP2Pairs       =        1.000e-06
    TCutMKN            =        1.000e-03
    TCutDO             =        5.000e-03

Pair selection                          .... not used
Type of local MP2 treatment                 .... full local PMP2
Strategy for PNO selection                  .... occupation number selection
Pair density normalization                  .... MP2 norm
Spin component scaling                      .... not used

PASS-1: Formation of initial guess LMP2 amplitudes
Initial amplitudes guess done. Entering LMP2 iteration loop:
   Max. no of iterations          ...  50
   Energy convergence tolerance   ...    1.0e-07
   Residual convergence tolerance ...    5.0e-07
   Fock matrix cutoff             ...    1.0e-05 Eh
   DIIS convergence acceleration parameters:
        Max # vectors in DIIS     ... 7
        Start iteration of DIIS   ... 0
        Levelshift                ... 2.000e-01
        Damping factor 1          ... 5.000e-01
        Damping factor 2          ... 1.000e+00
   L-MP2 PNO cut-off              ...   1.0e-09
   L-MP2 PNO cut-off (core)       ...   1.0e-11
                           *** Turning on DIIS ***
LMP2-Iter=   0:  ELMP2= -1.169980657848  DE=   3.0e-02 RMAX=   7.6e-03
LMP2-Iter=   1:  ELMP2= -1.183840595510  DE=   1.4e-02 RMAX=   3.7e-03
LMP2-Iter=   2:  ELMP2= -1.186300548000  DE=   2.5e-03 RMAX=   8.2e-04
LMP2-Iter=   3:  ELMP2= -1.186666462286  DE=   3.7e-04 RMAX=   2.9e-04
LMP2-Iter=   4:  ELMP2= -1.186691443835  DE=   2.5e-05 RMAX=   4.4e-05
LMP2-Iter=   5:  ELMP2= -1.186689085087  DE=   2.4e-06 RMAX=   1.3e-05
LMP2-Iter=   6:  ELMP2= -1.186688518583  DE=   5.7e-07 RMAX=   2.1e-06
LMP2-Iter=   7:  ELMP2= -1.186688418579  DE=   1.0e-07 RMAX=   4.2e-07
LMP2-Iter=   8:  ELMP2= -1.186688424027  DE=   5.4e-09 RMAX=   1.3e-07
LMP2-Iter=   9:  ELMP2= -1.186688424046  DE=   1.9e-11 RMAX=   1.4e-08 => CONVERGED
PASS-2: Formation of Pair natural orbitals
   .... Finished loop over pairs

 PNO Occupation Number Statistics: 
  | Av. % of trace(Dij) retained        ...  99.686572724470
  | sigma^2 in % of trace(Dij) retained ...   6.88e-02
  | Av. % of trace(Di) retained         ...  99.999480409956
  | sigma^2 in % of trace(Di) retained  ...   1.87e-08
 Distributions of % trace(Dij) recovered:
  |       >= 99.9  ...    43 ( 31.6 % of all pairs)
  |   [99.0, 99.9) ...    93 ( 68.4 % of all pairs)
 Distributions of % trace(Di) recovered :
  |       >= 99.9  ...    16 (100.0 % of all I-pairs )

Making pair pair interaction lists          ... done

                       ===========================
                        136 OF  136 PAIRS ARE KEPT
                       ===========================

Total time spent in the initial guess                 ...   188.210 sec
L-MP2 correlation energy (all non-screened pairs)     ...      -1.186688424046 Eh
L-MP2 PNO error correction                            ...      -0.000044186418 Eh
                                                          --------------------
Initial total L-MP2 energy (non-screened pairs)       ...      -1.186732610464 Eh

Initial PNO correlation energy                        ...      -1.184793743478 Eh
sum of pair energies estimated for screened out pairs ...       0.000000000000 Eh
sum of MP2 pair energies for pairs that were not kept ...       0.000000000000 Eh
sum of PNO error estimates for the kept pairs         ...      -0.001938866986 Eh
                                                          --------------------
sum of all corrections                                         -0.001938866986
Initial total correlation energy                               -1.186732610464
Thresholds for map construction and integral transformation for fine MP2 and CCSD(T) calculation:
   TCutMKN   ...     1.0e-03
   TCutDO    ...     5.0e-03
   TCutPairs ...     1.0e-05
   TCutCMO   ...     1.0e-03
   TCutCPAO  ...     1.0e-03

Time for aux screen maps:            0.006
Time for maps after fine MP2:            0.020
-----------------------------
LOCAL RI TRANSFORMATION (IJV)
-----------------------------

Orbital window:       9 to 24
Basis functions:    588 (158 shells)
Aux. functions:    1186 (268 shells)

Processing maps (0.0 sec)
Average map sizes:
   Aux shells -> MOs(i)           16.0
   Aux shells -> MOs(j)           16.0
   MOs        -> AO shells       158.0

Calculating integrals (6.3 sec, 2.330 MB)
Sorting integrals (0.1 sec, 2.317 MB)
Total time for the integral transformation: 6.5 sec
--------------------------------
LOCAL RI TRANSFORMATION (VABPAO)
--------------------------------

Number of PAOs:     588
Basis functions:    588 (158 shells)
Aux. functions:    1186 (268 shells)

Processing maps (0.0 sec)
Average map sizes:
   Aux shells -> PAOs            588.0
   PAOs       -> AO shells       158.0

Calculating integrals (42.6 sec, 5563.181 MB)
Finished


-------------------------------------
Pair Pair Term precalculation with     
RI-(ij|mn) and (im|jn) transformation  
ON THE FLY                             
-------------------------------------

   IBatch   1 (of   1)              ... done (  721.075 sec)
Total EXT                           ...         721.075 sec

---------------------
RI-PNO TRANSFORMATION
---------------------

Total Number of PNOs                   ...  8317
Average number of PNOs per pair        ...    61
Maximal number of PNOs per pair        ...   102
   #pairs with  1 -  5 PNOs   :    0
   #pairs with  6 - 10 PNOs   :    0
   #pairs with 11 - 15 PNOs   :    0
   #pairs with 16 - 20 PNOs   :    0
   #pairs with 21 - 25 PNOs   :    0
   #pairs with 26 - 30 PNOs   :    3
   #pairs with 31 - 35 PNOs   :   13
   #pairs with 36 - 40 PNOs   :   13
   #pairs with 41 - 45 PNOs   :   19
   #pairs with 46 - 50 PNOs   :    7
   #pairs with 51 - 55 PNOs   :   10
   #pairs with 56 - 60 PNOs   :   11
   #pairs with 61 - 65 PNOs   :    6
   #pairs with 66 - 70 PNOs   :    6
   #pairs with 71 - 75 PNOs   :    4
   #pairs with 76 - 80 PNOs   :    8
   #pairs with 81 - 85 PNOs   :    9
   #pairs with 91 - 95 PNOs   :   20
   #pairs with > 96 PNOs      :    7

Generation of (ij|ab)[P] integrals            ... on
Generation of (ia|bc)[P],(ja|bc)[P] integrals ... on
Storage of 3 and 4 external integrals         ... on
Generation of ALL (ka|bc)[P] integrals        ... on
Keep RI integrals in memory                   ... off

Ibatch:  1 (of  1)
Starting 2-4 index PNO integral generation ... done

Timings:
Total PNO integral transformation time     ...        436.208 sec
Size of the 3-external file                ...       339 MB
Size of the 4-external file                ...      3497 MB
Size of the IKJL file                      ...         0 MB
Size of the all 3-external file            ...      2712 MB
Size of the 1-external file                ...         3 MB

Making pair/pair overlap matrices          ... done (   21.525 sec)
Size of the pair overlap file              ... 426 MB
Redoing the guess amplitudes               ... done (    0.029 sec)

-------------------------
FINAL STARTUP INFORMATION
-------------------------

E(0)                                       ...   -662.427124443
E(L-MP2)                                   ...     -1.186732610
E(L-MP2) including corrections             ...     -1.186732610
Initial E(tot)                             ...   -663.613857053
<T|T>                                      ...      0.272425298
Number of pairs included                   ... 136
Total number of pairs                      ... 136

------------------------------------------------
                  RHF COUPLED CLUSTER ITERATIONS
------------------------------------------------

Number of PNO amplitudes to be optimized   ...       575557
Number of non-PNO amplitudes               ...     43107784
Untruncated number of regular amplitudes   ...     43107784

Iter       E(tot)           E(Corr)          Delta-E          Residual     Time
  0   -663.567007542     -1.137944233      0.048788378      0.016725362  119.96
                           *** Turning on DIIS ***
  1   -663.577518690     -1.148455381     -0.010511148      0.008923459  120.19
  2   -663.602766150     -1.173702840     -0.025247459      0.004396938  119.85
  3   -663.608601803     -1.179538494     -0.005835654      0.001987308  120.30
  4   -663.610543180     -1.181479870     -0.001941377      0.001024941  121.57
  5   -663.611155724     -1.182092414     -0.000612543      0.000389972  120.12
  6   -663.611288353     -1.182225043     -0.000132629      0.000156138  119.77
  7   -663.611324370     -1.182261060     -0.000036018      0.000060880  122.29
  8   -663.611325563     -1.182262253     -0.000001193      0.000026643  120.09
  9   -663.611324251     -1.182260941      0.000001312      0.000009380  121.08
               --- The Coupled-Cluster iterations have converged ---

----------------------
COUPLED CLUSTER ENERGY
----------------------

E(0)                                       ...   -662.427124443
E(CORR)(strong-pairs)                      ...     -1.182260941
E(CORR)(weak-pairs)                        ...     -0.001938867
E(CORR)(corrected)                         ...     -1.184199808
E(TOT)                                     ...   -663.611324251
Singles Norm <S|S>**1/2                    ...      0.088144989  
T1 diagnostic                              ...      0.015581980  

------------------
LARGEST AMPLITUDES
------------------
  24-> 25  24-> 25       0.045154
  23-> 25  23-> 25       0.041485
  20-> 25  20-> 25       0.038730
  14-> 25  14-> 25       0.037744
  22-> 25  22-> 25       0.036799
  21-> 25  21-> 25       0.035378
  11-> 25  11-> 25       0.033848
  19-> 25  19-> 25       0.032985
  18-> 25  18-> 25       0.032946
  17-> 25  17-> 25       0.032930
  10-> 26  10-> 26       0.031952
  16-> 26  16-> 26       0.029276
  20-> 26  20-> 26       0.029230
   9-> 25   9-> 25       0.028672
  14-> 25  -1-> -1       0.028352
  20-> 27  20-> 27       0.027790


-------------------------------------------
DLPNO BASED TRIPLES CORRECTION
-------------------------------------------

Singles multiplier          ...  1.000000
TCutTNO                     ... 1.000e-09
TCutMP2Pairs                ... 1.000e-06
TCutDOStrong                ... 1.000e-02
TCutMKNStrong               ... 1.000e-02
TCutDOWeak                  ... 2.000e-02
TCutMKNWeak                 ... 1.000e-01

Fragment selection                          .... not used
Number of Triples that are to be computed   ...       800

 . . . . . . . . .
10% done  
20% done  
30% done  
40% done  
50% done  
60% done  
70% done  
80% done  
90% done               (   2551.135 sec)
Triples timings:
Total time for T0               ...  2647.504 sec
Total time for Iterative (T)    ...     0.000 sec
Total time of overall (T)       ...  2670.407 sec

Triples List generation         ...     0.000 sec
TNO generation                  ...    96.244 sec
Pair density generation         ...     0.017 sec
Look up tables                  ...     0.000 sec
Generating 3-index integrals    ...  2177.719 sec
  Make 4-ind.int. from 3-ind.int...   159.341 sec
  Projecting amplitudes (D + S) ...    79.101 sec
  Downprojecting integrals      ...     0.008 sec
  Energy contr. (sum over a,b,c)...    21.287 sec
Fitting ET(->0)                 ...     0.000 sec

Everything after 3-index        ...   373.416 sec

Timing details:
 TNO integrals                  ...  2326.193 sec
   Reading 3-index integrals    ...     5.137 sec
   Sorting integrals            ...   144.284 sec
       Sorting integrals 1      ...     0.002 sec
       Sorting integrals 2      ...   103.863 sec
       Sorting integrals 3      ...     3.690 sec
       Sorting integrals 4      ...     0.053 sec
       Sorting integrals 5      ...     1.056 sec
       Sorting integrals 6      ...    35.620 sec
   Calculating local VM**-1/2   ...     5.733 sec
   Orthogonal. integrals        ...     8.312 sec
   Multipl. 3-index integrals   ...  2162.728 sec
   All concerning IRIab (w/TNO) ...   105.475 sec

 Calculate W0/W1                ...   113.669 sec
 W 3-ext contribution           ...    75.100 sec
 W 3-int contribution           ...    10.296 sec
 Sorting W                      ...    25.433 sec

 V exchange contribution        ...     7.353 sec

 Timings for Triples without generation
     of 3-index integrals       ...   373.413 sec
       0 weak pairs             ...   373.413 sec
       1 weak pair              ...     0.000 sec
       2 weak pairs             ...     0.000 sec
       3 weak pairs             ...     0.000 sec
  Extra time for extrapolation  ...     0.000 sec

Number of Triples   (0, 1, 2, 3 weak pairs; overall):    800       0       0       0  (   800)
Number of Atoms     (0, 1, 2, 3 weak pairs; overall):    9.0     0.0     0.0     0.0  (     9)
Number of PAOs      (0, 1, 2, 3 weak pairs; overall):  588.0     0.0     0.0     0.0  (   588)
Number of AuxFcns   (0, 1, 2, 3 weak pairs; overall):  798.2     0.0     0.0     0.0  (  1186)
Number of TNOs      (0, 1, 2, 3 weak pairs         ):  143.2     0.0     0.0     0.0
Aver. Number of NTNO, Atoms, PAOs, AuxFcns / Triples:    800   143.2     9.0   588.0   798.2

Triples Correction (T)                     ...     -0.052245651
Final correlation energy                   ...     -1.236445460
E(CCSD)                                    ...   -663.611324251
E(CCSD(T))                                 ...   -663.663569903


Maximum memory used throughout the entire calculation: 34683.4 MB


------------------------------------------------------------------------------- 
                                     TIMINGS                                   
------------------------------------------------------------------------------- 


Total execution time                   ...     5710.511 sec

Localization of occupied MO's          ...        2.370 sec (  0.0%)
Fock Matrix Formation                  ...      367.530 sec (  6.4%)
Global overlap, Fock, MKN matrices     ...        0.545 sec (  0.0%)
Differential overlap integrals         ...        0.435 sec (  0.0%)
Organizing maps                        ...        0.066 sec (  0.0%)
RI 3-index integral generations        ...       63.065 sec (  1.1%)
RI-PNO integral transformation         ...     1180.181 sec ( 20.7%)
Initial Guess                          ...      214.199 sec (  3.8%)
DIIS Solver                            ...       13.782 sec (  0.2%)
State Vector Update                    ...        0.045 sec (  0.0%)
Sigma-vector construction              ...     1201.595 sec ( 21.0%)
  <0|H|D>                              ...        0.002 sec (  0.0% of sigma)
  <D|H|D>(0-ext)                       ...       56.503 sec (  4.7% of sigma)
  <D|H|D>(2-ext Fock)                  ...        0.058 sec (  0.0% of sigma)
  <D|H|D>(2-ext)                       ...      135.700 sec ( 11.3% of sigma)
  <D|H|D>(4-ext)                       ...      119.823 sec ( 10.0% of sigma)
  <D|H|D>(4-ext-corr)                  ...      501.856 sec ( 41.8% of sigma)
  CCSD doubles correction              ...       11.624 sec (  1.0% of sigma)
  <S|H|S>                              ...       76.405 sec (  6.4% of sigma)
  <S|H|D>(1-ext)                       ...        9.488 sec (  0.8% of sigma)
  <D|H|S>(1-ext)                       ...        0.023 sec (  0.0% of sigma)
  <S|H|D>(3-ext)                       ...        4.548 sec (  0.4% of sigma)
  Fock-dressing                        ...      142.832 sec ( 11.9% of sigma)
  Singles amplitudes                   ...       18.731 sec (  1.6% of sigma)
  (ik|jl)-dressing                     ...       65.570 sec (  5.5% of sigma)
  (ij|ab),(ia|jb)-dressing             ...       48.999 sec (  4.1% of sigma)
  Pair energies                        ...        0.097 sec (  0.0% of sigma)
Total Time for computing (T)           ...     2670.472 sec ( 46.8% of ALL)


-------------------------   --------------------
FINAL SINGLE POINT ENERGY      -663.663569902734
-------------------------   --------------------


                            ***************************************
                            *     ORCA property calculations      *
                            ***************************************

                                    ---------------------
                                    Active property flags
                                    ---------------------
   (+) Dipole Moment


------------------------------------------------------------------------------
                       ORCA ELECTRIC PROPERTIES CALCULATION
------------------------------------------------------------------------------

Dipole Moment Calculation                       ... on
Quadrupole Moment Calculation                   ... off
Polarizability Calculation                      ... off
GBWName                                         ... MsOH_dlpno-ccsdt_augqz.gbw
Electron density file                           ... MsOH_dlpno-ccsdt_augqz.scfp.tmp
The origin for moment calculation is the CENTER OF MASS  = ( 0.085962, -0.051061 -0.001234)

-------------
DIPOLE MOMENT
-------------
                                X             Y             Z
Electronic contribution:      3.38622      -1.38077      -0.05274
Nuclear contribution   :     -4.29811       2.55305       0.06172
                        -----------------------------------------
Total Dipole Moment    :     -0.91188       1.17228       0.00898
                        -----------------------------------------
Magnitude (a.u.)       :      1.48521
Magnitude (Debye)      :      3.77510



--------------------
Rotational spectrum 
--------------------
 
Rotational constants in cm-1:     0.155678     0.148056     0.143237 
Rotational constants in MHz :  4667.108572  4438.605036  4294.145689 

 Dipole components along the rotational axes: 
x,y,z [a.u.] :    -0.929108    -1.158490     0.022319 
x,y,z [Debye]:    -2.361606    -2.944649     0.056730 

 

Timings for individual modules:

Sum of individual times         ...     8573.451 sec (= 142.891 min)
GTO integral calculation        ...        2.433 sec (=   0.041 min)   0.0 %
SCF iterations                  ...     2856.899 sec (=  47.615 min)  33.3 %
MDCI module                     ...     5714.118 sec (=  95.235 min)  66.6 %
                             ****ORCA TERMINATED NORMALLY****
TOTAL RUN TIME: 0 days 2 hours 22 minutes 55 seconds 694 msec
