Job execution start: Wed Feb 15 12:46:33 EST 2023
Shared library path: /SFS/product/faccts/openmpi/4.1.4/x86-64/lib:/SFS/product/gcc/8.4.0/centos7_x86_64/lib64:/SFS/product/gcc/8.4.0/centos7_x86_64/lib::
PBS Job ID is: 13397.awshpcvapbs001.merck.com
PBS Job name is: gemfi_alfa_minima_1
Submitted to the the queue cpu_r5_16xl wtih ncpus=24 and mem=24gb
Working in scratch directory /SFS/fsx/users/for_orca_poc/gairj/orcajob__13397.awshpcvapbs001.merck.com-ILpo
10.114.92.223

                                 *****************
                                 * O   R   C   A *
                                 *****************

                                            #,                                       
                                            ###                                      
                                            ####                                     
                                            #####                                    
                                            ######                                   
                                           ########,                                 
                                     ,,################,,,,,                         
                               ,,#################################,,                 
                          ,,##########################################,,             
                       ,#########################################, ''#####,          
                    ,#############################################,,   '####,        
                  ,##################################################,,,,####,       
                ,###########''''           ''''###############################       
              ,#####''   ,,,,##########,,,,          '''####'''          '####       
            ,##' ,,,,###########################,,,                        '##       
           ' ,,###''''                  '''############,,,                           
         ,,##''                                '''############,,,,        ,,,,,,###''
      ,#''                                            '''#######################'''  
     '                                                          ''''####''''         
             ,#######,   #######,   ,#######,      ##                                
            ,#'     '#,  ##    ##  ,#'     '#,    #''#        ######   ,####,        
            ##       ##  ##   ,#'  ##            #'  '#       #        #'  '#        
            ##       ##  #######   ##           ,######,      #####,   #    #        
            '#,     ,#'  ##    ##  '#,     ,#' ,#      #,         ##   #,  ,#        
             '#######'   ##     ##  '#######'  #'      '#     #####' # '####'        



                  #######################################################
                  #                        -***-                        #
                  #          Department of theory and spectroscopy      #
                  #    Directorship and core code : Frank Neese         #
                  #        Max Planck Institute fuer Kohlenforschung    #
                  #                Kaiser Wilhelm Platz 1               #
                  #                 D-45470 Muelheim/Ruhr               #
                  #                      Germany                        #
                  #                                                     #
                  #                  All rights reserved                #
                  #                        -***-                        #
                  #######################################################


                         Program Version 5.0.3-f.1  -   RELEASE   -


 With contributions from (in alphabetic order):
   Daniel Aravena         : Magnetic Suceptibility
   Michael Atanasov       : Ab Initio Ligand Field Theory (pilot matlab implementation)
   Alexander A. Auer      : GIAO ZORA, VPT2 properties, NMR spectrum
   Ute Becker             : Parallelization
   Giovanni Bistoni       : ED, misc. LED, open-shell LED, HFLD
   Martin Brehm           : Molecular dynamics
   Dmytro Bykov           : SCF Hessian
   Vijay G. Chilkuri      : MRCI spin determinant printing, contributions to CSF-ICE
   Dipayan Datta          : RHF DLPNO-CCSD density
   Achintya Kumar Dutta   : EOM-CC, STEOM-CC
   Dmitry Ganyushin       : Spin-Orbit,Spin-Spin,Magnetic field MRCI
   Miquel Garcia          : C-PCM and meta-GGA Hessian, CC/C-PCM, Gaussian charge scheme
   Yang Guo               : DLPNO-NEVPT2, F12-NEVPT2, CIM, IAO-localization
   Andreas Hansen         : Spin unrestricted coupled pair/coupled cluster methods
   Benjamin Helmich-Paris : MC-RPA, TRAH-SCF, COSX integrals
   Lee Huntington         : MR-EOM, pCC
   Robert Izsak           : Overlap fitted RIJCOSX, COSX-SCS-MP3, EOM
   Marcus Kettner         : VPT2
   Christian Kollmar      : KDIIS, OOCD, Brueckner-CCSD(T), CCSD density, CASPT2, CASPT2-K
   Simone Kossmann        : Meta GGA functionals, TD-DFT gradient, OOMP2, MP2 Hessian
   Martin Krupicka        : Initial AUTO-CI
   Lucas Lang             : DCDCAS
   Marvin Lechner         : AUTO-CI (C++ implementation), FIC-MRCC
   Dagmar Lenk            : GEPOL surface, SMD
   Dimitrios Liakos       : Extrapolation schemes; Compound Job, initial MDCI parallelization
   Dimitrios Manganas     : Further ROCIS development; embedding schemes
   Dimitrios Pantazis     : SARC Basis sets
   Anastasios Papadopoulos: AUTO-CI, single reference methods and gradients
   Taras Petrenko         : DFT Hessian,TD-DFT gradient, ASA, ECA, R-Raman, ABS, FL, XAS/XES, NRVS
   Peter Pinski           : DLPNO-MP2, DLPNO-MP2 Gradient
   Christoph Reimann      : Effective Core Potentials
   Marius Retegan         : Local ZFS, SOC
   Christoph Riplinger    : Optimizer, TS searches, QM/MM, DLPNO-CCSD(T), (RO)-DLPNO pert. Triples
   Tobias Risthaus        : Range-separated hybrids, TD-DFT gradient, RPA, STAB
   Michael Roemelt        : Original ROCIS implementation
   Masaaki Saitow         : Open-shell DLPNO-CCSD energy and density
   Barbara Sandhoefer     : DKH picture change effects
   Avijit Sen             : IP-ROCIS
   Kantharuban Sivalingam : CASSCF convergence, NEVPT2, FIC-MRCI
   Bernardo de Souza      : ESD, SOC TD-DFT
   Georgi Stoychev        : AutoAux, RI-MP2 NMR, DLPNO-MP2 response
   Willem Van den Heuvel  : Paramagnetic NMR
   Boris Wezisla          : Elementary symmetry handling
   Frank Wennmohs         : Technical directorship


 We gratefully acknowledge several colleagues who have allowed us to
 interface, adapt or use parts of their codes:
   Stefan Grimme, W. Hujo, H. Kruse, P. Pracht,  : VdW corrections, initial TS optimization,
                  C. Bannwarth, S. Ehlert          DFT functionals, gCP, sTDA/sTD-DF
   Ed Valeev, F. Pavosevic, A. Kumar             : LibInt (2-el integral package), F12 methods
   Garnet Chan, S. Sharma, J. Yang, R. Olivares  : DMRG
   Ulf Ekstrom                                   : XCFun DFT Library
   Mihaly Kallay                                 : mrcc  (arbitrary order and MRCC methods)
   Jiri Pittner, Ondrej Demel                    : Mk-CCSD
   Frank Weinhold                                : gennbo (NPA and NBO analysis)
   Christopher J. Cramer and Donald G. Truhlar   : smd solvation model
   Lars Goerigk                                  : TD-DFT with DH, B97 family of functionals
   V. Asgeirsson, H. Jonsson                     : NEB implementation
   FAccTs GmbH                                   : IRC, NEB, NEB-TS, DLPNO-Multilevel, CI-OPT
                                                   MM, QMMM, 2- and 3-layer-ONIOM, Crystal-QMMM,
                                                   LR-CPCM, SF, NACMEs, symmetry and pop. for TD-DFT,
                                                   nearIR, NL-DFT gradient (VV10), updates on ESD,
                                                   ML-optimized integration grids
   S Lehtola, MJT Oliveira, MAL Marques          : LibXC Library
   Liviu Ungur et al                             : ANISO software


 Your calculation uses the libint2 library for the computation of 2-el integrals
 For citations please refer to: http://libint.valeyev.net

 Your ORCA version has been built with support for libXC version: 5.1.0
 For citations please refer to: https://tddft.org/programs/libxc/

 This ORCA versions uses:
   CBLAS   interface :  Fast vector & matrix operations
   LAPACKE interface :  Fast linear algebra routines
   SCALAPACK package :  Parallel linear algebra routines
   Shared memory     :  Shared parallel matrices
   BLAS/LAPACK       :  OpenBLAS 0.3.20  USE64BITINT DYNAMIC_ARCH NO_AFFINITY SkylakeX SINGLE_THREADED
        Core in use  :  SkylakeX
   Copyright (c) 2011-2014, The OpenBLAS Project




################################################################################


                                COMPOUND JOB MainJOB 
Basename: gemfi_alfa_minima_1_Compound_0

################################################################################

================================================================================
                                       INPUT FILE
================================================================================
NAME = gemfi_alfa_minima_1_Compound_0.inp
|  1> 
|  2> %maxcore 1000
|  3>  %pal
|  4>   nproc 24
|  5>  end
|  6>  
|  7>  * xyz -2 1
|  8>   6         -1.10119998    1.75030005   -0.69529998
|  9>   6          1.21159995    0.93320000   -0.80089998
| 10>   6          0.88540000    3.43860006   -0.50389999
| 11>   6          1.85430002    2.33660007   -1.07379997
| 12>   6         -0.61610001    3.22630000   -0.90969998
| 13>   8         -0.12360000    0.84880000   -1.29250002
| 14>   8         -1.42869997    4.18419981   -0.23090000
| 15>   8          1.30820000    4.77629995   -0.81510001
| 16>   6         -2.50430012    1.53680003   -1.32609999
| 17>   8         -3.50099993    1.44029999   -0.57529998
| 18>   8         -2.60520005    1.43680000   -2.57089996
| 19>   8          1.25629997    0.62790000    0.57849997
| 20>   6          1.21340001   -0.69250000    0.94019997
| 21>   8          3.19549990    2.46129990   -0.62930000
| 22>   8          1.29820001   -1.65020001    0.16170000
| 23>   1          1.75779998    0.17870000   -1.37430000
| 24>   1          0.93540001    3.37019992    0.58560002
| 25>   1         -0.71259999    3.46790004   -1.97329998
| 26>   1         -1.20690000    1.53779995    0.37009999
| 27>   1         -1.03719997    5.05439997   -0.41069999
| 28>   1          2.27320004    4.78859997   -0.69859999
| 29>   1          1.92830002    2.44379997   -2.15639997
| 30>   6          1.03830004   -0.88499999    2.48049998
| 31>   6          1.00940001   -2.39439988    2.85759997
| 32>   6         -0.27669999   -0.20370001    2.98119998
| 33>   6         -1.60539997   -0.71090001    2.36170006
| 34>   6         -2.83599997    0.10290000    2.79189992
| 35>   8         -2.99359989   -0.01380000    4.20459986
| 36>   6         -4.02379990    0.65689999    4.83790016
| 37>   6         -4.11810017    0.52850002    6.23309994
| 38>   6         -3.11299992   -0.31840000    7.00169992
| 39>   6         -5.13719988    1.18270004    6.93209982
| 40>   6         -6.06680012    1.96480000    6.25000000
| 41>   6         -5.98909998    2.09739995    4.86429977
| 42>   6         -6.99209976    2.95840001    4.12080002
| 43>   6         -4.96939993    1.44889998    4.16520023
| 44>   6          2.24640012   -0.25110000    3.22079992
| 45>   1          0.85900003   -2.53649998    3.92880011
| 46>   1          0.20950000   -2.93499994    2.34969997
| 47>   1          1.94560003   -2.89420009    2.60200000
| 48>   1         -0.34279999   -0.31569999    4.06559992
| 49>   1         -0.20610000    0.87519997    2.82399988
| 50>   1         -1.55079997   -0.68839997    1.27310002
| 51>   1         -1.76870000   -1.75510001    2.62910008
| 52>   1         -2.71000004    1.14719999    2.49850011
| 53>   1         -3.72160006   -0.28060001    2.28119993
| 54>   1         -3.29040003   -0.30710000    8.07779980
| 55>   1         -3.15129995   -1.35249996    6.65759993
| 56>   1         -2.10030007    0.04380000    6.82049990
| 57>   1         -5.21290016    1.08889997    8.00720024
| 58>   1         -6.84899998    2.46600008    6.80439997
| 59>   1         -6.50419998    3.50720000    3.31419992
| 60>   1         -7.44509983    3.70320010    4.77640009
| 61>   1         -7.77930021    2.34249997    3.68530011
| 62>   1         -4.92619991    1.56900001    3.09299994
| 63>   1          2.17759991   -0.40210000    4.29930019
| 64>   1          3.19619989   -0.68409997    2.90089989
| 65>   1          2.30780005    0.82700002    3.06110001
| 66>  *
| 67>  
| 68>  
| 69> 
| 70>                          ****END OF INPUT****
================================================================================
================================================================================

----- Orbital basis set information -----
Your calculation utilizes the basis: def2-SVP
   F. Weigend and R. Ahlrichs, Phys. Chem. Chem. Phys. 7, 3297 (2005).



################################################################################


                                COMPOUND JOB  1 
Basename: gemfi_alfa_minima_1_Compound_1
NOTE: please remember that MaxCore and PAL settings will be ignored.

################################################################################

================================================================================
                                       INPUT FILE
================================================================================
NAME = gemfi_alfa_minima_1_Compound_1.inp
|  1>   ! m062x 6-31+G** opt freq CPCM(water) xyzfile
|  2> 
|  3>                          ****END OF INPUT****
================================================================================
XCFun DFT library Copyright 2009-2010 Ulf Ekstrom and contributors.
See http://admol.org/xcfun for more information.
This is free software; see the source code for copying conditions.
There is ABSOLUTELY NO WARRANTY; not even for MERCHANTABILITY or FITNESS FOR A PARTICULAR PURPOSE.
For details see the documentation.
Scientific users of this library should cite U. Ekstrom, L. Visscher, R. Bast, A. J. Thorvaldsen and K. Ruud;
J.Chem.Theor.Comp. 2010, DOI: 10.1021/ct100117s
XCFun Version 0.99 

================================================================================

----- Orbital basis set information -----
Your calculation utilizes the basis: 6-31+G**
   H-He, Li-Ne : W. J. Hehre, R. Ditchfield and J.A. Pople, J. Chem. Phys. 56, 2257 (1972).
                 Note: He and Ne are unpublished basis sets taken from the Gaussian program.
                 Note: Li and B from J. D. Dill and J. A. Pople, J. Chem. Phys. 62, 2921 (1975).
   Na - Ar     : M. M. Francl, W. J. Pietro, W. J. Hehre, J. S. Binkley, M. S. Gordon, 
                 D. J. DeFrees and J. A. Pople, J. Chem. Phys. 77, 3654 (1982).
   K - Zn      : V. A. Rassolov, J. A. Pople, M. A. Ratner, and T. L. Windus, J. Chem. Phys. 109, 1223 (1998).
   Additional Pol./Diff. from the 6-311G equivalent.

----- AuxJ basis set information -----
Your calculation utilizes the auxiliary basis: def2/J
   F. Weigend, Phys. Chem. Chem. Phys. 8, 1057 (2006).

================================================================================
                                        WARNINGS
                       Please study these warnings very carefully!
================================================================================


WARNING: Geometry Optimization
  ===> : Switching off AutoStart
         For restart on a previous wavefunction, please use MOREAD

WARNING: Minnesota functionals are quite sensitive to the integration grid.
         see SE Wheeler, KN Houk, JCTC 2010, 6, 395,
             N Mardirossian, M Head-Gordon, JCTC 2016, 12, 4303.
         DEFGRID3 seems to be a minimum grid for reliable results with these functionals!
  ===> : Please increase the integration grid!


INFO   : the flag for use of the SHARK integral package has been found!


                       *****************************
                       * Geometry Optimization Run *
                       *****************************

Geometry optimization settings:
Update method            Update   .... BFGS
Choice of coordinates    CoordSys .... Z-matrix Internals
Initial Hessian          InHess   .... Almoef's Model

Convergence Tolerances:
Energy Change            TolE     ....  5.0000e-06 Eh
Max. Gradient            TolMAXG  ....  3.0000e-04 Eh/bohr
RMS Gradient             TolRMSG  ....  1.0000e-04 Eh/bohr
Max. Displacement        TolMAXD  ....  4.0000e-03 bohr
RMS Displacement         TolRMSD  ....  2.0000e-03 bohr
Strict Convergence                ....  False
------------------------------------------------------------------------------
                        ORCA OPTIMIZATION COORDINATE SETUP
------------------------------------------------------------------------------

The optimization will be done in new redundant internal coordinates
Making redundant internal coordinates   ...  (new redundants) done
Evaluating the initial hessian          ...  (Almloef) done
Evaluating the coordinates              ...  done
Calculating the B-matrix                .... done
Calculating the G-matrix                .... done
Diagonalizing the G-matrix              .... done
Small eigenvalue found = 9.230e-04
Small eigenvalue found = 1.433e-03
Small eigenvalue found = 2.285e-03
Small eigenvalue found = 7.624e-03
Small eigenvalue found = 9.278e-03
Small eigenvalue found = 1.113e-02
Small eigenvalue found = 1.608e-02
Small eigenvalue found = 2.767e-02
The first mode is                       ....  150
The number of degrees of freedom        ....  168

    -----------------------------------------------------------------
                    Redundant Internal Coordinates


    -----------------------------------------------------------------
         Definition                    Initial Value    Approx d2E/dq
    -----------------------------------------------------------------
      1. B(C   3,C   2)                  1.5742         0.317639   
      2. B(C   3,C   1)                  1.5675         0.325493   
      3. B(C   4,C   0)                  1.5684         0.324429   
      4. B(C   4,C   2)                  1.5698         0.322769   
      5. B(O   5,C   0)                  1.4578         0.436290   
      6. B(O   5,C   1)                  1.4253         0.491491   
      7. B(O   6,C   4)                  1.4278         0.487014   
      8. B(O   7,C   2)                  1.4370         0.470811   
      9. B(C   8,C   0)                  1.5531         0.343156   
     10. B(O   9,C   8)                  1.2516         0.930538   
     11. B(O  10,C   8)                  1.2529         0.926066   
     12. B(O  11,C   1)                  1.4135         0.513335   
     13. B(C  12,O  11)                  1.3697         0.602888   
     14. B(O  13,C   3)                  1.4184         0.504098   
     15. B(O  14,C  12)                  1.2371         0.981298   
     16. B(H  15,C   1)                  1.0938         0.355112   
     17. B(H  16,C   2)                  1.0928         0.356429   
     18. B(H  17,C   4)                  1.0950         0.353604   
     19. B(H  18,C   0)                  1.0915         0.358101   
     20. B(H  19,O   6)                  0.9710         0.499356   
     21. B(H  20,O   7)                  0.9721         0.497378   
     22. B(H  21,C   3)                  1.0904         0.359560   
     23. B(C  22,C  12)                  1.5621         0.331987   
     24. B(C  23,C  22)                  1.5561         0.339467   
     25. B(C  24,C  22)                  1.5634         0.330486   
     26. B(C  25,C  24)                  1.5513         0.345480   
     27. B(C  26,C  25)                  1.5368         0.364374   
     28. B(O  27,C  26)                  1.4262         0.489832   
     29. B(C  28,O  27)                  1.3828         0.574532   
     30. B(C  29,C  28)                  1.4043         0.592897   
     31. B(C  30,C  29)                  1.5226         0.383915   
     32. B(C  31,C  29)                  1.3983         0.606113   
     33. B(C  32,C  31)                  1.3932         0.617421   
     34. B(C  33,C  32)                  1.3942         0.615237   
     35. B(C  34,C  33)                  1.5166         0.392403   
     36. B(C  35,C  33)                  1.3961         0.610963   
     37. B(C  35,C  28)                  1.4050         0.591358   
     38. B(C  36,C  22)                  1.5522         0.344295   
     39. B(H  37,C  23)                  1.0910         0.358779   
     40. B(H  38,C  23)                  1.0909         0.358919   
     41. B(H  39,C  23)                  1.0916         0.357983   
     42. B(H  40,C  24)                  1.0922         0.357240   
     43. B(H  41,C  24)                  1.0926         0.356709   
     44. B(H  42,C  25)                  1.0902         0.359835   
     45. B(H  43,C  25)                  1.0902         0.359843   
     46. B(H  44,O   9)                  3.1874         0.000145   
     47. B(H  44,C  26)                  1.0920         0.357429   
     48. B(H  45,C  26)                  1.0919         0.357638   
     49. B(H  46,C  30)                  1.0907         0.359198   
     50. B(H  47,C  30)                  1.0905         0.359412   
     51. B(H  48,C  30)                  1.0907         0.359201   
     52. B(H  49,C  31)                  1.0818         0.371063   
     53. B(H  50,C  32)                  1.0818         0.371046   
     54. B(H  51,C  34)                  1.0908         0.359051   
     55. B(H  52,C  34)                  1.0908         0.359102   
     56. B(H  53,C  34)                  1.0903         0.359750   
     57. B(H  54,C  35)                  1.0798         0.373890   
     58. B(H  55,C  36)                  1.0912         0.358528   
     59. B(H  56,C  36)                  1.0918         0.357776   
     60. B(H  57,C  36)                  1.0916         0.358000   
     61. A(C   8,C   0,H  18)          106.3907         0.319548   
     62. A(C   4,C   0,C   8)          110.6873         0.349672   
     63. A(O   5,C   0,H  18)          110.1461         0.330421   
     64. A(O   5,C   0,C   8)          110.7594         0.365455   
     65. A(C   4,C   0,H  18)          110.2792         0.316638   
     66. A(C   4,C   0,O   5)          108.5760         0.361966   
     67. A(O   5,C   1,H  15)          104.2487         0.336550   
     68. A(C   3,C   1,H  15)          108.7579         0.316375   
     69. A(O  11,C   1,H  15)          110.2920         0.338998   
     70. A(C   3,C   1,O   5)          112.1515         0.369635   
     71. A(O   5,C   1,O  11)          110.6967         0.397557   
     72. A(C   3,C   1,O  11)          110.5064         0.372410   
     73. A(C   3,C   2,H  16)          106.7960         0.315311   
     74. A(C   3,C   2,O   7)          113.0900         0.365385   
     75. A(O   7,C   2,H  16)          105.1122         0.334358   
     76. A(C   4,C   2,O   7)          110.5687         0.366389   
     77. A(C   3,C   2,C   4)          113.6072         0.344855   
     78. A(C   4,C   2,H  16)          107.0392         0.316133   
     79. A(O  13,C   3,H  21)          103.7873         0.338675   
     80. A(C   1,C   3,O  13)          114.3206         0.371248   
     81. A(C   1,C   3,C   2)          108.1420         0.345342   
     82. A(C   2,C   3,O  13)          114.0162         0.369692   
     83. A(C   2,C   3,H  21)          109.4139         0.315759   
     84. A(C   1,C   3,H  21)          106.7799         0.317016   
     85. A(C   0,C   4,O   6)          112.9760         0.368846   
     86. A(C   0,C   4,C   2)          112.8163         0.346083   
     87. A(C   2,C   4,O   6)          109.3134         0.368522   
     88. A(O   6,C   4,H  17)          105.2844         0.335800   
     89. A(C   0,C   4,H  17)          108.2508         0.315988   
     90. A(C   2,C   4,H  17)          107.7918         0.315724   
     91. A(C   0,O   5,C   1)          116.7629         0.386407   
     92. A(C   4,O   6,H  19)          106.4836         0.352743   
     93. A(C   2,O   7,H  20)          106.1349         0.350496   
     94. A(C   0,C   8,O  10)          119.1605         0.416799   
     95. A(C   0,C   8,O   9)          119.1038         0.417156   
     96. A(O   9,C   8,O  10)          121.7174         0.496453   
     97. A(C   1,O  11,C  12)          117.7053         0.412159   
     98. A(O  11,C  12,O  14)          125.3063         0.463204   
     99. A(O  14,C  12,C  22)          122.1936         0.418647   
    100. A(O  11,C  12,C  22)          112.5000         0.384232   
    101. A(C  24,C  22,C  36)          108.9016         0.350962   
    102. A(C  23,C  22,C  36)          107.1582         0.352556   
    103. A(C  12,C  22,C  36)          109.4328         0.351230   
    104. A(C  12,C  22,C  23)          111.1354         0.350394   
    105. A(C  23,C  22,C  24)          109.2376         0.350126   
    106. A(C  12,C  22,C  24)          110.8779         0.348812   
    107. A(C  22,C  23,H  37)          111.5213         0.319083   
    108. A(H  37,C  23,H  39)          106.7679         0.290403   
    109. A(H  38,C  23,H  39)          107.0348         0.290420   
    110. A(C  22,C  23,H  39)          111.8054         0.318967   
    111. A(H  37,C  23,H  38)          106.9480         0.290522   
    112. A(C  22,C  23,H  38)          112.4257         0.319103   
    113. A(H  40,C  24,H  41)          104.3611         0.290044   
    114. A(C  22,C  24,C  25)          116.7478         0.351166   
    115. A(C  25,C  24,H  41)          108.7084         0.319697   
    116. A(C  22,C  24,H  41)          109.2629         0.317392   
    117. A(C  25,C  24,H  40)          108.1279         0.319774   
    118. A(C  22,C  24,H  40)          108.9177         0.317468   
    119. A(C  24,C  25,C  26)          113.6368         0.357022   
    120. A(H  42,C  25,H  43)          105.7944         0.290773   
    121. A(C  26,C  25,H  43)          108.5781         0.322957   
    122. A(C  24,C  25,H  43)          110.0908         0.320154   
    123. A(C  26,C  25,H  42)          107.9808         0.322955   
    124. A(C  24,C  25,H  42)          110.4333         0.320153   
    125. A(C  25,C  26,O  27)          108.8100         0.376674   
    126. A(O  27,C  26,H  45)          110.1772         0.336758   
    127. A(C  25,C  26,H  45)          109.4242         0.322631   
    128. A(O  27,C  26,H  44)          110.9234         0.336725   
    129. A(H  44,C  26,H  45)          107.6860         0.290187   
    130. A(C  25,C  26,H  44)          109.8037         0.322600   
    131. A(C  26,O  27,C  28)          119.7529         0.405282   
    132. A(C  29,C  28,C  35)          118.8197         0.426955   
    133. A(O  27,C  28,C  35)          123.7481         0.421796   
    134. A(O  27,C  28,C  29)          117.4321         0.421992   
    135. A(C  30,C  29,C  31)          119.2758         0.397008   
    136. A(C  28,C  29,C  31)          120.1882         0.428846   
    137. A(C  28,C  29,C  30)          120.5357         0.395475   
    138. A(H  47,C  30,H  48)          107.1631         0.290638   
    139. A(H  46,C  30,H  48)          108.1493         0.290611   
    140. A(H  46,C  30,H  47)          108.3868         0.290638   
    141. A(C  29,C  30,H  47)          110.1808         0.325675   
    142. A(C  29,C  30,H  46)          112.6389         0.325643   
    143. A(C  29,C  30,H  48)          110.1424         0.325644   
    144. A(C  29,C  31,C  32)          120.2776         0.431978   
    145. A(C  32,C  31,H  49)          119.2431         0.354456   
    146. A(C  29,C  31,H  49)          120.4792         0.353348   
    147. A(C  31,C  32,C  33)          120.1855         0.433139   
    148. A(C  33,C  32,H  50)          120.3689         0.354240   
    149. A(C  31,C  32,H  50)          119.4455         0.354453   
    150. A(C  34,C  33,C  35)          120.0834         0.399095   
    151. A(C  32,C  33,C  35)          119.6189         0.432321   
    152. A(C  32,C  33,C  34)          120.2906         0.399585   
    153. A(H  52,C  34,H  53)          109.0237         0.290668   
    154. A(H  51,C  34,H  53)          108.1676         0.290662   
    155. A(C  33,C  34,H  53)          110.6478         0.326900   
    156. A(H  51,C  34,H  52)          106.6588         0.290580   
    157. A(C  33,C  34,H  52)          111.5710         0.326803   
    158. A(C  33,C  34,H  51)          110.6297         0.326795   
    159. A(C  28,C  35,C  33)          120.9088         0.429259   
    160. A(C  33,C  35,H  54)          118.3463         0.354280   
    161. A(C  28,C  35,H  54)          120.7448         0.352329   
    162. A(H  56,C  36,H  57)          107.4518         0.290277   
    163. A(H  55,C  36,H  57)          106.5478         0.290373   
    164. A(C  22,C  36,H  57)          112.1690         0.319706   
    165. A(H  55,C  36,H  56)          106.8325         0.290344   
    166. A(C  22,C  36,H  56)          112.0483         0.319673   
    167. A(C  22,C  36,H  55)          111.4567         0.319783   
    168. D(H  21,C   3,C   1,O   5)    -64.4902         0.008652   
    169. D(O  13,C   3,C   2,H  16)    -57.6591         0.008285   
    170. D(C   2,C   3,C   1,O  11)    -70.8684         0.008652   
    171. D(O  13,C   3,C   2,C   4)   -175.4312         0.008285   
    172. D(O  13,C   3,C   1,O   5)   -178.6597         0.008652   
    173. D(C   1,C   3,C   2,H  16)     70.6903         0.008285   
    174. D(H  21,C   3,C   2,O   7)    -58.2259         0.008285   
    175. D(C   1,C   3,C   2,C   4)    -47.0818         0.008285   
    176. D(O  13,C   3,C   1,O  11)     57.3078         0.008652   
    177. D(C   1,C   3,C   2,O   7)   -174.1762         0.008285   
    178. D(O  13,C   3,C   1,H  15)    -63.8940         0.008652   
    179. D(H  21,C   3,C   2,C   4)     68.8685         0.008285   
    180. D(C   2,C   3,C   1,H  15)    167.9298         0.008652   
    181. D(O  13,C   3,C   2,O   7)     57.4744         0.008285   
    182. D(H  21,C   3,C   1,H  15)     50.2755         0.008652   
    183. D(H  21,C   3,C   1,O  11)    171.4773         0.008652   
    184. D(H  21,C   3,C   2,H  16)   -173.3594         0.008285   
    185. D(C   2,C   3,C   1,O   5)     53.1641         0.008652   
    186. D(C   0,C   4,C   2,C   3)     47.1650         0.008524   
    187. D(C   0,C   4,C   2,O   7)    175.5641         0.008524   
    188. D(O   6,C   4,C   0,H  18)    -52.6583         0.008602   
    189. D(H  17,C   4,C   0,O   5)     70.3885         0.008602   
    190. D(H  17,C   4,C   0,C   8)    -51.3877         0.008602   
    191. D(H  17,C   4,C   0,H  18)   -168.8456         0.008602   
    192. D(O   6,C   4,C   0,O   5)   -173.4243         0.008602   
    193. D(C   2,C   4,C   0,H  18)     71.9591         0.008602   
    194. D(C   2,C   4,C   0,O   5)    -48.8069         0.008602   
    195. D(H  17,C   4,C   2,C   3)    -72.2961         0.008524   
    196. D(C   0,C   4,C   2,H  16)    -70.4662         0.008524   
    197. D(O   6,C   4,C   2,C   3)    173.7611         0.008524   
    198. D(O   6,C   4,C   2,H  16)     56.1299         0.008524   
    199. D(C   2,C   4,C   0,C   8)   -170.5830         0.008602   
    200. D(O   6,C   4,C   2,O   7)    -57.8398         0.008524   
    201. D(H  17,C   4,C   2,O   7)     56.1030         0.008524   
    202. D(H  17,C   4,C   2,H  16)    170.0727         0.008524   
    203. D(O   6,C   4,C   0,C   8)     64.7995         0.008602   
    204. D(C   0,O   5,C   1,H  15)    179.6448         0.019078   
    205. D(C   0,O   5,C   1,C   3)    -62.8649         0.019078   
    206. D(C   1,O   5,C   0,H  18)    -62.3120         0.014991   
    207. D(C   1,O   5,C   0,C   8)   -179.7317         0.014991   
    208. D(C   0,O   5,C   1,O  11)     61.0615         0.019078   
    209. D(C   1,O   5,C   0,C   4)     58.5362         0.014991   
    210. D(H  19,O   6,C   4,H  17)    -63.2127         0.018723   
    211. D(H  19,O   6,C   4,C   2)     52.3453         0.018723   
    212. D(H  19,O   6,C   4,C   0)    178.8504         0.018723   
    213. D(H  20,O   7,C   2,H  16)     75.2213         0.017473   
    214. D(H  20,O   7,C   2,C   4)   -169.5948         0.017473   
    215. D(H  20,O   7,C   2,C   3)    -40.9154         0.017473   
    216. D(O  10,C   8,C   0,H  18)   -164.9267         0.008931   
    217. D(O  10,C   8,C   0,O   5)    -45.2289         0.008931   
    218. D(O  10,C   8,C   0,C   4)     75.2551         0.008931   
    219. D(O   9,C   8,C   0,H  18)     13.5450         0.008931   
    220. D(O   9,C   8,C   0,C   4)   -106.2732         0.008931   
    221. D(O   9,C   8,C   0,O   5)    133.2429         0.008931   
    222. D(C  12,O  11,C   1,H  15)    -35.9628         0.020871   
    223. D(C  12,O  11,C   1,O   5)     78.8853         0.020871   
    224. D(C  12,O  11,C   1,C   3)   -156.2500         0.020871   
    225. D(C  22,C  12,O  11,C   1)   -170.7848         0.026563   
    226. D(O  14,C  12,O  11,C   1)      9.0897         0.026563   
    227. D(C  24,C  22,C  12,O  14)   -120.9543         0.008417   
    228. D(C  24,C  22,C  12,O  11)     58.9247         0.008417   
    229. D(C  23,C  22,C  12,O  14)      0.7491         0.008417   
    230. D(C  23,C  22,C  12,O  11)   -179.3719         0.008417   
    231. D(C  36,C  22,C  12,O  14)    118.8989         0.008417   
    232. D(C  36,C  22,C  12,O  11)    -61.2221         0.008417   
    233. D(H  39,C  23,C  22,C  36)    -57.3638         0.009333   
    234. D(H  39,C  23,C  22,C  24)   -175.1926         0.009333   
    235. D(H  39,C  23,C  22,C  12)     62.1523         0.009333   
    236. D(H  38,C  23,C  22,C  24)     64.3796         0.009333   
    237. D(H  38,C  23,C  22,C  12)    -58.2756         0.009333   
    238. D(H  37,C  23,C  22,C  36)     62.0940         0.009333   
    239. D(H  38,C  23,C  22,C  36)   -177.7916         0.009333   
    240. D(H  37,C  23,C  22,C  24)    -55.7348         0.009333   
    241. D(H  37,C  23,C  22,C  12)   -178.3900         0.009333   
    242. D(H  41,C  24,C  22,C  36)     56.5866         0.008892   
    243. D(H  41,C  24,C  22,C  23)    173.3149         0.008892   
    244. D(H  41,C  24,C  22,C  12)    -63.8761         0.008892   
    245. D(H  40,C  24,C  22,C  36)    -56.8363         0.008892   
    246. D(H  40,C  24,C  22,C  23)     59.8920         0.008892   
    247. D(H  40,C  24,C  22,C  12)   -177.2990         0.008892   
    248. D(C  25,C  24,C  22,C  36)   -179.5912         0.008892   
    249. D(C  25,C  24,C  22,C  23)    -62.8629         0.008892   
    250. D(C  25,C  24,C  22,C  12)     59.9461         0.008892   
    251. D(H  43,C  25,C  24,H  41)   -171.8805         0.009637   
    252. D(H  43,C  25,C  24,C  22)     64.0141         0.009637   
    253. D(H  42,C  25,C  24,H  41)     71.6609         0.009637   
    254. D(H  42,C  25,C  24,H  40)   -175.6076         0.009637   
    255. D(H  42,C  25,C  24,C  22)    -52.4446         0.009637   
    256. D(C  26,C  25,C  24,H  41)    -49.8490         0.009637   
    257. D(H  43,C  25,C  24,H  40)    -59.1490         0.009637   
    258. D(C  26,C  25,C  24,H  40)     62.8825         0.009637   
    259. D(C  26,C  25,C  24,C  22)   -173.9544         0.009637   
    260. D(H  45,C  26,C  25,H  43)    -59.8395         0.010634   
    261. D(H  45,C  26,C  25,H  42)     54.4269         0.010634   
    262. D(H  45,C  26,C  25,C  24)    177.2943         0.010634   
    263. D(H  44,C  26,C  25,H  43)   -177.8325         0.010634   
    264. D(H  44,C  26,C  25,H  42)    -63.5661         0.010634   
    265. D(H  44,C  26,C  25,C  24)     59.3012         0.010634   
    266. D(O  27,C  26,C  25,H  43)     60.5908         0.010634   
    267. D(O  27,C  26,C  25,H  42)    174.8573         0.010634   
    268. D(O  27,C  26,C  25,C  24)    -62.2754         0.010634   
    269. D(C  28,O  27,C  26,H  45)    -61.3375         0.018946   
    270. D(C  28,O  27,C  26,H  44)     57.8068         0.018946   
    271. D(C  28,O  27,C  26,C  25)    178.6981         0.018946   
    272. D(C  35,C  28,O  27,C  26)      1.2667         0.023981   
    273. D(C  29,C  28,O  27,C  26)   -178.7960         0.023981   
    274. D(C  31,C  29,C  28,C  35)     -0.0982         0.024203   
    275. D(C  31,C  29,C  28,O  27)    179.9614         0.024203   
    276. D(C  30,C  29,C  28,C  35)   -179.9115         0.024203   
    277. D(C  30,C  29,C  28,O  27)      0.1481         0.024203   
    278. D(H  48,C  30,C  29,C  31)   -122.1687         0.010985   
    279. D(H  48,C  30,C  29,C  28)     57.6462         0.010985   
    280. D(H  47,C  30,C  29,C  31)    119.8173         0.010985   
    281. D(H  47,C  30,C  29,C  28)    -60.3678         0.010985   
    282. D(H  46,C  30,C  29,C  31)     -1.3411         0.010985   
    283. D(H  46,C  30,C  29,C  28)    178.4738         0.010985   
    284. D(H  49,C  31,C  29,C  30)     -0.0422         0.025354   
    285. D(H  49,C  31,C  29,C  28)   -179.8578         0.025354   
    286. D(C  32,C  31,C  29,C  30)    179.8935         0.025354   
    287. D(C  32,C  31,C  29,C  28)      0.0779         0.025354   
    288. D(H  50,C  32,C  31,H  49)      0.0136         0.026365   
    289. D(H  50,C  32,C  31,C  29)   -179.9228         0.026365   
    290. D(C  33,C  32,C  31,H  49)   -179.8866         0.026365   
    291. D(C  33,C  32,C  31,C  29)      0.1770         0.026365   
    292. D(C  35,C  33,C  32,C  31)     -0.4073         0.026168   
    293. D(C  34,C  33,C  32,H  50)      0.6638         0.026168   
    294. D(C  34,C  33,C  32,C  31)   -179.4369         0.026168   
    295. D(C  35,C  33,C  32,H  50)    179.6934         0.026168   
    296. D(H  53,C  34,C  33,C  35)     82.0622         0.011448   
    297. D(H  53,C  34,C  33,C  32)    -98.9127         0.011448   
    298. D(H  52,C  34,C  33,C  35)   -156.3676         0.011448   
    299. D(H  52,C  34,C  33,C  32)     22.6575         0.011448   
    300. D(H  51,C  34,C  33,C  35)    -37.7986         0.011448   
    301. D(H  51,C  34,C  33,C  32)    141.2265         0.011448   
    302. D(H  54,C  35,C  33,C  34)     -0.7189         0.025785   
    303. D(H  54,C  35,C  33,C  32)   -179.7505         0.025785   
    304. D(C  28,C  35,C  33,C  34)    179.4199         0.025785   
    305. D(C  28,C  35,C  33,C  32)      0.3882         0.025785   
    306. D(H  54,C  35,C  28,C  29)   -179.9933         0.024071   
    307. D(H  54,C  35,C  28,O  27)     -0.0569         0.024071   
    308. D(C  33,C  35,C  28,C  29)     -0.1354         0.024071   
    309. D(C  33,C  35,C  28,O  27)    179.8010         0.024071   
    310. D(H  57,C  36,C  22,C  23)   -176.4946         0.009577   
    311. D(H  57,C  36,C  22,C  12)     62.9021         0.009577   
    312. D(H  56,C  36,C  22,C  24)   -179.4054         0.009577   
    313. D(H  56,C  36,C  22,C  23)     62.5468         0.009577   
    314. D(H  56,C  36,C  22,C  12)    -58.0566         0.009577   
    315. D(H  55,C  36,C  22,C  24)     60.9333         0.009577   
    316. D(H  55,C  36,C  22,C  23)    -57.1145         0.009577   
    317. D(H  57,C  36,C  22,C  24)    -58.4468         0.009577   
    318. D(H  55,C  36,C  22,C  12)   -177.7178         0.009577   
    -----------------------------------------------------------------

Number of atoms                         .... 58
Number of degrees of freedom            .... 318

         *************************************************************
         *                GEOMETRY OPTIMIZATION CYCLE   1            *
         *************************************************************
---------------------------------
CARTESIAN COORDINATES (ANGSTROEM)
---------------------------------
  C     -1.101200    1.750300   -0.695300
  C      1.211600    0.933200   -0.800900
  C      0.885400    3.438600   -0.503900
  C      1.854300    2.336600   -1.073800
  C     -0.616100    3.226300   -0.909700
  O     -0.123600    0.848800   -1.292500
  O     -1.428700    4.184200   -0.230900
  O      1.308200    4.776300   -0.815100
  C     -2.504300    1.536800   -1.326100
  O     -3.501000    1.440300   -0.575300
  O     -2.605200    1.436800   -2.570900
  O      1.256300    0.627900    0.578500
  C      1.213400   -0.692500    0.940200
  O      3.195500    2.461300   -0.629300
  O      1.298200   -1.650200    0.161700
  H      1.757800    0.178700   -1.374300
  H      0.935400    3.370200    0.585600
  H     -0.712600    3.467900   -1.973300
  H     -1.206900    1.537800    0.370100
  H     -1.037200    5.054400   -0.410700
  H      2.273200    4.788600   -0.698600
  H      1.928300    2.443800   -2.156400
  C      1.038300   -0.885000    2.480500
  C      1.009400   -2.394400    2.857600
  C     -0.276700   -0.203700    2.981200
  C     -1.605400   -0.710900    2.361700
  C     -2.836000    0.102900    2.791900
  O     -2.993600   -0.013800    4.204600
  C     -4.023800    0.656900    4.837900
  C     -4.118100    0.528500    6.233100
  C     -3.113000   -0.318400    7.001700
  C     -5.137200    1.182700    6.932100
  C     -6.066800    1.964800    6.250000
  C     -5.989100    2.097400    4.864300
  C     -6.992100    2.958400    4.120800
  C     -4.969400    1.448900    4.165200
  C      2.246400   -0.251100    3.220800
  H      0.859000   -2.536500    3.928800
  H      0.209500   -2.935000    2.349700
  H      1.945600   -2.894200    2.602000
  H     -0.342800   -0.315700    4.065600
  H     -0.206100    0.875200    2.824000
  H     -1.550800   -0.688400    1.273100
  H     -1.768700   -1.755100    2.629100
  H     -2.710000    1.147200    2.498500
  H     -3.721600   -0.280600    2.281200
  H     -3.290400   -0.307100    8.077800
  H     -3.151300   -1.352500    6.657600
  H     -2.100300    0.043800    6.820500
  H     -5.212900    1.088900    8.007200
  H     -6.849000    2.466000    6.804400
  H     -6.504200    3.507200    3.314200
  H     -7.445100    3.703200    4.776400
  H     -7.779300    2.342500    3.685300
  H     -4.926200    1.569000    3.093000
  H      2.177600   -0.402100    4.299300
  H      3.196200   -0.684100    2.900900
  H      2.307800    0.827000    3.061100

----------------------------
CARTESIAN COORDINATES (A.U.)
----------------------------
  NO LB      ZA    FRAG     MASS         X           Y           Z
   0 C     6.0000    0    12.011   -2.080966    3.307588   -1.313927
   1 C     6.0000    0    12.011    2.289592    1.763492   -1.513482
   2 C     6.0000    0    12.011    1.673164    6.498012   -0.952233
   3 C     6.0000    0    12.011    3.504119    4.415534   -2.029188
   4 C     6.0000    0    12.011   -1.164260    6.096823   -1.719084
   5 O     8.0000    0    15.999   -0.233570    1.604000   -2.442471
   6 O     8.0000    0    15.999   -2.699852    7.906992   -0.436338
   7 O     8.0000    0    15.999    2.472140    9.025899   -1.540316
   8 C     6.0000    0    12.011   -4.732441    2.904131   -2.505966
   9 O     8.0000    0    15.999   -6.615931    2.721773   -1.087159
  10 O     8.0000    0    15.999   -4.923115    2.715159   -4.858297
  11 O     8.0000    0    15.999    2.374063    1.186559    1.093207
  12 C     6.0000    0    12.011    2.292994   -1.308635    1.776720
  13 O     8.0000    0    15.999    6.038620    4.651183   -1.189205
  14 O     8.0000    0    15.999    2.453242   -3.118426    0.305569
  15 H     1.0000    0     1.008    3.321761    0.337694   -2.597051
  16 H     1.0000    0     1.008    1.767650    6.368755    1.106624
  17 H     1.0000    0     1.008   -1.346619    6.553381   -3.728997
  18 H     1.0000    0     1.008   -2.280710    2.906021    0.699388
  19 H     1.0000    0     1.008   -1.960024    9.551432   -0.776111
  20 H     1.0000    0     1.008    4.295726    9.049143   -1.320163
  21 H     1.0000    0     1.008    3.643959    4.618113   -4.075005
  22 C     6.0000    0    12.011    1.962103   -1.672408    4.687466
  23 C     6.0000    0    12.011    1.907490   -4.524760    5.400081
  24 C     6.0000    0    12.011   -0.522887   -0.384937    5.633652
  25 C     6.0000    0    12.011   -3.033766   -1.343406    4.462966
  26 C     6.0000    0    12.011   -5.359263    0.194453    5.275926
  27 O     8.0000    0    15.999   -5.657084   -0.026078    7.945542
  28 C     6.0000    0    12.011   -7.603880    1.241361    9.142306
  29 C     6.0000    0    12.011   -7.782082    0.998720   11.778852
  30 C     6.0000    0    12.011   -5.882717   -0.601689   13.231295
  31 C     6.0000    0    12.011   -9.707901    2.234979   13.099770
  32 C     6.0000    0    12.011  -11.464591    3.712934   11.810788
  33 C     6.0000    0    12.011  -11.317759    3.963511    9.192194
  34 C     6.0000    0    12.011  -13.213154    5.590566    7.787183
  35 C     6.0000    0    12.011   -9.390805    2.738024    7.871088
  36 C     6.0000    0    12.011    4.245081   -0.474510    6.086430
  37 H     1.0000    0     1.008    1.623275   -4.793290    7.424356
  38 H     1.0000    0     1.008    0.395898   -5.546346    4.440289
  39 H     1.0000    0     1.008    3.676651   -5.469246    4.917067
  40 H     1.0000    0     1.008   -0.647798   -0.596587    7.682870
  41 H     1.0000    0     1.008   -0.389473    1.653888    5.336586
  42 H     1.0000    0     1.008   -2.930587   -1.300887    2.405810
  43 H     1.0000    0     1.008   -3.342359   -3.316658    4.968279
  44 H     1.0000    0     1.008   -5.121158    2.167894    4.721481
  45 H     1.0000    0     1.008   -7.032805   -0.530257    4.310843
  46 H     1.0000    0     1.008   -6.217955   -0.580335   15.264829
  47 H     1.0000    0     1.008   -5.955094   -2.555855   12.581041
  48 H     1.0000    0     1.008   -3.968992    0.082770   12.888877
  49 H     1.0000    0     1.008   -9.850954    2.057723   15.131416
  50 H     1.0000    0     1.008  -12.942734    4.660065   12.858452
  51 H     1.0000    0     1.008  -12.291157    6.627647    6.262930
  52 H     1.0000    0     1.008  -14.069200    6.998034    9.026088
  53 H     1.0000    0     1.008  -14.700747    4.426683    6.964208
  54 H     1.0000    0     1.008   -9.309169    2.964980    5.844923
  55 H     1.0000    0     1.008    4.115067   -0.759859    8.124500
  56 H     1.0000    0     1.008    6.039942   -1.292762    5.481906
  57 H     1.0000    0     1.008    4.361110    1.562804    5.784641

--------------------------------
INTERNAL COORDINATES (ANGSTROEM)
--------------------------------
 C      0   0   0     0.000000000000     0.00000000     0.00000000
 C      1   0   0     2.455167482661     0.00000000     0.00000000
 C      2   1   0     2.543942778855    63.02651294     0.00000000
 C      2   1   3     1.567504239546    95.49514904   343.88881125
 C      1   2   3     1.568395738739    90.91452494    14.17475515
 O      2   1   3     1.425325529768    32.01533092   219.78806763
 O      5   1   2     1.427816568694   112.97601799   212.81971230
 O      3   2   1     1.437026891938   148.62382952   218.34598912
 C      1   2   3     1.553119735894   141.98068235   140.61928545
 O      9   1   2     1.251568385663   119.10376957   133.01706764
 O      9   1   2     1.252879789599   119.16053988   314.54531658
 O      2   1   3     1.413488734956    93.42256380    94.88533243
 C     12   2   1     1.369716560668   117.70530000   106.58136002
 O      4   2   1     1.418431312769   114.32061774   153.04780399
 O     13  12   2     1.237110565974   125.30626835     9.08971915
 H      2   1   3     1.093797195877   136.26321567   219.29010875
 H      3   2   1     1.092789481987    92.80205756    92.78327497
 H      5   1   2     1.094955608903   108.25076301    96.63249748
 H      1   2   3     1.091515406581    93.92281029   263.77619184
 H      7   5   1     0.971003915990   106.48363004   178.85042430
 H      8   3   2     0.972084678591   106.13487366   312.53201569
 H      4   2   1     1.090408445749   106.77992961   267.21728931
 C     13  12   2     1.562126872712   112.49996005   189.21517298
 C     23  13  12     1.556061580441   111.13535288   180.62807962
 C     23  13  12     1.563360237325   110.87791837    58.92473754
 C     25  23  13     1.551281930447   116.74780927    59.94605604
 C     26  25  23     1.536788448623   113.63675195   186.04555618
 O     27  26  25     1.426246032513   108.80996835   297.72458196
 C     28  27  26     1.382830360952   119.75287477   178.69805826
 C     29  28  27     1.404265473239   117.43213316   181.20396083
 C     30  29  28     1.522567596425   120.53574149     0.14809891
 C     30  29  28     1.398264180093   120.18817614   179.96135094
 C     32  30  29     1.393232614492   120.27764018     0.07788424
 C     33  32  30     1.394196968121   120.18552402     0.17700631
 C     34  33  32     1.516615158915   120.29056968   180.56307007
 C     34  33  32     1.396094756773   119.61890501   359.59269702
 C     23  13  12     1.552217446681   109.43279001   298.77789899
 H     24  23  13     1.091000610605   111.52125849   181.61004726
 H     24  23  13     1.090894523256   112.42567154   301.72441199
 H     24  23  13     1.091605272994   111.80538245    62.15225465
 H     25  23  13     1.092170515713   108.91774380   182.70095094
 H     25  23  13     1.092575579478   109.26294846   296.12386803
 H     26  25  23     1.090200650746   110.43327794   307.55541557
 H     26  25  23     1.090194161833   110.09076243    64.01405933
 H     27  26  25     1.092026510659   109.80365201    59.30123167
 H     27  26  25     1.091867325669   109.42418360   177.29425601
 H     31  30  29     1.090683015713   112.63886598   178.47381319
 H     31  30  29     1.090520253222   110.18083384   299.63220602
 H     31  30  29     1.090680188432   110.14241375    57.64623969
 H     32  30  29     1.081836354819   120.47922919   180.14223804
 H     33  32  30     1.081849096645   119.44549129   180.07720275
 H     35  34  33     1.090793906138   110.62973822   141.22654008
 H     35  34  33     1.090755558899   111.57098422    22.65754931
 H     35  34  33     1.090264912470   110.64781575   261.08729972
 H     36  34  33     1.079770216671   118.34625059   180.24947791
 H     37  23  13     1.091190772178   111.45674734   182.28217610
 H     37  23  13     1.091762156473   112.04831034   301.94342379
 H     37  23  13     1.091592261690   112.16895626    62.90206175

---------------------------
INTERNAL COORDINATES (A.U.)
---------------------------
 C      0   0   0     0.000000000000     0.00000000     0.00000000
 C      1   0   0     4.639594155139     0.00000000     0.00000000
 C      2   1   0     4.807355152402    63.02651294     0.00000000
 C      2   1   3     2.962153726503    95.49514904   343.88881125
 C      1   2   3     2.963838415825    90.91452494    14.17475515
 O      2   1   3     2.693474902947    32.01533092   219.78806763
 O      5   1   2     2.698182284307   112.97601799   212.81971230
 O      3   2   1     2.715587272844   148.62382952   218.34598912
 C      1   2   3     2.934970954028   141.98068235   140.61928545
 O      9   1   2     2.365121486776   119.10376957   133.01706764
 O      9   1   2     2.367599681067   119.16053988   314.54531658
 O      2   1   3     2.671106602450    93.42256380    94.88533243
 C     12   2   1     2.588389180759   117.70530000   106.58136002
 O      4   2   1     2.680446720912   114.32061774   153.04780399
 O     13  12   2     2.337800167071   125.30626835     9.08971915
 H      2   1   3     2.066977146258   136.26321567   219.29010875
 H      3   2   1     2.065072842986    92.80205756    92.78327497
 H      5   1   2     2.069166229628   108.25076301    96.63249748
 H      1   2   3     2.062665189394    93.92281029   263.77619184
 H      7   5   1     1.834931476186   106.48363004   178.85042430
 H      8   3   2     1.836973821518   106.13487366   312.53201569
 H      4   2   1     2.060573336580   106.77992961   267.21728931
 C     13  12   2     2.951991975865   112.49996005   189.21517298
 C     23  13  12     2.940530234550   111.13535288   180.62807962
 C     23  13  12     2.954322697206   110.87791837    58.92473754
 C     25  23  13     2.931498005046   116.74780927    59.94605604
 C     26  25  23     2.904109293671   113.63675195   186.04555618
 O     27  26  25     2.695214401042   108.80996835   297.72458196
 C     28  27  26     2.613170671870   119.75287477   178.69805826
 C     29  28  27     2.653677163742   117.43213316   181.20396083
 C     30  29  28     2.877235777625   120.53574149     0.14809891
 C     30  29  28     2.642336363247   120.18817614   179.96135094
 C     32  30  29     2.632828082237   120.27764018     0.07788424
 C     33  32  30     2.634650446492   120.18552402     0.17700631
 C     34  33  32     2.865987300902   120.29056968   180.56307007
 C     34  33  32     2.638236747304   119.61890501   359.59269702
 C     23  13  12     2.933265874522   109.43279001   298.77789899
 H     24  23  13     2.061692365984   111.52125849   181.61004726
 H     24  23  13     2.061491889948   112.42567154   301.72441199
 H     24  23  13     2.062835012303   111.80538245    62.15225465
 H     25  23  13     2.063903166240   108.91774380   182.70095094
 H     25  23  13     2.064668625824   109.26294846   296.12386803
 H     26  25  23     2.060180660934   110.43327794   307.55541557
 H     26  25  23     2.060168398664   110.09076243    64.01405933
 H     27  26  25     2.063631036127   109.80365201    59.30123167
 H     27  26  25     2.063330220092   109.42418360   177.29425601
 H     31  30  29     2.061092198616   112.63886598   178.47381319
 H     31  30  29     2.060784622085   110.18083384   299.63220602
 H     31  30  29     2.061086855830   110.14241375    57.64623969
 H     32  30  29     2.044374432328   120.47922919   180.14223804
 H     33  32  30     2.044398510890   119.44549129   180.07720275
 H     35  34  33     2.061301751151   110.62973822   141.22654008
 H     35  34  33     2.061229285370   111.57098422    22.65754931
 H     35  34  33     2.060302097991   110.64781575   261.08729972
 H     36  34  33     2.040469997073   118.34625059   180.24947791
 H     37  23  13     2.062051719278   111.45674734   182.28217610
 H     37  23  13     2.063131479113   112.04831034   301.94342379
 H     37  23  13     2.062810424502   112.16895626    62.90206175

---------------------
BASIS SET INFORMATION
---------------------
There are 3 groups of distinct atoms

 Group   1 Type C   : 11s5p1d contracted to 4s3p1d pattern {6311/311/1}
 Group   2 Type O   : 11s5p1d contracted to 4s3p1d pattern {6311/311/1}
 Group   3 Type H   : 4s1p contracted to 2s1p pattern {31/1}

Atom   0C    basis set group =>   1
Atom   1C    basis set group =>   1
Atom   2C    basis set group =>   1
Atom   3C    basis set group =>   1
Atom   4C    basis set group =>   1
Atom   5O    basis set group =>   2
Atom   6O    basis set group =>   2
Atom   7O    basis set group =>   2
Atom   8C    basis set group =>   1
Atom   9O    basis set group =>   2
Atom  10O    basis set group =>   2
Atom  11O    basis set group =>   2
Atom  12C    basis set group =>   1
Atom  13O    basis set group =>   2
Atom  14O    basis set group =>   2
Atom  15H    basis set group =>   3
Atom  16H    basis set group =>   3
Atom  17H    basis set group =>   3
Atom  18H    basis set group =>   3
Atom  19H    basis set group =>   3
Atom  20H    basis set group =>   3
Atom  21H    basis set group =>   3
Atom  22C    basis set group =>   1
Atom  23C    basis set group =>   1
Atom  24C    basis set group =>   1
Atom  25C    basis set group =>   1
Atom  26C    basis set group =>   1
Atom  27O    basis set group =>   2
Atom  28C    basis set group =>   1
Atom  29C    basis set group =>   1
Atom  30C    basis set group =>   1
Atom  31C    basis set group =>   1
Atom  32C    basis set group =>   1
Atom  33C    basis set group =>   1
Atom  34C    basis set group =>   1
Atom  35C    basis set group =>   1
Atom  36C    basis set group =>   1
Atom  37H    basis set group =>   3
Atom  38H    basis set group =>   3
Atom  39H    basis set group =>   3
Atom  40H    basis set group =>   3
Atom  41H    basis set group =>   3
Atom  42H    basis set group =>   3
Atom  43H    basis set group =>   3
Atom  44H    basis set group =>   3
Atom  45H    basis set group =>   3
Atom  46H    basis set group =>   3
Atom  47H    basis set group =>   3
Atom  48H    basis set group =>   3
Atom  49H    basis set group =>   3
Atom  50H    basis set group =>   3
Atom  51H    basis set group =>   3
Atom  52H    basis set group =>   3
Atom  53H    basis set group =>   3
Atom  54H    basis set group =>   3
Atom  55H    basis set group =>   3
Atom  56H    basis set group =>   3
Atom  57H    basis set group =>   3
---------------------------------
AUXILIARY/J BASIS SET INFORMATION
---------------------------------
There are 3 groups of distinct atoms

 Group   1 Type C   : 12s5p4d2f1g contracted to 6s4p3d1f1g pattern {711111/2111/211/2/1}
 Group   2 Type O   : 12s5p4d2f1g contracted to 6s4p3d1f1g pattern {711111/2111/211/2/1}
 Group   3 Type H   : 5s2p1d contracted to 3s1p1d pattern {311/2/1}

Atom   0C    basis set group =>   1
Atom   1C    basis set group =>   1
Atom   2C    basis set group =>   1
Atom   3C    basis set group =>   1
Atom   4C    basis set group =>   1
Atom   5O    basis set group =>   2
Atom   6O    basis set group =>   2
Atom   7O    basis set group =>   2
Atom   8C    basis set group =>   1
Atom   9O    basis set group =>   2
Atom  10O    basis set group =>   2
Atom  11O    basis set group =>   2
Atom  12C    basis set group =>   1
Atom  13O    basis set group =>   2
Atom  14O    basis set group =>   2
Atom  15H    basis set group =>   3
Atom  16H    basis set group =>   3
Atom  17H    basis set group =>   3
Atom  18H    basis set group =>   3
Atom  19H    basis set group =>   3
Atom  20H    basis set group =>   3
Atom  21H    basis set group =>   3
Atom  22C    basis set group =>   1
Atom  23C    basis set group =>   1
Atom  24C    basis set group =>   1
Atom  25C    basis set group =>   1
Atom  26C    basis set group =>   1
Atom  27O    basis set group =>   2
Atom  28C    basis set group =>   1
Atom  29C    basis set group =>   1
Atom  30C    basis set group =>   1
Atom  31C    basis set group =>   1
Atom  32C    basis set group =>   1
Atom  33C    basis set group =>   1
Atom  34C    basis set group =>   1
Atom  35C    basis set group =>   1
Atom  36C    basis set group =>   1
Atom  37H    basis set group =>   3
Atom  38H    basis set group =>   3
Atom  39H    basis set group =>   3
Atom  40H    basis set group =>   3
Atom  41H    basis set group =>   3
Atom  42H    basis set group =>   3
Atom  43H    basis set group =>   3
Atom  44H    basis set group =>   3
Atom  45H    basis set group =>   3
Atom  46H    basis set group =>   3
Atom  47H    basis set group =>   3
Atom  48H    basis set group =>   3
Atom  49H    basis set group =>   3
Atom  50H    basis set group =>   3
Atom  51H    basis set group =>   3
Atom  52H    basis set group =>   3
Atom  53H    basis set group =>   3
Atom  54H    basis set group =>   3
Atom  55H    basis set group =>   3
Atom  56H    basis set group =>   3
Atom  57H    basis set group =>   3


           ************************************************************
           *        Program running with 24 parallel MPI-processes    *
           *              working on a common directory               *
           ************************************************************
------------------------------------------------------------------------------
                           ORCA GTO INTEGRAL CALCULATION
                           -- RI-GTO INTEGRALS CHOSEN --
------------------------------------------------------------------------------
------------------------------------------------------------------------------
                   ___                                                        
                  /   \      - P O W E R E D   B Y -                         
                 /     \                                                     
                 |  |  |   _    _      __       _____    __    __             
                 |  |  |  | |  | |    /  \     |  _  \  |  |  /  |          
                  \  \/   | |  | |   /    \    | | | |  |  | /  /          
                 / \  \   | |__| |  /  /\  \   | |_| |  |  |/  /          
                |  |  |   |  __  | /  /__\  \  |    /   |      \           
                |  |  |   | |  | | |   __   |  |    \   |  |\   \          
                \     /   | |  | | |  |  |  |  | |\  \  |  | \   \       
                 \___/    |_|  |_| |__|  |__|  |_| \__\ |__|  \__/        
                                                                              
                      - O R C A' S   B I G   F R I E N D -                    
                                      &                                       
                       - I N T E G R A L  F E E D E R -                       
                                                                              
 v1 FN, 2020, v2 2021                                                         
------------------------------------------------------------------------------


Reading SHARK input file gemfi_alfa_minima_1_Compound_1.SHARKINP.tmp ... ok
----------------------
SHARK INTEGRAL PACKAGE
----------------------

Number of atoms                             ...     58
Number of basis functions                   ...    680
Number of shells                            ...    324
Maximum angular momentum                    ...      2
Integral batch strategy                     ... SHARK/LIBINT Hybrid
RI-J (if used) integral strategy            ... SPLIT-RIJ (Revised 2003 algorithm where possible)
Printlevel                                  ...      1
Contraction scheme used                     ... SEGMENTED contraction
Coulomb Range Separation                    ... NOT USED
Exchange Range Separation                   ... NOT USED
Finite Nucleus Model                        ... NOT USED
Auxiliary Coulomb fitting basis             ... AVAILABLE
   # of basis functions in Aux-J            ...   1778
   # of shells in Aux-J                     ...    590
   Maximum angular momentum in Aux-J        ...      4
Auxiliary J/K fitting basis                 ... NOT available
Auxiliary Correlation fitting basis         ... NOT available
Auxiliary 'external' fitting basis          ... NOT available
Integral threshold                          ...     2.500000e-11
Primitive cut-off                           ...     2.500000e-12
Primitive pair pre-selection threshold      ...     2.500000e-12

Calculating pre-screening integrals         ... done (  0.1 sec) Dimension = 324
Organizing shell pair data                  ... done (  0.3 sec)
Shell pair information
Total number of shell pairs                 ...     52650
Shell pairs after pre-screening             ...     37012
Total number of primitive shell pairs       ...    212289
Primitive shell pairs kept                  ...     89853
          la=0 lb=0:  10867 shell pairs
          la=1 lb=0:  15205 shell pairs
          la=1 lb=1:   5373 shell pairs
          la=2 lb=0:   3114 shell pairs
          la=2 lb=1:   2247 shell pairs
          la=2 lb=2:    206 shell pairs

Calculating one electron integrals          ... done (  0.0 sec)
Calculating RI/J V-Matrix + Cholesky decomp.... done (  0.8 sec)
Calculating Nuclear repulsion               ... done (  0.0 sec) ENN=   3084.737861140142 Eh

SHARK setup successfully completed in   3.9 seconds

Maximum memory used throughout the entire GTOINT-calculation: 56.7 MB


           ************************************************************
           *        Program running with 24 parallel MPI-processes    *
           *              working on a common directory               *
           ************************************************************
-------------------------------------------------------------------------------
                                 ORCA SCF
-------------------------------------------------------------------------------

------------
SCF SETTINGS
------------
Hamiltonian:
 Density Functional     Method          .... DFT(GTOs)
 Exchange Functional    Exchange        .... M062X
 Correlation Functional Correlation     .... M062X
 Gradients option       PostSCFGGA      .... off
 Hybrid DFT is turned on
   Fraction HF Exchange ScalHFX         ....  0.540000
   Scaling of DF-GGA-X  ScalDFX         ....  0.460000
   Scaling of DF-GGA-C  ScalDFC         ....  1.000000
   Scaling of DF-LDA-C  ScalLDAC        ....  1.000000
   Perturbative correction              ....  0.000000
   Density functional embedding theory  .... OFF
 RI-approximation to the Coulomb term is turned on
   Number of AuxJ basis functions       .... 1778
   RIJ-COSX (HFX calculated with COS-X)).... on


General Settings:
 Integral files         IntName         .... gemfi_alfa_minima_1_Compound_1
 Hartree-Fock type      HFTyp           .... RHF
 Total Charge           Charge          ....   -2
 Multiplicity           Mult            ....    1
 Number of Electrons    NEL             ....  228
 Basis Dimension        Dim             ....  680
 Nuclear Repulsion      ENuc            ....   3084.7378611401 Eh

Convergence Acceleration:
 DIIS                   CNVDIIS         .... on
   Start iteration      DIISMaxIt       ....    12
   Startup error        DIISStart       ....  0.200000
   # of expansion vecs  DIISMaxEq       ....     5
   Bias factor          DIISBfac        ....   1.050
   Max. coefficient     DIISMaxC        ....  10.000
 Trust-Rad. Augm. Hess. CNVTRAH         .... auto
   Auto Start mean grad. ratio tolernc. ....  1.125000
   Auto Start start iteration           ....    20
   Auto Start num. interpolation iter.  ....    10
   Max. Number of Micro iterations      ....    16
   Max. Number of Macro iterations      .... Maxiter - #DIIS iter
   Number of Davidson start vectors     ....     2
   Converg. threshold I  (grad. norm)   ....   1.000e-05
   Converg. threshold II (energy diff.) ....   1.000e-08
   Grad. Scal. Fac. for Micro threshold ....   0.100
   Minimum threshold for Micro iter.    ....   0.010
   NR start threshold (gradient norm)   ....   0.001
   Initial trust radius                 ....   0.400
   Minimum AH scaling param. (alpha)    ....   1.000
   Maximum AH scaling param. (alpha)    .... 1000.000
   Orbital update algorithm             .... Taylor
   White noise on init. David. guess    .... on
   Maximum white noise                  ....   0.010
   Quad. conv. algorithm                .... NR
 SOSCF                  CNVSOSCF        .... on
   Start iteration      SOSCFMaxIt      ....   150
   Startup grad/error   SOSCFStart      ....  0.003300
 Level Shifting         CNVShift        .... on
   Level shift para.    LevelShift      ....    0.2500
   Turn off err/grad.   ShiftErr        ....    0.0010
 Zerner damping         CNVZerner       .... off
 Static damping         CNVDamp         .... on
   Fraction old density DampFac         ....    0.7000
   Max. Damping (<1)    DampMax         ....    0.9800
   Min. Damping (>=0)   DampMin         ....    0.0000
   Turn off err/grad.   DampErr         ....    0.1000
 Fernandez-Rico         CNVRico         .... off

SCF Procedure:
 Maximum # iterations   MaxIter         ....   125
 SCF integral mode      SCFMode         .... Direct
   Integral package                     .... SHARK and LIBINT hybrid scheme
 Reset frequency        DirectResetFreq ....    20
 Integral Threshold     Thresh          ....  2.500e-11 Eh
 Primitive CutOff       TCut            ....  2.500e-12 Eh

Convergence Tolerance:
 Convergence Check Mode ConvCheckMode   .... Total+1el-Energy
 Convergence forced     ConvForced      .... 0
 Energy Change          TolE            ....  1.000e-08 Eh
 1-El. energy change                    ....  1.000e-05 Eh
 Orbital Gradient       TolG            ....  1.000e-05
 Orbital Rotation angle TolX            ....  1.000e-05
 DIIS Error             TolErr          ....  5.000e-07


Diagonalization of the overlap matrix:
Smallest eigenvalue                        ... 4.213e-07
Time for diagonalization                   ...    0.122 sec
Threshold for overlap eigenvalues          ... 1.000e-08
Number of eigenvalues below threshold      ... 0
Time for construction of square roots      ...    0.093 sec
Total time needed                          ...    0.222 sec

Time for model grid setup =    0.533 sec

------------------------------
INITIAL GUESS: MODEL POTENTIAL
------------------------------
Loading Hartree-Fock densities                     ... done
Calculating cut-offs                               ... done
Initializing the effective Hamiltonian             ... done
Setting up the integral package (SHARK)            ... done
Starting the Coulomb interaction                   ... done (   0.5 sec)
Reading the grid                                   ... done
Mapping shells                                     ... done
Starting the XC term evaluation                    ... done (   0.2 sec)
  promolecular density results
     # of electrons  =    225.987016413
     EX              =   -188.919009986
     EC              =     -7.595896458
     EX+EC           =   -196.514906444
Transforming the Hamiltonian                       ... done (   0.1 sec)
Diagonalizing the Hamiltonian                      ... done (   0.1 sec)
Back transforming the eigenvectors                 ... done (   0.0 sec)
Now organizing SCF variables                       ... done
                      ------------------
                      INITIAL GUESS DONE (   1.6 sec)
                      ------------------
-------------------
DFT GRID GENERATION
-------------------

General Integration Accuracy     IntAcc      ... 4.388
Radial Grid Type                 RadialGrid  ... OptM3 with GC (2021)
Angular Grid (max. ang.)         AngularGrid ... 4 (Lebedev-302)
Angular grid pruning method      GridPruning ... 4 (adaptive)
Weight generation scheme         WeightScheme... Becke
Basis function cutoff            BFCut       ... 1.0000e-11
Integration weight cutoff        WCut        ... 1.0000e-14
Angular grids for H and He will be reduced by one unit
Partially contracted basis set               ... off
Rotationally invariant grid construction     ... off

Total number of grid points                  ...   274850
Total number of batches                      ...     4324
Average number of points per batch           ...       63
Average number of grid points per atom       ...     4739
Time for grid setup =    2.108 sec

--------------------
COSX GRID GENERATION
--------------------

GRIDX 1
-------
General Integration Accuracy     IntAcc      ... 3.816
Radial Grid Type                 RadialGrid  ... OptM3 with GC (2021)
Angular Grid (max. ang.)         AngularGrid ... 1 (Lebedev-50)
Angular grid pruning method      GridPruning ... 4 (adaptive)
Weight generation scheme         WeightScheme... Becke
Basis function cutoff            BFCut       ... 1.0000e-11
Integration weight cutoff        WCut        ... 1.0000e-14
Angular grids for H and He will be reduced by one unit
Partially contracted basis set               ... on
Rotationally invariant grid construction     ... off

Total number of grid points                  ...    34860
Total number of batches                      ...      575
Average number of points per batch           ...       60
Average number of grid points per atom       ...      601
UseSFitting                                  ... on

GRIDX 2
-------
General Integration Accuracy     IntAcc      ... 4.020
Radial Grid Type                 RadialGrid  ... OptM3 with GC (2021)
Angular Grid (max. ang.)         AngularGrid ... 2 (Lebedev-110)
Angular grid pruning method      GridPruning ... 4 (adaptive)
Weight generation scheme         WeightScheme... Becke
Basis function cutoff            BFCut       ... 1.0000e-11
Integration weight cutoff        WCut        ... 1.0000e-14
Angular grids for H and He will be reduced by one unit
Partially contracted basis set               ... on
Rotationally invariant grid construction     ... off

Total number of grid points                  ...    79952
Total number of batches                      ...     1276
Average number of points per batch           ...       62
Average number of grid points per atom       ...     1378
UseSFitting                                  ... on

GRIDX 3
-------
General Integration Accuracy     IntAcc      ... 4.338
Radial Grid Type                 RadialGrid  ... OptM3 with GC (2021)
Angular Grid (max. ang.)         AngularGrid ... 3 (Lebedev-194)
Angular grid pruning method      GridPruning ... 4 (adaptive)
Weight generation scheme         WeightScheme... Becke
Basis function cutoff            BFCut       ... 1.0000e-11
Integration weight cutoff        WCut        ... 1.0000e-14
Angular grids for H and He will be reduced by one unit
Partially contracted basis set               ... on
Rotationally invariant grid construction     ... off

Total number of grid points                  ...   172089
Total number of batches                      ...     2721
Average number of points per batch           ...       63
Average number of grid points per atom       ...     2967
UseSFitting                                  ... on

Time for X-Grid setup             =    2.535 sec


--------------------
CPCM SOLVATION MODEL
--------------------
CPCM parameters:
  Epsilon                                         ...      80.4000
  Refrac                                          ...       1.3300
  Rsolv                                           ...       1.3000
  Surface type                                    ... GAUSSIAN VDW
  Epsilon function type                           ...         CPCM
Radii:
 Radius for C  used is    3.8550 Bohr (=   2.0400 Ang.)
 Radius for O  used is    3.4469 Bohr (=   1.8240 Ang.)
 Radius for H  used is    2.4944 Bohr (=   1.3200 Ang.)
Calculating surface                               ...        done! (  0.0s)
GEPOL surface points                              ...         3065
GEPOL Volume                                      ...    3360.8811
GEPOL Surface-area                                ...    1726.6535
Calculating surface distance matrix               ...        done! (  0.1s)
Performing Cholesky decomposition & store         ...        done! (  0.7s)
Overall time for CPCM initialization              ...                 0.8s
--------------
SCF ITERATIONS
--------------
ITER       Energy         Delta-E        Max-DP      RMS-DP      [F,P]     Damp
               ***  Starting incremental Fock matrix formation  ***
  0  -1492.9031520548   0.000000000000 2.08802195  0.00727331  0.3585513 0.7000
  1  -1493.3239902992  -0.420838244465 1.22925502  0.00624562  0.1595484 0.7000
                               ***Turning on DIIS***
  2  -1493.5091830954  -0.185192796212 2.96150890  0.01295439  0.0563774 0.0000
  3  -1493.8065673326  -0.297384237141 1.85030088  0.00725139  0.0862505 0.0000
  4  -1493.8608768184  -0.054309485828 0.73808251  0.00297342  0.0176841 0.0000
  5  -1493.8629008250  -0.002024006617 0.22443716  0.00115257  0.0063183 0.0000
                      *** Initiating the SOSCF procedure ***
                           *** Shutting down DIIS ***
                      *** Re-Reading the Fockian *** 
                      *** Removing any level shift *** 
ITER      Energy       Delta-E        Grad      Rot      Max-DP    RMS-DP
  6  -1493.86309101  -0.0001901831  0.000252  0.000252  0.134710  0.000636
               *** Restarting incremental Fock matrix formation ***
  7  -1493.86352939  -0.0004383802  0.000218  0.000717  0.264728  0.001829
  8  -1493.86353458  -0.0000051958  0.000158  0.000310  0.092599  0.000658
  9  -1493.86353747  -0.0000028827  0.000041  0.000090  0.096663  0.000662
 10  -1493.86353798  -0.0000005138  0.000023  0.000047  0.071062  0.000275
 11  -1493.86353805  -0.0000000673  0.000012  0.000012  0.057226  0.000226
                  ***Gradient check signals convergence***
              ***Rediagonalizing the Fockian in SOSCF/NRSCF***

               *****************************************************
               *                     SUCCESS                       *
               *           SCF CONVERGED AFTER  12 CYCLES          *
               *****************************************************

Old exchange energy                            =   -104.315310479 Eh
New exchange energy                            =   -104.315296911 Eh
Exchange energy change after final integration =      0.000013568 Eh
Total energy after final integration           =  -1493.863524480 Eh
Final COS-X integration done in                =    15.749 sec

----------------
TOTAL SCF ENERGY
----------------

Total Energy       :        -1493.86352448 Eh          -40650.09311 eV

Components:
Nuclear Repulsion  :         3084.73786114 Eh           83939.98463 eV
Electronic Energy  :        -4578.60138562 Eh         -124590.07774 eV
One Electron Energy:        -8225.74461103 Eh         -223833.89036 eV
Two Electron Energy:         3647.14322541 Eh           99243.81262 eV
Max COSX asymmetry :            0.00011659 Eh               0.00317 eV
CPCM Dielectric    :           -0.31274264 Eh              -8.51016 eV

Virial components:
Potential Energy   :        -2976.79124080 Eh          -81002.60776 eV
Kinetic Energy     :         1482.92771632 Eh           40352.51464 eV
Virial Ratio       :            2.00737447


DFT components:
N(Alpha)           :      113.999972377613 electrons
N(Beta)            :      113.999972377613 electrons
N(Total)           :      227.999944755226 electrons
E(XC)              :      -97.226043156781 Eh       
DFET-embed. en.    :        0.000000000000 Eh       
CPCM Solvation Model Properties:
Surface-charge          :            1.94878434
Charge-correction       :           -0.01076192 Eh              -0.29285 eV
Free-energy (cav+disp)  :  This term is not implemented in the current solvation scheme

---------------
SCF CONVERGENCE
---------------

  Last Energy change         ...   -7.3555e-10  Tolerance :   1.0000e-08
  Last MAX-Density change    ...    8.8818e-15  Tolerance :   1.0000e-07
  Last RMS-Density change    ...    5.6407e-17  Tolerance :   5.0000e-09
  Last Orbital Gradient      ...    2.3831e-06  Tolerance :   1.0000e-05
  Last Orbital Rotation      ...    2.9013e-06  Tolerance :   1.0000e-05

             **** THE GBW FILE WAS UPDATED (gemfi_alfa_minima_1_Compound_1.gbw) ****
             **** DENSITY gemfi_alfa_minima_1_Compound_1.scfp WAS UPDATED ****
             **** ENERGY FILE WAS UPDATED (gemfi_alfa_minima_1_Compound_1.en.tmp) ****
             **** THE GBW FILE WAS UPDATED (gemfi_alfa_minima_1_Compound_1.gbw) ****
             **** DENSITY gemfi_alfa_minima_1_Compound_1.scfp WAS UPDATED ****
----------------
ORBITAL ENERGIES
----------------

  NO   OCC          E(Eh)            E(eV) 
   0   2.0000     -19.697972      -536.0091 
   1   2.0000     -19.674407      -535.3678 
   2   2.0000     -19.661730      -535.0229 
   3   2.0000     -19.652517      -534.7722 
   4   2.0000     -19.647941      -534.6476 
   5   2.0000     -19.644044      -534.5416 
   6   2.0000     -19.583865      -532.9041 
[...]
      py      :     0.014293
 22 C s       :     2.788524  s :     2.788524
      pz      :     1.041949  p :     3.246323
      px      :     1.098880
      py      :     1.105494
      dz2     :     0.050356  d :     0.176085
      dxz     :     0.026341
      dyz     :     0.025344
      dx2y2   :     0.039802
      dxy     :     0.034241
 23 C s       :     2.783497  s :     2.783497
      pz      :     1.091137  p :     3.230050
      px      :     1.096644
      py      :     1.042269
      dz2     :     0.022371  d :     0.093784
      dxz     :     0.012165
      dyz     :     0.014396
      dx2y2   :     0.022357
      dxy     :     0.022495
 24 C s       :     2.779463  s :     2.779463
      pz      :     1.078261  p :     3.210210
      px      :     1.052121
      py      :     1.079827
      dz2     :     0.034161  d :     0.124849
      dxz     :     0.023162
      dyz     :     0.007699
      dx2y2   :     0.036845
      dxy     :     0.022982
 25 C s       :     2.779610  s :     2.779610
      pz      :     1.070261  p :     3.213846
      px      :     1.057647
      py      :     1.085937
      dz2     :     0.033336  d :     0.121988
      dxz     :     0.017085
      dyz     :     0.008669
      dx2y2   :     0.032574
      dxy     :     0.030323
 26 C s       :     2.771285  s :     2.771285
      pz      :     0.841639  p :     3.042584
      px      :     1.103614
      py      :     1.097331
      dz2     :     0.070195  d :     0.199352
      dxz     :     0.039296
      dyz     :     0.040216
      dx2y2   :     0.027661
      dxy     :     0.021984
 27 O s       :     3.397229  s :     3.397229
      pz      :     1.452421  p :     4.799886
      px      :     1.634907
      py      :     1.712557
      dz2     :     0.008010  d :     0.024371
      dxz     :     0.004973
      dyz     :     0.003879
      dx2y2   :     0.002843
      dxy     :     0.004666
 28 C s       :     2.748216  s :     2.748216
      pz      :     1.101067  p :     3.031572
      px      :     0.969468
      py      :     0.961037
      dz2     :     0.059815  d :     0.258948
      dxz     :     0.060548
      dyz     :     0.043811
      dx2y2   :     0.048634
      dxy     :     0.046140
 29 C s       :     2.776401  s :     2.776401
      pz      :     1.090373  p :     3.187708
      px      :     1.070932
      py      :     1.026403
      dz2     :     0.048859  d :     0.157002
      dxz     :     0.038386
      dyz     :     0.027741
      dx2y2   :     0.020919
      dxy     :     0.021097
 30 C s       :     2.776220  s :     2.776220
      pz      :     1.073224  p :     3.221592
      px      :     1.066878
      py      :     1.081490
      dz2     :     0.026935  d :     0.093624
      dxz     :     0.014762
      dyz     :     0.009426
      dx2y2   :     0.027221
      dxy     :     0.015281
 31 C s       :     2.787008  s :     2.787008
      pz      :     1.071444  p :     3.151030
      px      :     1.066264
      py      :     1.013322
      dz2     :     0.036886  d :     0.133003
      dxz     :     0.030098
      dyz     :     0.016911
      dx2y2   :     0.025662
      dxy     :     0.023445
 32 C s       :     2.785647  s :     2.785647
      pz      :     1.098007  p :     3.195620
      px      :     1.061182
      py      :     1.036431
      dz2     :     0.038340  d :     0.129928
      dxz     :     0.039352
      dyz     :     0.027708
      dx2y2   :     0.010054
      dxy     :     0.014474
 33 C s       :     2.788806  s :     2.788806
      pz      :     1.130617  p :     3.161461
      px      :     1.045606
      py      :     0.985238
      dz2     :     0.043503  d :     0.164845
      dxz     :     0.046519
      dyz     :     0.034063
      dx2y2   :     0.020283
      dxy     :     0.020478
 34 C s       :     2.783214  s :     2.783214
      pz      :     1.081140  p :     3.229108
      px      :     1.065706
      py      :     1.082261
      dz2     :     0.005416  d :     0.092064
      dxz     :     0.027489
      dyz     :     0.026475
      dx2y2   :     0.009477
      dxy     :     0.023206
 35 C s       :     2.770620  s :     2.770620
      pz      :     1.074996  p :     3.209572
      px      :     1.075927
      py      :     1.058649
      dz2     :     0.033372  d :     0.124418
      dxz     :     0.030517
      dyz     :     0.017596
      dx2y2   :     0.020879
      dxy     :     0.022054
 36 C s       :     2.788454  s :     2.788454
      pz      :     1.072805  p :     3.212480
      px      :     1.050443
      py      :     1.089232
      dz2     :     0.025928  d :     0.093957
      dxz     :     0.017740
      dyz     :     0.007596
      dx2y2   :     0.027415
      dxy     :     0.015278
 37 H s       :     0.847637  s :     0.847637
      pz      :     0.040058  p :     0.068235
      px      :     0.013922
      py      :     0.014254
 38 H s       :     0.848046  s :     0.848046
      pz      :     0.021458  p :     0.069422
      px      :     0.030326
      py      :     0.017639
 39 H s       :     0.850854  s :     0.850854
      pz      :     0.016260  p :     0.068735
      px      :     0.033846
      py      :     0.018628
 40 H s       :     0.834695  s :     0.834695
      pz      :     0.041916  p :     0.069626
      px      :     0.013210
      py      :     0.014500
 41 H s       :     0.827460  s :     0.827460
      pz      :     0.014146  p :     0.070049
      px      :     0.013066
      py      :     0.042836
 42 H s       :     0.832190  s :     0.832190
      pz      :     0.042312  p :     0.069319
      px      :     0.013255
      py      :     0.013752
 43 H s       :     0.839514  s :     0.839514
      pz      :     0.015973  p :     0.069601
      px      :     0.014886
      py      :     0.038742
 44 H s       :     0.840502  s :     0.840502
      pz      :     0.012560  p :     0.067457
      px      :     0.014089
      py      :     0.040807
 45 H s       :     0.844905  s :     0.844905
      pz      :     0.013382  p :     0.067676
      px      :     0.037119
      py      :     0.017175
 46 H s       :     0.857920  s :     0.857920
      pz      :     0.041161  p :     0.067921
      px      :     0.013280
      py      :     0.013479
 47 H s       :     0.849489  s :     0.849489
      pz      :     0.014380  p :     0.068503
      px      :     0.013393
      py      :     0.040730
 48 H s       :     0.850237  s :     0.850237
      pz      :     0.014519  p :     0.068461
      px      :     0.036905
      py      :     0.017037
 49 H s       :     0.838519  s :     0.838519
      pz      :     0.044463  p :     0.069609
      px      :     0.012098
      py      :     0.013048
 50 H s       :     0.840374  s :     0.840374
      pz      :     0.018671  p :     0.070704
      px      :     0.029980
      py      :     0.022052
 51 H s       :     0.852343  s :     0.852343
      pz      :     0.023391  p :     0.068822
      px      :     0.018019
      py      :     0.027412
 52 H s       :     0.859345  s :     0.859345
      pz      :     0.022630  p :     0.068036
      px      :     0.026289
      py      :     0.019116
 53 H s       :     0.852844  s :     0.852844
      pz      :     0.023847  p :     0.068748
      px      :     0.019768
      py      :     0.025133
 54 H s       :     0.823306  s :     0.823306
      pz      :     0.045495  p :     0.073258
      px      :     0.013031
      py      :     0.014732
 55 H s       :     0.849685  s :     0.849685
      pz      :     0.040582  p :     0.068806
      px      :     0.012961
      py      :     0.015263
 56 H s       :     0.849393  s :     0.849393
      pz      :     0.017656  p :     0.068643
      px      :     0.033326
      py      :     0.017662
 57 H s       :     0.846845  s :     0.846845
      pz      :     0.013466  p :     0.069360
      px      :     0.012969
      py      :     0.042924


                      *****************************
                      * MAYER POPULATION ANALYSIS *
                      *****************************

  NA   - Mulliken gross atomic population
  ZA   - Total nuclear charge
  QA   - Mulliken gross atomic charge
  VA   - Mayer's total valence
  BVA  - Mayer's bonded valence
  FA   - Mayer's free valence

  ATOM       NA         ZA         QA         VA         BVA        FA
  0 C      6.6303     6.0000    -0.6303     4.6863     4.6863     0.0000
  1 C      6.0805     6.0000    -0.0805     3.1982     3.1982    -0.0000
  2 C      6.4522     6.0000    -0.4522     4.1031     4.1031     0.0000
  3 C      6.2271     6.0000    -0.2271     3.7916     3.7916     0.0000
  4 C      5.9125     6.0000     0.0875     3.0814     3.0814     0.0000
  5 O      8.0955     8.0000    -0.0955     1.8646     1.8646    -0.0000
  6 O      8.2833     8.0000    -0.2833     1.8550     1.8550     0.0000
  7 O      8.3621     8.0000    -0.3621     1.7724     1.7724     0.0000
  8 C      5.7250     6.0000     0.2750     3.7316     3.7316    -0.0000
  9 O      8.5271     8.0000    -0.5271     1.6523     1.6523    -0.0000
 10 O      8.5444     8.0000    -0.5444     1.6279     1.6279     0.0000
 11 O      7.9182     8.0000     0.0818     1.4733     1.4733     0.0000
 12 C      6.2940     6.0000    -0.2940     4.0579     4.0579    -0.0000
 13 O      8.8472     8.0000    -0.8472     1.2576     1.2576     0.0000
 14 O      8.3052     8.0000    -0.3052     2.1020     2.1020    -0.0000
 15 H      0.7432     1.0000     0.2568     0.8930     0.8930     0.0000
 16 H      0.7588     1.0000     0.2412     0.9426     0.9426     0.0000
 17 H      0.7575     1.0000     0.2425     0.9096     0.9096     0.0000
 18 H      0.7801     1.0000     0.2199     0.8921     0.8921     0.0000
 19 H      0.6774     1.0000     0.3226     0.9271     0.9271     0.0000
 20 H      0.7004     1.0000     0.2996     0.9712     0.9712     0.0000
 21 H      0.8170     1.0000     0.1830     0.9187     0.9187     0.0000
 22 C      5.3448     6.0000     0.6552     2.5960     2.5960     0.0000
 23 C      6.5882     6.0000    -0.5882     3.7060     3.7060    -0.0000
 24 C      6.6826     6.0000    -0.6826     4.2773     4.2773    -0.0000
 25 C      6.9747     6.0000    -0.9747     3.4987     3.4987    -0.0000
 26 C      5.9781     6.0000     0.0219     3.2343     3.2343    -0.0000
 27 O      8.0571     8.0000    -0.0571     1.2304     1.2304     0.0000
 28 C      6.4515     6.0000    -0.4515     5.4017     5.4017     0.0000
 29 C      4.9074     6.0000     1.0926     2.4113     2.4113    -0.0000
 30 C      6.5959     6.0000    -0.5959     3.2433     3.2433     0.0000
 31 C      6.8433     6.0000    -0.8433     3.5881     3.5881     0.0000
 32 C      6.8803     6.0000    -0.8803     3.8914     3.8914     0.0000
 33 C      6.6300     6.0000    -0.6300     2.7019     2.7019     0.0000
 34 C      6.5991     6.0000    -0.5991     3.3918     3.3918     0.0000
 35 C      4.8012     6.0000     1.1988     2.2881     2.2881    -0.0000
 36 C      6.5236     6.0000    -0.5236     3.4287     3.4287    -0.0000
 37 H      0.8002     1.0000     0.1998     0.9401     0.9401    -0.0000
 38 H      0.7984     1.0000     0.2016     0.9278     0.9278    -0.0000
 39 H      0.8023     1.0000     0.1977     0.9387     0.9387    -0.0000
 40 H      0.7902     1.0000     0.2098     0.9440     0.9440    -0.0000
 41 H      0.7763     1.0000     0.2237     0.9480     0.9480    -0.0000
 42 H      0.7800     1.0000     0.2200     0.9217     0.9217    -0.0000
 43 H      0.7779     1.0000     0.2221     0.9277     0.9277    -0.0000
 44 H      0.7816     1.0000     0.2184     0.9115     0.9115    -0.0000
 45 H      0.7850     1.0000     0.2150     0.9106     0.9106    -0.0000
 46 H      0.8059     1.0000     0.1941     0.9358     0.9358     0.0000
 47 H      0.8016     1.0000     0.1984     0.9250     0.9250     0.0000
 48 H      0.8024     1.0000     0.1976     0.9221     0.9221     0.0000
 49 H      0.8046     1.0000     0.1954     0.9397     0.9397     0.0000
 50 H      0.8105     1.0000     0.1895     0.9437     0.9437     0.0000
 51 H      0.7947     1.0000     0.2053     0.9148     0.9148     0.0000
 52 H      0.8087     1.0000     0.1913     0.9355     0.9355     0.0000
 53 H      0.7952     1.0000     0.2048     0.9145     0.9145     0.0000
 54 H      0.7767     1.0000     0.2233     0.9224     0.9224     0.0000
 55 H      0.7997     1.0000     0.2003     0.9403     0.9403    -0.0000
 56 H      0.7979     1.0000     0.2021     0.9403     0.9403     0.0000
 57 H      0.8134     1.0000     0.1866     0.9365     0.9365    -0.0000

  Mayer bond orders larger than 0.100000
B(  0-C ,  4-C ) :   0.9391 B(  0-C ,  5-O ) :   1.2454 B(  0-C ,  6-O ) :   0.1112 
B(  0-C ,  8-C ) :   0.9722 B(  0-C ,  9-O ) :   0.2382 B(  0-C , 10-O ) :   0.3251 
B(  0-C , 17-H ) :  -0.1098 B(  0-C , 18-H ) :   0.8649 B(  0-C , 25-C ) :   0.1228 
B(  1-C ,  3-C ) :   0.7754 B(  1-C ,  5-O ) :   1.2415 B(  1-C , 11-O ) :   0.8161 
B(  1-C , 13-O ) :  -0.3743 B(  1-C , 14-O ) :  -0.1436 B(  1-C , 15-H ) :   0.9996 
B(  2-C ,  3-C ) :   0.8913 B(  2-C ,  4-C ) :   0.8712 B(  2-C ,  6-O ) :  -0.1343 
B(  2-C ,  7-O ) :   1.5379 B(  2-C , 13-O ) :  -0.1826 B(  2-C , 16-H ) :   1.0543 
B(  3-C ,  5-O ) :  -0.1255 B(  3-C ,  7-O ) :  -0.2050 B(  3-C , 11-O ) :  -0.1594 
B(  3-C , 13-O ) :   1.7347 B(  3-C , 21-H ) :   0.9472 B(  4-C ,  5-O ) :  -0.1884 
B(  4-C ,  6-O ) :   1.2396 B(  4-C ,  7-O ) :  -0.3707 B(  4-C , 10-O ) :  -0.2420 
B(  4-C , 17-H ) :   1.0092 B(  5-O ,  8-C ) :  -0.1965 B(  6-O ,  8-C ) :  -0.1463 
B(  6-O , 19-H ) :   0.8474 B(  7-O , 20-H ) :   0.8520 B(  8-C ,  9-O ) :   1.5178 
B(  8-C , 10-O ) :   1.5513 B(  9-O , 25-C ) :  -0.1342 B(  9-O , 26-C ) :   0.1604 
B( 11-O , 12-C ) :   0.9681 B( 11-O , 14-O ) :  -0.1239 B( 11-O , 22-C ) :  -0.1844 
B( 11-O , 25-C ) :   0.1166 B( 12-C , 14-O ) :   2.2709 B( 12-C , 22-C ) :   0.3987 
B( 12-C , 24-C ) :   0.4122 B( 14-O , 22-C ) :   0.2524 B( 14-O , 25-C ) :  -0.1258 
B( 22-C , 23-C ) :   0.7224 B( 22-C , 24-C ) :   0.9067 B( 22-C , 25-C ) :   0.1176 
B( 22-C , 26-C ) :  -0.1039 B( 22-C , 36-C ) :   0.7039 B( 23-C , 37-H ) :   0.9902 
B( 23-C , 38-H ) :   0.9172 B( 23-C , 39-H ) :   0.9543 B( 24-C , 25-C ) :   0.8026 
B( 24-C , 40-H ) :   1.0136 B( 24-C , 41-H ) :   0.9845 B( 25-C , 26-C ) :   0.5894 
B( 25-C , 28-C ) :   0.1370 B( 25-C , 35-C ) :  -0.1601 B( 25-C , 40-H ) :  -0.1052 
B( 25-C , 41-H ) :   0.1097 B( 25-C , 42-H ) :   0.7768 B( 25-C , 43-H ) :   1.1340 
B( 26-C , 27-O ) :   0.7588 B( 26-C , 28-C ) :  -0.1144 B( 26-C , 41-H ) :  -0.1069 
B( 26-C , 43-H ) :  -0.1170 B( 26-C , 44-H ) :   1.0565 B( 26-C , 45-H ) :   0.9685 
B( 26-C , 54-H ) :   0.1056 B( 27-O , 28-C ) :   1.0163 B( 27-O , 29-C ) :  -0.5904 
B( 27-O , 35-C ) :   0.1974 B( 28-C , 29-C ) :   2.5674 B( 28-C , 30-C ) :   0.2801 
B( 28-C , 31-C ) :   1.2220 B( 28-C , 32-C ) :  -0.2937 B( 28-C , 33-C ) :  -0.1361 
B( 28-C , 35-C ) :   0.7170 B( 28-C , 49-H ) :   0.1881 B( 29-C , 30-C ) :   0.2798 
B( 29-C , 31-C ) :   0.7456 B( 29-C , 32-C ) :  -0.1811 B( 29-C , 33-C ) :   0.2529 
B( 29-C , 46-H ) :  -0.2370 B( 29-C , 54-H ) :  -0.2034 B( 30-C , 31-C ) :  -0.1470 
B( 30-C , 46-H ) :   1.0585 B( 30-C , 47-H ) :   0.9378 B( 30-C , 48-H ) :   0.8887 
B( 31-C , 32-C ) :   1.1018 B( 31-C , 33-C ) :  -0.1719 B( 31-C , 35-C ) :  -0.1672 
B( 31-C , 46-H ) :   0.1176 B( 31-C , 49-H ) :   0.9305 B( 32-C , 33-C ) :   1.5819 
B( 32-C , 34-C ) :   0.2475 B( 32-C , 35-C ) :   0.3720 B( 32-C , 50-H ) :   0.8629 
B( 32-C , 52-H ) :   0.1163 B( 33-C , 34-C ) :   0.8201 B( 33-C , 35-C ) :   0.3616 
B( 33-C , 52-H ) :  -0.2960 B( 33-C , 54-H ) :   0.1522 B( 34-C , 35-C ) :  -0.2909 
B( 34-C , 51-H ) :   0.9360 B( 34-C , 52-H ) :   0.9929 B( 34-C , 53-H ) :   0.9398 
B( 35-C , 52-H ) :   0.1657 B( 35-C , 54-H ) :   0.8932 B( 36-C , 55-H ) :   0.9404 
B( 36-C , 56-H ) :   0.9629 B( 36-C , 57-H ) :   0.9819 

-------
TIMINGS
-------

Total SCF time: 0 days 0 hours 1 min 56 sec 

Total time                  ....     116.086 sec
Sum of individual times     ....     112.353 sec  ( 96.8%)

Fock matrix formation       ....     103.974 sec  ( 89.6%)
  Split-RI-J                ....       8.310 sec  (  8.0% of F)
  Chain of spheres X        ....      70.968 sec  ( 68.3% of F)
  XC integration            ....      11.510 sec  ( 11.1% of F)
    Basis function eval.    ....       1.206 sec  ( 10.5% of XC)
    Density eval.           ....       4.370 sec  ( 38.0% of XC)
    XC-Functional eval.     ....       0.299 sec  (  2.6% of XC)
    XC-Potential eval.      ....       3.360 sec  ( 29.2% of XC)
Diagonalization             ....       0.508 sec  (  0.4%)
Density matrix formation    ....       0.094 sec  (  0.1%)
Population analysis         ....       0.257 sec  (  0.2%)
Initial guess               ....       0.683 sec  (  0.6%)
Orbital Transformation      ....       0.000 sec  (  0.0%)
Orbital Orthonormalization  ....       0.000 sec  (  0.0%)
DIIS solution               ....       0.194 sec  (  0.2%)
SOSCF solution              ....       1.457 sec  (  1.3%)
Grid generation             ....       5.186 sec  (  4.5%)

Maximum memory used throughout the entire SCF-calculation: 292.3 MB

-------------------------   --------------------
FINAL SINGLE POINT ENERGY     -1494.296011093052
-------------------------   --------------------


                            ***************************************
                            *     ORCA property calculations      *
                            ***************************************

                                    ---------------------
                                    Active property flags
                                    ---------------------
   (+) Dipole Moment


------------------------------------------------------------------------------
                       ORCA ELECTRIC PROPERTIES CALCULATION
------------------------------------------------------------------------------

Dipole Moment Calculation                       ... on
Quadrupole Moment Calculation                   ... off
Polarizability Calculation                      ... off
GBWName                                         ... gemfi_alfa_minima_1_Compound_2.gbw
Electron density                                ... gemfi_alfa_minima_1_Compound_2.scfp
The origin for moment calculation is the CENTER OF MASS  = (-2.614445,  2.128959  3.370529)

-------------
DIPOLE MOMENT
-------------
                                X             Y             Z
Electronic contribution:      0.48717       5.12773     -17.18300
Nuclear contribution   :     -3.59776      -7.17192      27.59382
                        -----------------------------------------
Total Dipole Moment    :     -3.11059      -2.04419      10.41082
                        -----------------------------------------
Magnitude (a.u.)       :     11.05620
Magnitude (Debye)      :     28.10263



--------------------
Rotational spectrum 
--------------------
 
Rotational constants in cm-1:     0.006394     0.003231     0.002655 
Rotational constants in MHz :   191.676978    96.877484    79.608081 

 Dipole components along the rotational axes: 
x,y,z [a.u.] :     9.590625     5.190032     1.822920 
x,y,z [Debye]:    24.377432    13.192013     4.633495 

 

Timings for individual modules:

Sum of individual times         ...      121.863 sec (=   2.031 min)
GTO integral calculation        ...        3.690 sec (=   0.061 min)   3.0 %
SCF iterations                  ...      118.173 sec (=   1.970 min)  97.0 %
================================================================================

----- Orbital basis set information -----
Your calculation utilizes the basis: def2-SVP
   F. Weigend and R. Ahlrichs, Phys. Chem. Chem. Phys. 7, 3297 (2005).

                             ****ORCA TERMINATED NORMALLY****
TOTAL RUN TIME: 0 days 2 hours 34 minutes 17 seconds 771 msec
Job execution end: Wed Feb 15 15:21:03 EST 2023
