Job execution start: Fri Mar 31 21:28:41 EDT 2023
Shared library path: /SFS/product/faccts/openmpi/4.1.4/x86-64/lib:/SFS/product/gcc/8.4.0/centos7_x86_64/lib64:/SFS/product/gcc/8.4.0/centos7_x86_64/lib::
PBS Job ID is: 20399.awshpcvapbs001.merck.com
PBS Job name is: ACBNZA01_01
Submitted to the the queue cpu_r5_16xl wtih ncpus=16 and mem=192gb
Working in scratch directory /SFS/fsx/users/for_orca_poc/gairj/orcajob__20399.awshpcvapbs001.merck.com-z6kH
10.114.93.29

                                 *****************
                                 * O   R   C   A *
                                 *****************

                                            #,                                       
                                            ###                                      
                                            ####                                     
                                            #####                                    
                                            ######                                   
                                           ########,                                 
                                     ,,################,,,,,                         
                               ,,#################################,,                 
                          ,,##########################################,,             
                       ,#########################################, ''#####,          
                    ,#############################################,,   '####,        
                  ,##################################################,,,,####,       
                ,###########''''           ''''###############################       
              ,#####''   ,,,,##########,,,,          '''####'''          '####       
            ,##' ,,,,###########################,,,                        '##       
           ' ,,###''''                  '''############,,,                           
         ,,##''                                '''############,,,,        ,,,,,,###''
      ,#''                                            '''#######################'''  
     '                                                          ''''####''''         
             ,#######,   #######,   ,#######,      ##                                
            ,#'     '#,  ##    ##  ,#'     '#,    #''#        ######   ,####,        
            ##       ##  ##   ,#'  ##            #'  '#       #        #'  '#        
            ##       ##  #######   ##           ,######,      #####,   #    #        
            '#,     ,#'  ##    ##  '#,     ,#' ,#      #,         ##   #,  ,#        
             '#######'   ##     ##  '#######'  #'      '#     #####' # '####'        



                  #######################################################
                  #                        -***-                        #
                  #          Department of theory and spectroscopy      #
                  #    Directorship and core code : Frank Neese         #
                  #        Max Planck Institute fuer Kohlenforschung    #
                  #                Kaiser Wilhelm Platz 1               #
                  #                 D-45470 Muelheim/Ruhr               #
                  #                      Germany                        #
                  #                                                     #
                  #                  All rights reserved                #
                  #                        -***-                        #
                  #######################################################


                         Program Version 5.0.3-f.1  -   RELEASE   -


 With contributions from (in alphabetic order):
   Daniel Aravena         : Magnetic Suceptibility
   Michael Atanasov       : Ab Initio Ligand Field Theory (pilot matlab implementation)
   Alexander A. Auer      : GIAO ZORA, VPT2 properties, NMR spectrum
   Ute Becker             : Parallelization
   Giovanni Bistoni       : ED, misc. LED, open-shell LED, HFLD
   Martin Brehm           : Molecular dynamics
   Dmytro Bykov           : SCF Hessian
   Vijay G. Chilkuri      : MRCI spin determinant printing, contributions to CSF-ICE
   Dipayan Datta          : RHF DLPNO-CCSD density
   Achintya Kumar Dutta   : EOM-CC, STEOM-CC
   Dmitry Ganyushin       : Spin-Orbit,Spin-Spin,Magnetic field MRCI
   Miquel Garcia          : C-PCM and meta-GGA Hessian, CC/C-PCM, Gaussian charge scheme
   Yang Guo               : DLPNO-NEVPT2, F12-NEVPT2, CIM, IAO-localization
   Andreas Hansen         : Spin unrestricted coupled pair/coupled cluster methods
   Benjamin Helmich-Paris : MC-RPA, TRAH-SCF, COSX integrals
   Lee Huntington         : MR-EOM, pCC
   Robert Izsak           : Overlap fitted RIJCOSX, COSX-SCS-MP3, EOM
   Marcus Kettner         : VPT2
   Christian Kollmar      : KDIIS, OOCD, Brueckner-CCSD(T), CCSD density, CASPT2, CASPT2-K
   Simone Kossmann        : Meta GGA functionals, TD-DFT gradient, OOMP2, MP2 Hessian
   Martin Krupicka        : Initial AUTO-CI
   Lucas Lang             : DCDCAS
   Marvin Lechner         : AUTO-CI (C++ implementation), FIC-MRCC
   Dagmar Lenk            : GEPOL surface, SMD
   Dimitrios Liakos       : Extrapolation schemes; Compound Job, initial MDCI parallelization
   Dimitrios Manganas     : Further ROCIS development; embedding schemes
   Dimitrios Pantazis     : SARC Basis sets
   Anastasios Papadopoulos: AUTO-CI, single reference methods and gradients
   Taras Petrenko         : DFT Hessian,TD-DFT gradient, ASA, ECA, R-Raman, ABS, FL, XAS/XES, NRVS
   Peter Pinski           : DLPNO-MP2, DLPNO-MP2 Gradient
   Christoph Reimann      : Effective Core Potentials
   Marius Retegan         : Local ZFS, SOC
   Christoph Riplinger    : Optimizer, TS searches, QM/MM, DLPNO-CCSD(T), (RO)-DLPNO pert. Triples
   Tobias Risthaus        : Range-separated hybrids, TD-DFT gradient, RPA, STAB
   Michael Roemelt        : Original ROCIS implementation
   Masaaki Saitow         : Open-shell DLPNO-CCSD energy and density
   Barbara Sandhoefer     : DKH picture change effects
   Avijit Sen             : IP-ROCIS
   Kantharuban Sivalingam : CASSCF convergence, NEVPT2, FIC-MRCI
   Bernardo de Souza      : ESD, SOC TD-DFT
   Georgi Stoychev        : AutoAux, RI-MP2 NMR, DLPNO-MP2 response
   Willem Van den Heuvel  : Paramagnetic NMR
   Boris Wezisla          : Elementary symmetry handling
   Frank Wennmohs         : Technical directorship


 We gratefully acknowledge several colleagues who have allowed us to
 interface, adapt or use parts of their codes:
   Stefan Grimme, W. Hujo, H. Kruse, P. Pracht,  : VdW corrections, initial TS optimization,
                  C. Bannwarth, S. Ehlert          DFT functionals, gCP, sTDA/sTD-DF
   Ed Valeev, F. Pavosevic, A. Kumar             : LibInt (2-el integral package), F12 methods
   Garnet Chan, S. Sharma, J. Yang, R. Olivares  : DMRG
   Ulf Ekstrom                                   : XCFun DFT Library
   Mihaly Kallay                                 : mrcc  (arbitrary order and MRCC methods)
   Jiri Pittner, Ondrej Demel                    : Mk-CCSD
   Frank Weinhold                                : gennbo (NPA and NBO analysis)
   Christopher J. Cramer and Donald G. Truhlar   : smd solvation model
   Lars Goerigk                                  : TD-DFT with DH, B97 family of functionals
   V. Asgeirsson, H. Jonsson                     : NEB implementation
   FAccTs GmbH                                   : IRC, NEB, NEB-TS, DLPNO-Multilevel, CI-OPT
                                                   MM, QMMM, 2- and 3-layer-ONIOM, Crystal-QMMM,
                                                   LR-CPCM, SF, NACMEs, symmetry and pop. for TD-DFT,
                                                   nearIR, NL-DFT gradient (VV10), updates on ESD,
                                                   ML-optimized integration grids
   S Lehtola, MJT Oliveira, MAL Marques          : LibXC Library
   Liviu Ungur et al                             : ANISO software


 Your calculation uses the libint2 library for the computation of 2-el integrals
 For citations please refer to: http://libint.valeyev.net

 Your ORCA version has been built with support for libXC version: 5.1.0
 For citations please refer to: https://tddft.org/programs/libxc/

 This ORCA versions uses:
   CBLAS   interface :  Fast vector & matrix operations
   LAPACKE interface :  Fast linear algebra routines
   SCALAPACK package :  Parallel linear algebra routines
   Shared memory     :  Shared parallel matrices
   BLAS/LAPACK       :  OpenBLAS 0.3.20  USE64BITINT DYNAMIC_ARCH NO_AFFINITY SkylakeX SINGLE_THREADED
        Core in use  :  SkylakeX
   Copyright (c) 2011-2014, The OpenBLAS Project


================================================================================

----- Orbital basis set information -----
Your calculation utilizes the basis: aug-cc-pVQZ 
    H, B-Ne : Obtained from the ccRepo (grant-hill.group.shef.ac.uk/ccrepo) Feb. 2017
              R. A. Kendall, T. H. Dunning, Jr., R. J. Harrison, J. Chem. Phys. 96, 6796 (1992)
         He : Obtained from the ccRepo (grant-hill.group.shef.ac.uk/ccrepo) Feb. 2017
              D. E. Woon, T. H. Dunning, Jr., J. Chem. Phys. 100, 2975 (1994)
  Li-Be, Na : Obtained from the ccRepo (grant-hill.group.shef.ac.uk/ccrepo) Feb. 2017
              B. P. Prascher, D. E. Woon, K. A. Peterson, T. H. Dunning, Jr., A. K. Wilson, Theor. Chem. Acc. 128, 69 (2011)
         Mg : Obtained from the Peterson Research Group Website (tyr0.chem.wsu.edu/~kipeters) Feb. 2017
              B. P. Prascher, D. E. Woon, K. A. Peterson, T. H. Dunning, Jr., A. K. Wilson, Theor. Chem. Acc. 128, 69 (2011)
      Al-Ar : Obtained from the ccRepo (grant-hill.group.shef.ac.uk/ccrepo) Feb. 2017
              D. E. Woon, T. H. Dunning, Jr., J. Chem. Phys. 98, 1358 (1993)
      Sc-Zn : Obtained from the ccRepo (grant-hill.group.shef.ac.uk/ccrepo) Feb. 2017
              N. B. Balabanov, K. A. Peterson, J. Chem. Phys. 123, 064107 (2005)
              N. B. Balabanov, K. A. Peterson, J. Chem. Phys. 125, 074110 (2006)
      Ga-Kr : Obtained from the ccRepo (grant-hill.group.shef.ac.uk/ccrepo) Feb. 2017
              A. K. Wilson, D. E. Woon, K. A. Peterson, T. H. Dunning, Jr., J. Chem. Phys. 110, 7667 (1999)

================================================================================
                                        WARNINGS
                       Please study these warnings very carefully!
================================================================================


INFO   : the flag for use of the SHARK integral package has been found!

================================================================================
                                       INPUT FILE
================================================================================
NAME = ACBNZA01_01.inp
|  1> ! hf tightscf aug-cc-pvqz
|  2> %maxcore 12000
|  3> %pal
|  4> 	nproc 16
|  5> end
|  6> 
|  7> * xyz 0 1
|  8>  1         -0.09389400    5.50926399    0.52123803
|  9>  1         -1.47349703    7.76938200    3.89809608
| 10>  1          5.38271093    4.48629522    4.27989006
| 11>  1         -1.87436104    6.81417704    1.66242504
| 12>  1          4.99679089    5.86112213    5.33506584
| 13>  1          0.74396902    7.46821594    4.99651718
| 14>  1          4.62641001    4.18881416    5.85893917
| 15>  1          4.29454088    5.34398985    0.55648297
| 16>  1          3.33980489    6.98201084    4.37053919
| 17>  1          3.61937094    6.71532106    1.47966301
| 18>  6         -0.67909300    7.22409010    3.39333606
| 19>  6          0.09477700    5.94810820    1.50075698
| 20>  6         -0.91069698    6.66787386    2.13820791
| 21>  6          0.55939698    7.05524111    4.00903177
| 22>  6          1.34872603    5.78968287    2.10048604
| 23>  6          4.65484381    4.87638092    5.00488091
| 24>  6          1.57843602    6.34145308    3.37563396
| 25>  6          2.40818191    5.07609415    1.32378900
| 26>  6          3.30464196    4.92658997    4.34521723
| 27>  7          2.81492710    6.15501118    4.05458403
| 28>  7          3.55825806    5.72459888    1.17116594
| 29>  8          2.17130899    3.94764590    0.79630601
| 30>  8          2.66270208    3.89437699    4.04729319
| 31>  1          5.29020691    3.36354303   11.44513512
| 32>  1          6.66980886    1.10342395    8.06827641
| 33>  1         -0.18639800    4.38651085    7.68648291
| 34>  1          7.07067299    2.05862999   10.30394745
| 35>  1          0.19952200    3.01168489    6.63130713
| 36>  1          4.45234299    1.40459096    6.96985579
| 37>  1          0.56990200    4.68399286    6.10743380
| 38>  1          0.90177202    3.52881598   11.40988922
| 39>  1          1.85650694    1.89079595    7.59583282
| 40>  1          1.57694197    2.15748501   10.48670959
| 41>  6          5.87540483    1.64871597    8.57303715
| 42>  6          5.10153484    2.92469907   10.46561623
| 43>  6          6.10700893    2.20493293    9.82816410
| 44>  6          4.63691521    1.81756496    7.95734119
| 45>  6          3.84758711    3.08312297    9.86588573
| 46>  6          0.54146898    3.99642611    6.96149206
| 47>  6          3.61787701    2.53135300    8.59073925
| 48>  6          2.78813004    3.79671192   10.64258385
| 49>  6          1.89166999    3.94621611    7.62115479
| 50>  7          2.38138604    2.71779609    7.91178894
| 51>  7          1.63805497    3.14820790   10.79520702
| 52>  8          3.02500391    4.92516088   11.17006588
| 53>  8          2.53361106    4.97842979    7.91907883
| 54> *
| 55> 
| 56> 
| 57>                          ****END OF INPUT****
================================================================================

                       ****************************
                       * Single Point Calculation *
                       ****************************

---------------------------------
CARTESIAN COORDINATES (ANGSTROEM)
---------------------------------
  H     -0.093894    5.509264    0.521238
  H     -1.473497    7.769382    3.898096
  H      5.382711    4.486295    4.279890
  H     -1.874361    6.814177    1.662425
  H      4.996791    5.861122    5.335066
  H      0.743969    7.468216    4.996517
  H      4.626410    4.188814    5.858939
  H      4.294541    5.343990    0.556483
  H      3.339805    6.982011    4.370539
  H      3.619371    6.715321    1.479663
  C     -0.679093    7.224090    3.393336
  C      0.094777    5.948108    1.500757
  C     -0.910697    6.667874    2.138208
  C      0.559397    7.055241    4.009032
  C      1.348726    5.789683    2.100486
  C      4.654844    4.876381    5.004881
  C      1.578436    6.341453    3.375634
  C      2.408182    5.076094    1.323789
  C      3.304642    4.926590    4.345217
  N      2.814927    6.155011    4.054584
  N      3.558258    5.724599    1.171166
  O      2.171309    3.947646    0.796306
  O      2.662702    3.894377    4.047293
  H      5.290207    3.363543   11.445135
  H      6.669809    1.103424    8.068276
  H     -0.186398    4.386511    7.686483
  H      7.070673    2.058630   10.303947
  H      0.199522    3.011685    6.631307
  H      4.452343    1.404591    6.969856
  H      0.569902    4.683993    6.107434
  H      0.901772    3.528816   11.409889
  H      1.856507    1.890796    7.595833
  H      1.576942    2.157485   10.486710
  C      5.875405    1.648716    8.573037
  C      5.101535    2.924699   10.465616
  C      6.107009    2.204933    9.828164
  C      4.636915    1.817565    7.957341
  C      3.847587    3.083123    9.865886
  C      0.541469    3.996426    6.961492
  C      3.617877    2.531353    8.590739
  C      2.788130    3.796712   10.642584
  C      1.891670    3.946216    7.621155
  N      2.381386    2.717796    7.911789
  N      1.638055    3.148208   10.795207
  O      3.025004    4.925161   11.170066
  O      2.533611    4.978430    7.919079

----------------------------
CARTESIAN COORDINATES (A.U.)
----------------------------
  NO LB      ZA    FRAG     MASS         X           Y           Z
   0 H     1.0000    0     1.008   -0.177434   10.411000    0.984997
   1 H     1.0000    0     1.008   -2.784506   14.682004    7.366334
   2 H     1.0000    0     1.008   10.171850    8.477869    8.087820
   3 H     1.0000    0     1.008   -3.542029   12.876928    3.141528
   4 H     1.0000    0     1.008    9.442566   11.075916   10.081813
   5 H     1.0000    0     1.008    1.405898   14.112883    9.442049
   6 H     1.0000    0     1.008    8.742648    7.915712   11.071790
   7 H     1.0000    0     1.008    8.115506   10.098677    1.051600
   8 H     1.0000    0     1.008    6.311317   13.194088    8.259122
   9 H     1.0000    0     1.008    6.839620   12.690118    2.796158
  10 C     6.0000    0    12.011   -1.283300   13.651552    6.412476
  11 C     6.0000    0    12.011    0.179103   11.240296    2.836020
  12 C     6.0000    0    12.011   -1.720968   12.600455    4.040627
  13 C     6.0000    0    12.011    1.057107   13.332474    7.575972
  14 C     6.0000    0    12.011    2.548723   10.940915    3.969343
  15 C     6.0000    0    12.011    8.796380    9.215024    9.457854
  16 C     6.0000    0    12.011    2.982812   11.983610    6.379024
  17 C     6.0000    0    12.011    4.550804    9.592428    2.501599
  18 C     6.0000    0    12.011    6.244868    9.309906    8.211271
  19 N     7.0000    0    14.007    5.319441   11.631285    7.662053
  20 N     7.0000    0    14.007    6.724133   10.817924    2.213183
  21 O     8.0000    0    15.999    4.103179    7.459970    1.504800
  22 O     8.0000    0    15.999    5.031778    7.359306    7.648276
  23 H     1.0000    0     1.008    9.997042    6.356175   21.628171
  24 H     1.0000    0     1.008   12.604112    2.085169   15.246833
  25 H     1.0000    0     1.008   -0.352241    8.289304   14.525348
  26 H     1.0000    0     1.008   13.361636    3.890247   19.471639
  27 H     1.0000    0     1.008    0.377042    5.691260   12.531354
  28 H     1.0000    0     1.008    8.413709    2.654292   13.171119
  29 H     1.0000    0     1.008    1.076959    8.851464   11.541377
  30 H     1.0000    0     1.008    1.704102    6.668496   21.561566
  31 H     1.0000    0     1.008    3.508290    3.573087   14.354044
  32 H     1.0000    0     1.008    2.979988    4.077056   19.817009
  33 C     6.0000    0    12.011   11.102906    3.115622   16.200692
  34 C     6.0000    0    12.011    9.640504    5.526880   19.777148
  35 C     6.0000    0    12.011   11.540574    4.166719   18.572539
  36 C     6.0000    0    12.011    8.762500    3.434700   15.037196
  37 C     6.0000    0    12.011    7.270886    5.826258   18.643822
  38 C     6.0000    0    12.011    1.023228    7.552151   13.155313
  39 C     6.0000    0    12.011    6.836797    4.783564   16.234144
  40 C     6.0000    0    12.011    5.268802    7.174746   20.111569
  41 C     6.0000    0    12.011    3.574738    7.457268   14.401895
  42 N     7.0000    0    14.007    4.500167    5.135890   14.951114
  43 N     7.0000    0    14.007    3.095475    5.949251   20.399985
  44 O     8.0000    0    15.999    5.716429    9.307205   21.108365
  45 O     8.0000    0    15.999    4.787831    9.407869   14.964890

--------------------------------
INTERNAL COORDINATES (ANGSTROEM)
--------------------------------
 H      0   0   0     0.000000000000     0.00000000     0.00000000
 H      1   0   0     4.291224560584     0.00000000     0.00000000
 H      1   2   0     6.720649652103    84.37885865     0.00000000
 H      2   1   3     2.464007603320    30.01764247   184.68735236
 H      3   1   2     1.775522243294    92.14249909   341.24676578
 H      2   1   3     2.492866942202    89.83566856     5.87236195
 H      3   1   2     1.775917271284   100.12141173    41.72814938
 H      3   1   2     3.972847152095    38.71961653   222.44929763
 H      5   3   1     2.220879502126   107.14988422   349.44871437
 H      8   3   1     1.785683376653    77.57431016    60.18161613
 C      2   1   3     1.087751670592    30.23320016     7.73611432
 C      1   2   3     1.089788218096    30.26225748   353.06195600
 C      4   2   1     1.084630066151    60.64220883   359.38639203
 C      6   2   1     1.086159510904    59.61422504     0.99816182
 C     12   1   2     1.398985954337   119.66237816   179.67861877
 C      5   3   1     1.093464743004    36.01984684    64.13184586
 C     14   6   2     1.396111278705   118.87032328   180.75678285
 C     15  12   1     1.494962847339   117.81023483     3.21129050
 C     16   5   3     1.503569803886   112.53378734   240.16019791
 N      9   5   3     1.029200075401    96.21589635    40.18386391
 N      8   3   1     1.031896689767    73.54769473    28.85624565
 O     18  15  12     1.267967877313   120.56717120   309.28923281
 O     19  16   5     1.251522744190   122.51397761   189.11013417
 H      7   3   1     5.685708746872   148.01406240   186.93064681
 H     24   7   3     4.291225296291    48.76356862   298.37137575
 H      6   2   1     4.195045253893   100.02116400   258.90570278
 H     25  24   7     2.464008041518    30.01762072   138.88417547
 H     26   6   2     1.775521498994    98.02142675    90.04396244
 H     25  24   7     2.492866685358    89.83566470   317.69920192
 H     26   6   2     1.775917038621    38.03427619    99.85625580
 H     26   6   2     3.972846464665   134.33181887   217.19814517
 H     28  26   6     2.220878410420   107.14989711   117.89169612
 H     31  26   6     1.785682984158    77.57432472   244.64363395
 C     25  24   7     1.087752064857    30.23318534   315.83539040
 C     24   7   3     1.089788248741    32.34441052   258.06959271
 C     27  25  24     1.084630244335    60.64218886     0.61358394
 C     29  25  24     1.086159216821    59.61421889   359.00179487
 C     35  24   7     1.398985244487   119.66252952   285.49011688
 C     28  26   6     1.093464720737    36.01985583    43.20852582
 C     37  29  25     1.396110784114   118.87032680   179.24318777
 C     38  35  24     1.494964361564   117.81013793   356.78868520
 C     39  28  26     1.503568664497   112.53374276   119.83978947
 N     32  28  26     1.029201423892    96.21592929   319.81612578
 N     31  26   6     1.031895973448    73.54772002   275.96905482
 O     41  38  35     1.267968287295   120.56710148    50.71081904
 O     42  39  28     1.251523931909   122.51396228   170.88984238

---------------------------
INTERNAL COORDINATES (A.U.)
---------------------------
 H      0   0   0     0.000000000000     0.00000000     0.00000000
 H      1   0   0     8.109239198661     0.00000000     0.00000000
 H      1   2   0    12.700187284509    84.37885865     0.00000000
 H      2   1   3     4.656299562174    30.01764247   184.68735236
 H      3   1   2     3.355250784511    92.14249909   341.24676578
 H      2   1   3     4.710835809068    89.83566856     5.87236195
 H      3   1   2     3.355997279227   100.12141173    41.72814938
 H      3   1   2     7.507593089389    38.71961653   222.44929763
 H      5   3   1     4.196854035457   107.14988422   349.44871437
 H      8   3   1     3.374452543770    77.57431016    60.18161613
 C      2   1   3     2.055552759135    30.23320016     7.73611432
 C      1   2   3     2.059401276175    30.26225748   353.06195600
 C      4   2   1     2.049653781643    60.64220883   359.38639203
 C      6   2   1     2.052544013361    59.61422504     0.99816182
 C     12   1   2     2.643700318899   119.66237816   179.67861877
 C      5   3   1     2.066348901375    36.01984684    64.13184586
 C     14   6   2     2.638267969232   118.87032328   180.75678285
 C     15  12   1     2.825070361857   117.81023483     3.21129050
 C     16   5   3     2.841335152577   112.53378734   240.16019791
 N      9   5   3     1.944906279520    96.21589635    40.18386391
 N      8   3   1     1.950002142160    73.54769473    28.85624565
 O     18  15  12     2.396112034730   120.56717120   309.28923281
 O     19  16   5     2.365035236893   122.51397761   189.11013417
 H      7   3   1    10.744432408829   148.01406240   186.93064681
 H     24   7   3     8.109240588945    48.76356862   298.37137575
 H      6   2   1     7.927486649264   100.02116400   258.90570278
 H     25  24   7     4.656300390250    30.01762072   138.88417547
 H     26   6   2     3.355249377987    98.02142675    90.04396244
 H     25  24   7     4.710835323703    89.83566470   317.69920192
 H     26   6   2     3.355996839559    38.03427619    99.85625580
 H     26   6   2     7.507591790334   134.33181887   217.19814517
 H     28  26   6     4.196851972433   107.14989711   117.89169612
 H     31  26   6     3.374451802062    77.57432472   244.64363395
 C     25  24   7     2.055553504188    30.23318534   315.83539040
 C     24   7   3     2.059401334086    32.34441052   258.06959271
 C     27  25  24     2.049654118361    60.64218886     0.61358394
 C     29  25  24     2.052543457626    59.61421889   359.00179487
 C     35  24   7     2.643698977478   119.66252952   285.49011688
 C     28  26   6     2.066348859298    36.01985583    43.20852582
 C     37  29  25     2.638267034589   118.87032680   179.24318777
 C     38  35  24     2.825073223328   117.81013793   356.78868520
 C     39  28  26     2.841332999444   112.53374276   119.83978947
 N     32  28  26     1.944908827799    96.21592929   319.81612578
 N     31  26   6     1.950000788513    73.54772002   275.96905482
 O     41  38  35     2.396112809485   120.56710148    50.71081904
 O     42  39  28     2.365037481357   122.51396228   170.88984238

---------------------
BASIS SET INFORMATION
---------------------
There are 4 groups of distinct atoms

 Group   1 Type H   : 7s4p3d2f contracted to 5s4p3d2f pattern {31111/1111/111/11}
 Group   2 Type C   : 22s7p4d3f2g contracted to 6s5p4d3f2g pattern {991111/31111/1111/111/11}
 Group   3 Type N   : 22s7p4d3f2g contracted to 6s5p4d3f2g pattern {991111/31111/1111/111/11}
 Group   4 Type O   : 22s7p4d3f2g contracted to 6s5p4d3f2g pattern {991111/31111/1111/111/11}

Atom   0H    basis set group =>   1
Atom   1H    basis set group =>   1
Atom   2H    basis set group =>   1
Atom   3H    basis set group =>   1
Atom   4H    basis set group =>   1
Atom   5H    basis set group =>   1
Atom   6H    basis set group =>   1
Atom   7H    basis set group =>   1
Atom   8H    basis set group =>   1
Atom   9H    basis set group =>   1
Atom  10C    basis set group =>   2
Atom  11C    basis set group =>   2
Atom  12C    basis set group =>   2
Atom  13C    basis set group =>   2
Atom  14C    basis set group =>   2
Atom  15C    basis set group =>   2
Atom  16C    basis set group =>   2
Atom  17C    basis set group =>   2
Atom  18C    basis set group =>   2
Atom  19N    basis set group =>   3
Atom  20N    basis set group =>   3
Atom  21O    basis set group =>   4
Atom  22O    basis set group =>   4
Atom  23H    basis set group =>   1
Atom  24H    basis set group =>   1
Atom  25H    basis set group =>   1
Atom  26H    basis set group =>   1
Atom  27H    basis set group =>   1
Atom  28H    basis set group =>   1
Atom  29H    basis set group =>   1
Atom  30H    basis set group =>   1
Atom  31H    basis set group =>   1
Atom  32H    basis set group =>   1
Atom  33C    basis set group =>   2
Atom  34C    basis set group =>   2
Atom  35C    basis set group =>   2
Atom  36C    basis set group =>   2
Atom  37C    basis set group =>   2
Atom  38C    basis set group =>   2
Atom  39C    basis set group =>   2
Atom  40C    basis set group =>   2
Atom  41C    basis set group =>   2
Atom  42N    basis set group =>   3
Atom  43N    basis set group =>   3
Atom  44O    basis set group =>   4
Atom  45O    basis set group =>   4


           ************************************************************
           *        Program running with 16 parallel MPI-processes    *
           *              working on a common directory               *
           ************************************************************
------------------------------------------------------------------------------
                           ORCA GTO INTEGRAL CALCULATION
------------------------------------------------------------------------------
------------------------------------------------------------------------------
                   ___                                                        
                  /   \      - P O W E R E D   B Y -                         
                 /     \                                                     
                 |  |  |   _    _      __       _____    __    __             
                 |  |  |  | |  | |    /  \     |  _  \  |  |  /  |          
                  \  \/   | |  | |   /    \    | | | |  |  | /  /          
                 / \  \   | |__| |  /  /\  \   | |_| |  |  |/  /          
                |  |  |   |  __  | /  /__\  \  |    /   |      \           
                |  |  |   | |  | | |   __   |  |    \   |  |\   \          
                \     /   | |  | | |  |  |  |  | |\  \  |  | \   \       
                 \___/    |_|  |_| |__|  |__|  |_| \__\ |__|  \__/        
                                                                              
                      - O R C A' S   B I G   F R I E N D -                    
                                      &                                       
                       - I N T E G R A L  F E E D E R -                       
                                                                              
 v1 FN, 2020, v2 2021                                                         
------------------------------------------------------------------------------


Reading SHARK input file ACBNZA01_01.SHARKINP.tmp ... ok
----------------------
SHARK INTEGRAL PACKAGE
----------------------

Number of atoms                             ...     46
Number of basis functions                   ...   3182
Number of shells                            ...    982
Maximum angular momentum                    ...      4
Integral batch strategy                     ... SHARK/LIBINT Hybrid
RI-J (if used) integral strategy            ... SPLIT-RIJ (Revised 2003 algorithm where possible)
Printlevel                                  ...      1
Contraction scheme used                     ... PARTIAL GENERAL contraction
Coulomb Range Separation                    ... NOT USED
Exchange Range Separation                   ... NOT USED
Finite Nucleus Model                        ... NOT USED
Auxiliary Coulomb fitting basis             ... NOT available
Auxiliary J/K fitting basis                 ... NOT available
Auxiliary Correlation fitting basis         ... NOT available
Auxiliary 'external' fitting basis          ... NOT available
Integral threshold                          ...     2.500000e-11
Primitive cut-off                           ...     2.500000e-12
Primitive pair pre-selection threshold      ...     2.500000e-12

Calculating pre-screening integrals         ... done (  0.6 sec) Dimension = 982
Calculating pre-screening integrals (ORCA)  ... done (  1.4 sec) Dimension = 800
Organizing shell pair data                  ... done (  8.0 sec)
Shell pair information
Total number of shell pairs                 ...    482653
Shell pairs after pre-screening             ...    280613
Total number of primitive shell pairs       ...    577413
Primitive shell pairs kept                  ...    306921
          la=0 lb=0:  44915 shell pairs
          la=1 lb=0:  56296 shell pairs
          la=1 lb=1:  16173 shell pairs
          la=2 lb=0:  40824 shell pairs
          la=2 lb=1:  24140 shell pairs
          la=2 lb=2:   9086 shell pairs
          la=3 lb=0:  27144 shell pairs
          la=3 lb=1:  16684 shell pairs
          la=3 lb=2:  12418 shell pairs
          la=3 lb=3:   4265 shell pairs
          la=4 lb=0:  11648 shell pairs
          la=4 lb=1:   7234 shell pairs
          la=4 lb=2:   5364 shell pairs
          la=4 lb=3:   3616 shell pairs
          la=4 lb=4:    806 shell pairs

Calculating one electron integrals          ... done (  0.8 sec)
Calculating Nuclear repulsion               ... done (  0.0 sec) ENN=   2258.078180590372 Eh

SHARK setup successfully completed in  19.6 seconds

Maximum memory used throughout the entire GTOINT-calculation: 423.4 MB


           ************************************************************
           *        Program running with 16 parallel MPI-processes    *
           *              working on a common directory               *
           ************************************************************
-------------------------------------------------------------------------------
                                 ORCA SCF
-------------------------------------------------------------------------------

------------
SCF SETTINGS
------------
Hamiltonian:
 Ab initio Hamiltonian  Method          .... Hartree-Fock(GTOs)


General Settings:
 Integral files         IntName         .... ACBNZA01_01
 Hartree-Fock type      HFTyp           .... RHF
 Total Charge           Charge          ....    0
 Multiplicity           Mult            ....    1
 Number of Electrons    NEL             ....  188
 Basis Dimension        Dim             .... 3000
 Nuclear Repulsion      ENuc            ....   2258.0781805904 Eh

Convergence Acceleration:
 DIIS                   CNVDIIS         .... on
   Start iteration      DIISMaxIt       ....    12
   Startup error        DIISStart       ....  0.200000
   # of expansion vecs  DIISMaxEq       ....     5
   Bias factor          DIISBfac        ....   1.050
   Max. coefficient     DIISMaxC        ....  10.000
 Trust-Rad. Augm. Hess. CNVTRAH         .... auto
   Auto Start mean grad. ratio tolernc. ....  1.125000
   Auto Start start iteration           ....    20
   Auto Start num. interpolation iter.  ....    10
   Max. Number of Micro iterations      ....    16
   Max. Number of Macro iterations      .... Maxiter - #DIIS iter
   Number of Davidson start vectors     ....     2
   Converg. threshold I  (grad. norm)   ....   1.000e-05
   Converg. threshold II (energy diff.) ....   1.000e-08
   Grad. Scal. Fac. for Micro threshold ....   0.100
   Minimum threshold for Micro iter.    ....   0.010
   NR start threshold (gradient norm)   ....   0.001
   Initial trust radius                 ....   0.400
   Minimum AH scaling param. (alpha)    ....   1.000
   Maximum AH scaling param. (alpha)    .... 1000.000
   Orbital update algorithm             .... Taylor
   White noise on init. David. guess    .... on
   Maximum white noise                  ....   0.010
   Quad. conv. algorithm                .... NR
 SOSCF                  CNVSOSCF        .... on
   Start iteration      SOSCFMaxIt      ....   150
   Startup grad/error   SOSCFStart      ....  0.003300
 Level Shifting         CNVShift        .... on
   Level shift para.    LevelShift      ....    0.2500
   Turn off err/grad.   ShiftErr        ....    0.0010
 Zerner damping         CNVZerner       .... off
 Static damping         CNVDamp         .... on
   Fraction old density DampFac         ....    0.7000
   Max. Damping (<1)    DampMax         ....    0.9800
   Min. Damping (>=0)   DampMin         ....    0.0000
   Turn off err/grad.   DampErr         ....    0.1000
 Fernandez-Rico         CNVRico         .... off

SCF Procedure:
 Maximum # iterations   MaxIter         ....   125
 SCF integral mode      SCFMode         .... Direct
   Integral package                     .... SHARK and LIBINT hybrid scheme
 Reset frequency        DirectResetFreq ....    20
 Integral Threshold     Thresh          ....  2.500e-11 Eh
 Primitive CutOff       TCut            ....  2.500e-12 Eh

Convergence Tolerance:
 Convergence Check Mode ConvCheckMode   .... Total+1el-Energy
 Convergence forced     ConvForced      .... 0
 Energy Change          TolE            ....  1.000e-08 Eh
 1-El. energy change                    ....  1.000e-05 Eh
 Orbital Gradient       TolG            ....  1.000e-05
 Orbital Rotation angle TolX            ....  1.000e-05
 DIIS Error             TolErr          ....  5.000e-07


Diagonalization of the overlap matrix:
Smallest eigenvalue                        ... 7.846e-08
Time for diagonalization                   ...    1.199 sec
Threshold for overlap eigenvalues          ... 1.000e-08
Number of eigenvalues below threshold      ... 0
Time for construction of square roots      ...    1.161 sec
Total time needed                          ...    2.403 sec

Time for model grid setup =    0.602 sec

------------------------------
INITIAL GUESS: MODEL POTENTIAL
------------------------------
Loading Hartree-Fock densities                     ... done
Calculating cut-offs                               ... done
Initializing the effective Hamiltonian             ... done
Setting up the integral package (SHARK)            ... done
Starting the Coulomb interaction                   ... done (   3.4 sec)
Reading the grid                                   ... done
Mapping shells                                     ... done
Starting the XC term evaluation                    ... done (   1.6 sec)
Transforming the Hamiltonian                       ... done (   1.0 sec)
Diagonalizing the Hamiltonian                      ... done (   1.5 sec)
Back transforming the eigenvectors                 ... done (   0.4 sec)
Now organizing SCF variables                       ... done
                      ------------------
                      INITIAL GUESS DONE (   8.5 sec)
                      ------------------
--------------
SCF ITERATIONS
--------------
ITER       Energy         Delta-E        Max-DP      RMS-DP      [F,P]     Damp
               ***  Starting incremental Fock matrix formation  ***
  0  -1209.8370723316   0.000000000000 0.33068093  0.00084573  0.3679352 0.7000
  1  -1210.2672562830  -0.430183951459 0.25512256  0.00064386  0.2162243 0.7000
                               ***Turning on DIIS***
  2  -1210.5246236684  -0.257367385356 0.18699111  0.00046143  0.1221873 0.7000
  3  -1213.4496967907  -2.925073122286 0.46567862  0.00114082  0.0744022 0.0000
  4  -1210.8910165297   2.558680261036 0.02876628  0.00008738  0.0079372 0.0000
  5  -1211.0600107743  -0.168994244654 0.01438089  0.00004205  0.0047134 0.0000
                      *** Initiating the SOSCF procedure ***
                           *** Shutting down DIIS ***
                      *** Re-Reading the Fockian *** 
                      *** Removing any level shift *** 
ITER      Energy       Delta-E        Grad      Rot      Max-DP    RMS-DP
  6  -1211.03424482   0.0257659574  0.001480  0.001480  0.012294  0.000023
               *** Restarting incremental Fock matrix formation ***
  7  -1211.06804257  -0.0337977541  0.000451  0.000764  0.029543  0.000062
  8  -1211.06809283  -0.0000502631  0.000414  0.001347  0.014502  0.000052
  9  -1211.06811129  -0.0000184605  0.000101  0.000176  0.017333  0.000037
 10  -1211.06811364  -0.0000023427  0.000030  0.000046  0.007800  0.000027
 11  -1211.06811398  -0.0000003464  0.000016  0.000043  0.019382  0.000052
 12  -1211.06811419  -0.0000002051  0.000004  0.000015  0.013246  0.000046
                  ***Gradient check signals convergence***
              ***Rediagonalizing the Fockian in SOSCF/NRSCF***

               *****************************************************
               *                     SUCCESS                       *
               *           SCF CONVERGED AFTER  13 CYCLES          *
               *****************************************************


----------------
TOTAL SCF ENERGY
----------------

Total Energy       :        -1211.06811426 Eh          -32954.83878 eV

Components:
Nuclear Repulsion  :         2258.07818059 Eh           61445.43112 eV
Electronic Energy  :        -3469.14629485 Eh          -94400.26990 eV
One Electron Energy:        -6144.31624256 Eh         -167195.34501 eV
Two Electron Energy:         2675.16994771 Eh           72795.07511 eV

Virial components:
Potential Energy   :        -2419.92345364 Eh          -65849.46490 eV
Kinetic Energy     :         1208.85533938 Eh           32894.62612 eV
Virial Ratio       :            2.00183047


---------------
SCF CONVERGENCE
---------------

  Last Energy change         ...   -7.2178e-08  Tolerance :   1.0000e-08
  Last MAX-Density change    ...    1.6307e-02  Tolerance :   1.0000e-07
  Last RMS-Density change    ...    3.4640e-05  Tolerance :   5.0000e-09
  Last Orbital Gradient      ...    1.3888e-06  Tolerance :   1.0000e-05
  Last Orbital Rotation      ...    2.6328e-06  Tolerance :   1.0000e-05

             **** THE GBW FILE WAS UPDATED (ACBNZA01_01.gbw) ****
             **** DENSITY ACBNZA01_01.scfp WAS UPDATED ****
             **** ENERGY FILE WAS UPDATED (ACBNZA01_01.en.tmp) ****
             **** THE GBW FILE WAS UPDATED (ACBNZA01_01.gbw) ****
             **** DENSITY ACBNZA01_01.scfp WAS UPDATED ****
----------------
ORBITAL ENERGIES
----------------

  NO   OCC          E(Eh)            E(eV) 
   0   2.0000     -20.511853      -558.1559 
   1   2.0000     -20.511853      -558.1559 
   2   2.0000     -20.502370      -557.8979 
   3   2.0000     -20.502370      -557.8979 
   4   2.0000     -15.604215      -424.6123 
   5   2.0000     -15.604215      -424.6123 
   6   2.0000     -15.595740      -424.3817 
   7   2.0000     -15.595740      -424.3817 
   8   2.0000     -11.356602      -309.0288 
   9   2.0000     -11.356601      -309.0288 
  10   2.0000     -11.353658      -308.9487 
  11   2.0000     -11.353658      -308.9487 
  12   2.0000     -11.297438      -307.4189 
  13   2.0000     -11.297438      -307.4189 
  14   2.0000     -11.257692      -306.3374 
  15   2.0000     -11.257692      -306.3374 
  16   2.0000     -11.250925      -306.1532 
  17   2.0000     -11.250925      -306.1532 
  18   2.0000     -11.249824      -306.1233 
  19   2.0000     -11.249824      -306.1233 
  20   2.0000     -11.248414      -306.0849 
  21   2.0000     -11.248414      -306.0849 
  22   2.0000     -11.244343      -305.9741 
  23   2.0000     -11.244343      -305.9741 
  24   2.0000     -11.236634      -305.7644 
  25   2.0000     -11.236634      -305.7644 
  26   2.0000      -1.369257       -37.2594 
  27   2.0000      -1.368267       -37.2324 
  28   2.0000      -1.345294       -36.6073 
  29   2.0000      -1.345252       -36.6062 
  30   2.0000      -1.253211       -34.1016 
  31   2.0000      -1.252977       -34.0952 
  32   2.0000      -1.213430       -33.0191 
  33   2.0000      -1.213417       -33.0188 
  34   2.0000      -1.157086       -31.4859 
  35   2.0000      -1.156998       -31.4835 
  36   2.0000      -1.042786       -28.3756 
  37   2.0000      -1.042752       -28.3747 
  38   2.0000      -1.037163       -28.2226 
  39   2.0000      -1.036428       -28.2026 
  40   2.0000      -0.989934       -26.9375 
  41   2.0000      -0.989746       -26.9324 
  42   2.0000      -0.885992       -24.1091 
  43   2.0000      -0.885786       -24.1035 
  44   2.0000      -0.849006       -23.1026 
  45   2.0000      -0.848310       -23.0837 
  46   2.0000      -0.812220       -22.1016 
  47   2.0000      -0.811836       -22.0912 
  48   2.0000      -0.784949       -21.3595 
  49   2.0000      -0.784642       -21.3512 
  50   2.0000      -0.739060       -20.1109 
  51   2.0000      -0.738644       -20.0995 
  52   2.0000      -0.722613       -19.6633 
  53   2.0000      -0.722392       -19.6573 
  54   2.0000      -0.687001       -18.6943 
  55   2.0000      -0.686909       -18.6917 
  56   2.0000      -0.669036       -18.2054 
  57   2.0000      -0.667844       -18.1730 
  58   2.0000      -0.660573       -17.9751 
  59   2.0000      -0.659166       -17.9368 
  60   2.0000      -0.637814       -17.3558 
  61   2.0000      -0.636745       -17.3267 
  62   2.0000      -0.614732       -16.7277 
  63   2.0000      -0.611217       -16.6321 
  64   2.0000      -0.609383       -16.5822 
  65   2.0000      -0.599800       -16.3214 
  66   2.0000      -0.581849       -15.8329 
  67   2.0000      -0.581266       -15.8170 
  68   2.0000      -0.576351       -15.6833 
  69   2.0000      -0.576328       -15.6827 
  70   2.0000      -0.562601       -15.3092 
  71   2.0000      -0.562234       -15.2992 
  72   2.0000      -0.561006       -15.2658 
  73   2.0000      -0.560095       -15.2410 
  74   2.0000      -0.540881       -14.7181 
  75   2.0000      -0.535764       -14.5789 
  76   2.0000      -0.524355       -14.2684 
  77   2.0000      -0.522794       -14.2260 
  78   2.0000      -0.512481       -13.9453 
  79   2.0000      -0.511669       -13.9232 
  80   2.0000      -0.500254       -13.6126 
  81   2.0000      -0.499804       -13.6003 
  82   2.0000      -0.430841       -11.7238 
  83   2.0000      -0.428891       -11.6707 
  84   2.0000      -0.425562       -11.5801 
  85   2.0000      -0.424983       -11.5644 
  86   2.0000      -0.416885       -11.3440 
  87   2.0000      -0.416679       -11.3384 
  88   2.0000      -0.399736       -10.8774 
  89   2.0000      -0.398982       -10.8568 
  90   2.0000      -0.348276        -9.4771 
  91   2.0000      -0.348205        -9.4752 
  92   2.0000      -0.340518        -9.2660 
  93   2.0000      -0.339923        -9.2498 
  94   0.0000       0.015782         0.4295 
  95   0.0000       0.017894         0.4869 
  96   0.0000       0.022167         0.6032 
  97   0.0000       0.025906         0.7049 
  98   0.0000       0.030301         0.8245 
  99   0.0000       0.033015         0.8984 
 100   0.0000       0.035152         0.9565 
 101   0.0000       0.039885         1.0853 
 102   0.0000       0.040373         1.0986 
 103   0.0000       0.042318         1.1515 
 104   0.0000       0.045694         1.2434 
 105   0.0000       0.049443         1.3454 
 106   0.0000       0.055522         1.5108 
 107   0.0000       0.056918         1.5488 
 108   0.0000       0.057244         1.5577 
 109   0.0000       0.062459         1.6996 
 110   0.0000       0.062628         1.7042 
 111   0.0000       0.068111         1.8534 
 112   0.0000       0.071632         1.9492 
 113   0.0000       0.073702         2.0055 
 114   0.0000       0.079658         2.1676 
 115   0.0000       0.083067         2.2604 
 116   0.0000       0.083140         2.2624 
 117   0.0000       0.086388         2.3507 
 118   0.0000       0.087686         2.3861 
 119   0.0000       0.089222         2.4278 
 120   0.0000       0.091058         2.4778 
 121   0.0000       0.092342         2.5128 
 122   0.0000       0.092385         2.5139 
 123   0.0000       0.095778         2.6063 
 124   0.0000       0.097615         2.6562 
 125   0.0000       0.098005         2.6669 
 126   0.0000       0.099209         2.6996 
 127   0.0000       0.101667         2.7665 
 128   0.0000       0.102895         2.7999 
 129   0.0000       0.105236         2.8636 
 130   0.0000       0.105800         2.8790 
 131   0.0000       0.106282         2.8921 
 132   0.0000       0.108259         2.9459 
 133   0.0000       0.110032         2.9941 
 134   0.0000       0.111800         3.0422 
 135   0.0000       0.112913         3.0725 
 136   0.0000       0.116628         3.1736 
 137   0.0000       0.118222         3.2170 
 138   0.0000       0.118321         3.2197 
 139   0.0000       0.120634         3.2826 
 140   0.0000       0.121133         3.2962 
 141   0.0000       0.126569         3.4441 
 142   0.0000       0.129133         3.5139 
 143   0.0000       0.130052         3.5389 
 144   0.0000       0.131393         3.5754 
 145   0.0000       0.132762         3.6126 
 146   0.0000       0.134199         3.6517 
 147   0.0000       0.135009         3.6738 
 148   0.0000       0.137008         3.7282 
 149   0.0000       0.139360         3.7922 
 150   0.0000       0.140939         3.8351 
 151   0.0000       0.141701         3.8559 
 152   0.0000       0.144035         3.9194 
 153   0.0000       0.146343         3.9822 
 154   0.0000       0.150509         4.0956 
 155   0.0000       0.153106         4.1662 
 156   0.0000       0.153737         4.1834 
 157   0.0000       0.155327         4.2267 
 158   0.0000       0.155699         4.2368 
 159   0.0000       0.156635         4.2623 
 160   0.0000       0.160014         4.3542 
 161   0.0000       0.164238         4.4692 
 162   0.0000       0.165732         4.5098 
 163   0.0000       0.166358         4.5268 
 164   0.0000       0.169505         4.6125 
 165   0.0000       0.172867         4.7039 
 166   0.0000       0.175922         4.7871 
 167   0.0000       0.176419         4.8006 
 168   0.0000       0.179345         4.8802 
 169   0.0000       0.180967         4.9244 
 170   0.0000       0.182448         4.9647 
 171   0.0000       0.186053         5.0628 
 172   0.0000       0.189166         5.1475 
 173   0.0000       0.191287         5.2052 
 174   0.0000       0.193827         5.2743 
 175   0.0000       0.196357         5.3431 
 176   0.0000       0.198071         5.3898 
 177   0.0000       0.198849         5.4110 
 178   0.0000       0.201447         5.4816 
 179   0.0000       0.203386         5.5344 
 180   0.0000       0.207105         5.6356 
 181   0.0000       0.207599         5.6491 
 182   0.0000       0.208601         5.6763 
 183   0.0000       0.210421         5.7258 
 184   0.0000       0.212692         5.7876 
 185   0.0000       0.212749         5.7892 
 186   0.0000       0.215569         5.8659 
 187   0.0000       0.216015         5.8781 
 188   0.0000       0.218356         5.9418 
 189   0.0000       0.218623         5.9490 
 190   0.0000       0.220193         5.9918 
 191   0.0000       0.225727         6.1424 
 192   0.0000       0.226561         6.1650 
 193   0.0000       0.227070         6.1789 
 194   0.0000       0.228028         6.2050 
 195   0.0000       0.229428         6.2431 
 196   0.0000       0.230240         6.2652 
 197   0.0000       0.234590         6.3835 
 198   0.0000       0.236300         6.4301 
 199   0.0000       0.241423         6.5694 
 200   0.0000       0.243878         6.6363 
 201   0.0000       0.245717         6.6863 
 202   0.0000       0.247067         6.7230 
 203   0.0000       0.248993         6.7754 
 204   0.0000       0.251218         6.8360 
 205   0.0000       0.254861         6.9351 
 206   0.0000       0.254986         6.9385 
 207   0.0000       0.260270         7.0823 
 208   0.0000       0.260819         7.0972 
 209   0.0000       0.260900         7.0994 
 210   0.0000       0.263842         7.1795 
 211   0.0000       0.266057         7.2398 
 212   0.0000       0.269146         7.3238 
 213   0.0000       0.270113         7.3502 
 214   0.0000       0.270822         7.3694 
 215   0.0000       0.271461         7.3868 
 216   0.0000       0.271687         7.3930 
 217   0.0000       0.274248         7.4627 
 218   0.0000       0.275824         7.5056 
 219   0.0000       0.278359         7.5745 
 220   0.0000       0.278741         7.5849 
 221   0.0000       0.279900         7.6165 
 222   0.0000       0.282309         7.6820 
 223   0.0000       0.284300         7.7362 
 224   0.0000       0.285520         7.7694 
 225   0.0000       0.289289         7.8719 
 226   0.0000       0.289981         7.8908 
 227   0.0000       0.290321         7.9000 
 228   0.0000       0.292363         7.9556 
 229   0.0000       0.292427         7.9573 
 230   0.0000       0.296903         8.0791 
 231   0.0000       0.297428         8.0934 
 232   0.0000       0.299015         8.1366 
 233   0.0000       0.299173         8.1409 
 234   0.0000       0.303682         8.2636 
 235   0.0000       0.306930         8.3520 
 236   0.0000       0.310168         8.4401 
 237   0.0000       0.310321         8.4443 
 238   0.0000       0.312311         8.4984 
 239   0.0000       0.314334         8.5535 
 240   0.0000       0.314888         8.5685 
 241   0.0000       0.318478         8.6662 
 242   0.0000       0.319315         8.6890 
 243   0.0000       0.321849         8.7580 
 244   0.0000       0.321908         8.7596 
 245   0.0000       0.325972         8.8702 
 246   0.0000       0.326074         8.8729 
 247   0.0000       0.328085         8.9276 
 248   0.0000       0.328597         8.9416 
 249   0.0000       0.334585         9.1045 
 250   0.0000       0.335297         9.1239 
 251   0.0000       0.337079         9.1724 
 252   0.0000       0.338390         9.2081 
 253   0.0000       0.339835         9.2474 
 254   0.0000       0.344689         9.3795 
 255   0.0000       0.344940         9.3863 
 256   0.0000       0.345774         9.4090 
 257   0.0000       0.347143         9.4462 
 258   0.0000       0.353724         9.6253 
 259   0.0000       0.354007         9.6330 
 260   0.0000       0.354851         9.6560 
 261   0.0000       0.356774         9.7083 
 262   0.0000       0.360118         9.7993 
 263   0.0000       0.361816         9.8455 
 264   0.0000       0.364615         9.9217 
 265   0.0000       0.367426         9.9982 
 266   0.0000       0.369802        10.0628 
 267   0.0000       0.372370        10.1327 
 268   0.0000       0.372683        10.1412 
 269   0.0000       0.376386        10.2420 
 270   0.0000       0.379393        10.3238 
 271   0.0000       0.380195        10.3456 
 272   0.0000       0.381225        10.3737 
 273   0.0000       0.384651        10.4669 
 274   0.0000       0.385432        10.4881 
 275   0.0000       0.386432        10.5154 
 276   0.0000       0.387899        10.5553 
 277   0.0000       0.388794        10.5796 
 278   0.0000       0.389477        10.5982 
 279   0.0000       0.394586        10.7372 
 280   0.0000       0.395152        10.7526 
 281   0.0000       0.395292        10.7564 
 282   0.0000       0.402906        10.9636 
 283   0.0000       0.403185        10.9712 
 284   0.0000       0.404693        11.0122 
 285   0.0000       0.406127        11.0513 
 286   0.0000       0.407115        11.0782 
 287   0.0000       0.407740        11.0952 
 288   0.0000       0.408586        11.1182 
 289   0.0000       0.409529        11.1439 
 290   0.0000       0.409738        11.1495 
 291   0.0000       0.416223        11.3260 
 292   0.0000       0.416796        11.3416 
 293   0.0000       0.418385        11.3848 
 294   0.0000       0.420714        11.4482 
 295   0.0000       0.422899        11.5077 
 296   0.0000       0.423839        11.5332 
 297   0.0000       0.424444        11.5497 
 298   0.0000       0.424815        11.5598 
 299   0.0000       0.426863        11.6155 
 300   0.0000       0.428221        11.6525 
 301   0.0000       0.428823        11.6689 
 302   0.0000       0.431445        11.7402 
 303   0.0000       0.435127        11.8404 
 304   0.0000       0.435325        11.8458 
 305   0.0000       0.437822        11.9137 
 306   0.0000       0.439807        11.9678 
 307   0.0000       0.441432        12.0120 
 308   0.0000       0.443810        12.0767 
 309   0.0000       0.444609        12.0984 
 310   0.0000       0.447261        12.1706 
 311   0.0000       0.449492        12.2313 
 312   0.0000       0.450819        12.2674 
 313   0.0000       0.452889        12.3237 
 314   0.0000       0.454641        12.3714 
 315   0.0000       0.454970        12.3804 
 316   0.0000       0.455658        12.3991 
 317   0.0000       0.457242        12.4422 
 318   0.0000       0.457824        12.4580 
 319   0.0000       0.459449        12.5022 
 320   0.0000       0.460946        12.5430 
 321   0.0000       0.461924        12.5696 
 322   0.0000       0.464631        12.6432 
 323   0.0000       0.465275        12.6608 
 324   0.0000       0.466561        12.6958 
 325   0.0000       0.469530        12.7766 
 326   0.0000       0.470594        12.8055 
 327   0.0000       0.473155        12.8752 
 328   0.0000       0.474900        12.9227 
 329   0.0000       0.475510        12.9393 
 330   0.0000       0.478134        13.0107 
 331   0.0000       0.478271        13.0144 
 332   0.0000       0.484095        13.1729 
 333   0.0000       0.485484        13.2107 
 334   0.0000       0.489695        13.3253 
 335   0.0000       0.490111        13.3366 
 336   0.0000       0.494323        13.4512 
 337   0.0000       0.496688        13.5156 
 338   0.0000       0.499226        13.5846 
 339   0.0000       0.500600        13.6220 
 340   0.0000       0.503429        13.6990 
 341   0.0000       0.504240        13.7211 
 342   0.0000       0.504663        13.7326 
 343   0.0000       0.505757        13.7623 
 344   0.0000       0.508708        13.8427 
 345   0.0000       0.508861        13.8468 
 346   0.0000       0.510045        13.8790 
 347   0.0000       0.512138        13.9360 
 348   0.0000       0.512917        13.9572 
 349   0.0000       0.514215        13.9925 
 350   0.0000       0.515629        14.0310 
 351   0.0000       0.516372        14.0512 
 352   0.0000       0.517269        14.0756 
 353   0.0000       0.521072        14.1791 
 354   0.0000       0.521787        14.1985 
 355   0.0000       0.523927        14.2568 
 356   0.0000       0.526076        14.3152 
 357   0.0000       0.527457        14.3528 
 358   0.0000       0.529052        14.3962 
 359   0.0000       0.530885        14.4461 
 360   0.0000       0.534107        14.5338 
 361   0.0000       0.536020        14.5858 
 362   0.0000       0.538068        14.6416 
 363   0.0000       0.538184        14.6447 
 364   0.0000       0.540152        14.6983 
 365   0.0000       0.541575        14.7370 
 366   0.0000       0.541856        14.7446 
 367   0.0000       0.547665        14.9027 
 368   0.0000       0.549916        14.9640 
 369   0.0000       0.549950        14.9649 
 370   0.0000       0.551325        15.0023 
 371   0.0000       0.553400        15.0588 
 372   0.0000       0.553640        15.0653 
 373   0.0000       0.558631        15.2011 
 374   0.0000       0.560908        15.2631 
 375   0.0000       0.564586        15.3632 
 376   0.0000       0.564912        15.3720 
 377   0.0000       0.565479        15.3875 
 378   0.0000       0.566984        15.4284 
 379   0.0000       0.569182        15.4882 
 380   0.0000       0.569856        15.5066 
 381   0.0000       0.574460        15.6319 
 382   0.0000       0.578957        15.7542 
 383   0.0000       0.580183        15.7876 
 384   0.0000       0.582910        15.8618 
 385   0.0000       0.583489        15.8775 
 386   0.0000       0.586250        15.9527 
 387   0.0000       0.588669        16.0185 
 388   0.0000       0.590246        16.0614 
 389   0.0000       0.592256        16.1161 
 390   0.0000       0.592956        16.1352 
 391   0.0000       0.594261        16.1707 
 392   0.0000       0.595376        16.2010 
 393   0.0000       0.599092        16.3021 
 394   0.0000       0.603862        16.4319 
 395   0.0000       0.604276        16.4432 
 396   0.0000       0.606364        16.5000 
 397   0.0000       0.607942        16.5429 
 398   0.0000       0.614443        16.7198 
 399   0.0000       0.614733        16.7277 
 400   0.0000       0.616254        16.7691 
 401   0.0000       0.617687        16.8081 
 402   0.0000       0.619095        16.8464 
 403   0.0000       0.622052        16.9269 
 404   0.0000       0.625427        17.0187 
 405   0.0000       0.627290        17.0694 
 406   0.0000       0.628643        17.1062 
 407   0.0000       0.631457        17.1828 
 408   0.0000       0.633463        17.2374 
 409   0.0000       0.634310        17.2605 
 410   0.0000       0.637956        17.3597 
 411   0.0000       0.639236        17.3945 
 412   0.0000       0.639662        17.4061 
 413   0.0000       0.641110        17.4455 
 414   0.0000       0.644599        17.5404 
 415   0.0000       0.647110        17.6088 
 416   0.0000       0.649930        17.6855 
 417   0.0000       0.650287        17.6952 
 418   0.0000       0.653894        17.7934 
 419   0.0000       0.656918        17.8756 
 420   0.0000       0.657426        17.8895 
 421   0.0000       0.662449        18.0261 
 422   0.0000       0.663488        18.0544 
 423   0.0000       0.667335        18.1591 
 424   0.0000       0.668017        18.1777 
 425   0.0000       0.671372        18.2690 
 426   0.0000       0.673047        18.3145 
 427   0.0000       0.675753        18.3882 
 428   0.0000       0.678608        18.4659 
 429   0.0000       0.679502        18.4902 
 430   0.0000       0.680091        18.5062 
 431   0.0000       0.681728        18.5508 
 432   0.0000       0.683193        18.5906 
 433   0.0000       0.684737        18.6326 
 434   0.0000       0.689284        18.7564 
 435   0.0000       0.693143        18.8614 
 436   0.0000       0.694141        18.8885 
 437   0.0000       0.694770        18.9056 
 438   0.0000       0.696169        18.9437 
 439   0.0000       0.696994        18.9662 
 440   0.0000       0.699563        19.0361 
 441   0.0000       0.700709        19.0673 
 442   0.0000       0.704927        19.1820 
 443   0.0000       0.708255        19.2726 
 444   0.0000       0.708840        19.2885 
 445   0.0000       0.709738        19.3129 
 446   0.0000       0.712426        19.3861 
 447   0.0000       0.714537        19.4435 
 448   0.0000       0.715864        19.4797 
 449   0.0000       0.716859        19.5067 
 450   0.0000       0.719750        19.5854 
 451   0.0000       0.722442        19.6587 
 452   0.0000       0.724612        19.7177 
 453   0.0000       0.725797        19.7499 
 454   0.0000       0.727444        19.7948 
 455   0.0000       0.728730        19.8298 
 456   0.0000       0.732234        19.9251 
 457   0.0000       0.734148        19.9772 
 458   0.0000       0.737099        20.0575 
 459   0.0000       0.739161        20.1136 
 460   0.0000       0.743110        20.2210 
 461   0.0000       0.743581        20.2339 
 462   0.0000       0.747886        20.3510 
 463   0.0000       0.748963        20.3803 
 464   0.0000       0.752517        20.4770 
 465   0.0000       0.755188        20.5497 
 466   0.0000       0.757312        20.6075 
 467   0.0000       0.758035        20.6272 
 468   0.0000       0.758826        20.6487 
 469   0.0000       0.761737        20.7279 
 470   0.0000       0.762689        20.7538 
 471   0.0000       0.764189        20.7946 
 472   0.0000       0.766926        20.8691 
 473   0.0000       0.767228        20.8773 
 474   0.0000       0.770264        20.9600 
 475   0.0000       0.772025        21.0079 
 476   0.0000       0.773506        21.0482 
 477   0.0000       0.777532        21.1577 
 478   0.0000       0.779667        21.2158 
 479   0.0000       0.780979        21.2515 
 480   0.0000       0.786572        21.4037 
 481   0.0000       0.787413        21.4266 
 482   0.0000       0.789363        21.4796 
 483   0.0000       0.789963        21.4960 
 484   0.0000       0.793231        21.5849 
 485   0.0000       0.794946        21.6316 
 486   0.0000       0.795473        21.6459 
 487   0.0000       0.801161        21.8007 
 488   0.0000       0.803450        21.8630 
 489   0.0000       0.804607        21.8945 
 490   0.0000       0.804702        21.8970 
 491   0.0000       0.807193        21.9648 
 492   0.0000       0.807750        21.9800 
 493   0.0000       0.810275        22.0487 
 494   0.0000       0.814277        22.1576 
 495   0.0000       0.815870        22.2009 
 496   0.0000       0.816333        22.2135 
 497   0.0000       0.820062        22.3150 
 498   0.0000       0.820092        22.3158 
 499   0.0000       0.823166        22.3995 
 500   0.0000       0.823941        22.4206 
 501   0.0000       0.827244        22.5105 
 502   0.0000       0.828528        22.5454 
 503   0.0000       0.829436        22.5701 
 504   0.0000       0.833432        22.6788 
 505   0.0000       0.835873        22.7453 
 506   0.0000       0.836446        22.7609 
 507   0.0000       0.840599        22.8739 
 508   0.0000       0.841472        22.8976 
 509   0.0000       0.842603        22.9284 
 510   0.0000       0.844529        22.9808 
 511   0.0000       0.845800        23.0154 
 512   0.0000       0.847521        23.0622 
 513   0.0000       0.848135        23.0789 
 514   0.0000       0.852442        23.1961 
 515   0.0000       0.852820        23.2064 
 516   0.0000       0.853434        23.2231 
 517   0.0000       0.856450        23.3052 
 518   0.0000       0.856510        23.3068 
 519   0.0000       0.861241        23.4355 
 520   0.0000       0.862853        23.4794 
 521   0.0000       0.864288        23.5185 
 522   0.0000       0.865547        23.5527 
 523   0.0000       0.868902        23.6440 
 524   0.0000       0.869514        23.6607 
 525   0.0000       0.872052        23.7297 
 526   0.0000       0.875832        23.8326 
 527   0.0000       0.876768        23.8581 
 528   0.0000       0.878281        23.8992 
 529   0.0000       0.882125        24.0038 
 530   0.0000       0.885636        24.0994 
 531   0.0000       0.887323        24.1453 
 532   0.0000       0.889357        24.2006 
 533   0.0000       0.892725        24.2923 
 534   0.0000       0.895549        24.3691 
 535   0.0000       0.897777        24.4298 
 536   0.0000       0.900430        24.5020 
 537   0.0000       0.900944        24.5159 
 538   0.0000       0.903855        24.5951 
 539   0.0000       0.904250        24.6059 
 540   0.0000       0.907134        24.6844 
 541   0.0000       0.907472        24.6936 
 542   0.0000       0.911945        24.8153 
 543   0.0000       0.915411        24.9096 
 544   0.0000       0.916208        24.9313 
 545   0.0000       0.917455        24.9652 
 546   0.0000       0.918882        25.0040 
 547   0.0000       0.923538        25.1308 
 548   0.0000       0.924217        25.1492 
 549   0.0000       0.924552        25.1583 
 550   0.0000       0.925896        25.1949 
 551   0.0000       0.928412        25.2634 
 552   0.0000       0.930808        25.3286 
 553   0.0000       0.934961        25.4416 
 554   0.0000       0.935186        25.4477 
 555   0.0000       0.935727        25.4624 
 556   0.0000       0.937968        25.5234 
 557   0.0000       0.938583        25.5401 
 558   0.0000       0.942432        25.6449 
 559   0.0000       0.943283        25.6680 
 560   0.0000       0.947083        25.7714 
 561   0.0000       0.948631        25.8136 
 562   0.0000       0.950221        25.8568 
 563   0.0000       0.955115        25.9900 
 564   0.0000       0.957540        26.0560 
 565   0.0000       0.961414        26.1614 
 566   0.0000       0.962009        26.1776 
 567   0.0000       0.963494        26.2180 
 568   0.0000       0.966558        26.3014 
 569   0.0000       0.967507        26.3272 
 570   0.0000       0.971343        26.4316 
 571   0.0000       0.972329        26.4584 
 572   0.0000       0.975482        26.5442 
 573   0.0000       0.976572        26.5739 
 574   0.0000       0.985282        26.8109 
 575   0.0000       0.985411        26.8144 
 576   0.0000       0.987175        26.8624 
 577   0.0000       0.987805        26.8795 
 578   0.0000       0.992268        27.0010 
 579   0.0000       0.993944        27.0466 
 580   0.0000       0.994479        27.0612 
 581   0.0000       0.996678        27.1210 
 582   0.0000       0.997736        27.1498 
 583   0.0000       1.000494        27.2248 
 584   0.0000       1.001013        27.2390 
 585   0.0000       1.004754        27.3407 
 586   0.0000       1.005669        27.3656 
 587   0.0000       1.006384        27.3851 
 588   0.0000       1.010527        27.4978 
 589   0.0000       1.013000        27.5651 
 590   0.0000       1.013174        27.5699 
 591   0.0000       1.015969        27.6459 
 592   0.0000       1.016623        27.6637 
 593   0.0000       1.019872        27.7521 
 594   0.0000       1.021143        27.7867 
 595   0.0000       1.022975        27.8366 
 596   0.0000       1.025284        27.8994 
 597   0.0000       1.026020        27.9194 
 598   0.0000       1.026647        27.9365 
 599   0.0000       1.032773        28.1032 
 600   0.0000       1.034014        28.1370 
 601   0.0000       1.036864        28.2145 
 602   0.0000       1.037242        28.2248 
 603   0.0000       1.039984        28.2994 
 604   0.0000       1.044542        28.4234 
 605   0.0000       1.046600        28.4794 
 606   0.0000       1.047899        28.5148 
 607   0.0000       1.050804        28.5938 
 608   0.0000       1.054651        28.6985 
 609   0.0000       1.055964        28.7342 
 610   0.0000       1.058062        28.7913 
 611   0.0000       1.058461        28.8022 
 612   0.0000       1.062308        28.9069 
 613   0.0000       1.063588        28.9417 
 614   0.0000       1.065292        28.9881 
 615   0.0000       1.066025        29.0080 
 616   0.0000       1.068539        29.0764 
 617   0.0000       1.070143        29.1201 
 618   0.0000       1.073210        29.2035 
 619   0.0000       1.073945        29.2235 
 620   0.0000       1.078023        29.3345 
 621   0.0000       1.080708        29.4076 
 622   0.0000       1.080925        29.4135 
 623   0.0000       1.083212        29.4757 
 624   0.0000       1.085744        29.5446 
 625   0.0000       1.086629        29.5687 
 626   0.0000       1.093722        29.7617 
 627   0.0000       1.094528        29.7836 
 628   0.0000       1.096018        29.8242 
 629   0.0000       1.097006        29.8511 
 630   0.0000       1.099159        29.9096 
 631   0.0000       1.099612        29.9220 
 632   0.0000       1.102623        30.0039 
 633   0.0000       1.107222        30.1290 
 634   0.0000       1.107404        30.1340 
 635   0.0000       1.111554        30.2469 
 636   0.0000       1.112922        30.2841 
 637   0.0000       1.115735        30.3607 
 638   0.0000       1.120310        30.4852 
 639   0.0000       1.120654        30.4945 
 640   0.0000       1.122310        30.5396 
 641   0.0000       1.123238        30.5649 
 642   0.0000       1.124661        30.6036 
 643   0.0000       1.129018        30.7221 
 644   0.0000       1.130542        30.7636 
 645   0.0000       1.133671        30.8488 
 646   0.0000       1.136624        30.9291 
 647   0.0000       1.138895        30.9909 
 648   0.0000       1.142574        31.0910 
 649   0.0000       1.144905        31.1544 
 650   0.0000       1.145722        31.1767 
 651   0.0000       1.146484        31.1974 
 652   0.0000       1.150135        31.2968 
 653   0.0000       1.150767        31.3140 
 654   0.0000       1.152191        31.3527 
 655   0.0000       1.157597        31.4998 
 656   0.0000       1.159637        31.5553 
 657   0.0000       1.160234        31.5716 
 658   0.0000       1.165363        31.7111 
 659   0.0000       1.166397        31.7393 
 660   0.0000       1.169692        31.8289 
 661   0.0000       1.171230        31.8708 
 662   0.0000       1.177011        32.0281 
 663   0.0000       1.177990        32.0547 
 664   0.0000       1.178497        32.0685 
 665   0.0000       1.179015        32.0826 
 666   0.0000       1.185979        32.2721 
 667   0.0000       1.188824        32.3495 
 668   0.0000       1.189100        32.3571 
 669   0.0000       1.189261        32.3614 
 670   0.0000       1.192901        32.4605 
 671   0.0000       1.194739        32.5105 
 672   0.0000       1.195521        32.5318 
 673   0.0000       1.197977        32.5986 
 674   0.0000       1.200342        32.6630 
 675   0.0000       1.203540        32.7500 
 676   0.0000       1.204860        32.7859 
 677   0.0000       1.212803        33.0020 
 678   0.0000       1.213379        33.0177 
 679   0.0000       1.216247        33.0958 
 680   0.0000       1.217258        33.1233 
 681   0.0000       1.218289        33.1513 
 682   0.0000       1.221328        33.2340 
 683   0.0000       1.226056        33.3627 
 684   0.0000       1.226893        33.3855 
 685   0.0000       1.228621        33.4325 
 686   0.0000       1.230248        33.4768 
 687   0.0000       1.231206        33.5028 
 688   0.0000       1.234916        33.6038 
 689   0.0000       1.235839        33.6289 
 690   0.0000       1.241032        33.7702 
 691   0.0000       1.241697        33.7883 
 692   0.0000       1.244417        33.8623 
 693   0.0000       1.246563        33.9207 
 694   0.0000       1.248339        33.9690 
 695   0.0000       1.250634        34.0315 
 696   0.0000       1.253092        34.0984 
 697   0.0000       1.256982        34.2042 
 698   0.0000       1.259169        34.2637 
 699   0.0000       1.259809        34.2811 
 700   0.0000       1.260863        34.3098 
 701   0.0000       1.261026        34.3143 
 702   0.0000       1.267035        34.4778 
 703   0.0000       1.268282        34.5117 
 704   0.0000       1.272429        34.6246 
 705   0.0000       1.276841        34.7446 
 706   0.0000       1.276880        34.7457 
 707   0.0000       1.278757        34.7967 
 708   0.0000       1.280181        34.8355 
 709   0.0000       1.280613        34.8472 
 710   0.0000       1.286065        34.9956 
 711   0.0000       1.286993        35.0209 
 712   0.0000       1.289863        35.0990 
 713   0.0000       1.290069        35.1046 
 714   0.0000       1.291987        35.1568 
 715   0.0000       1.297947        35.3189 
 716   0.0000       1.301261        35.4091 
 717   0.0000       1.303672        35.4747 
 718   0.0000       1.306381        35.5484 
 719   0.0000       1.308845        35.6155 
 720   0.0000       1.310231        35.6532 
 721   0.0000       1.313979        35.7552 
 722   0.0000       1.314794        35.7774 
 723   0.0000       1.315913        35.8078 
 724   0.0000       1.319717        35.9113 
 725   0.0000       1.322197        35.9788 
 726   0.0000       1.324826        36.0503 
 727   0.0000       1.326150        36.0864 
 728   0.0000       1.326460        36.0948 
 729   0.0000       1.330016        36.1916 
 730   0.0000       1.335618        36.3440 
 731   0.0000       1.336102        36.3572 
 732   0.0000       1.339166        36.4406 
 733   0.0000       1.341603        36.5069 
 734   0.0000       1.342928        36.5429 
 735   0.0000       1.349683        36.7267 
 736   0.0000       1.352683        36.8084 
 737   0.0000       1.353020        36.8175 
 738   0.0000       1.354878        36.8681 
 739   0.0000       1.356399        36.9095 
 740   0.0000       1.358843        36.9760 
 741   0.0000       1.360420        37.0189 
 742   0.0000       1.363835        37.1118 
 743   0.0000       1.367097        37.2006 
 744   0.0000       1.367657        37.2158 
 745   0.0000       1.368394        37.2359 
 746   0.0000       1.370808        37.3016 
 747   0.0000       1.376937        37.4683 
 748   0.0000       1.378203        37.5028 
 749   0.0000       1.379444        37.5366 
 750   0.0000       1.382593        37.6223 
 751   0.0000       1.386497        37.7285 
 752   0.0000       1.386538        37.7296 
 753   0.0000       1.390148        37.8279 
 754   0.0000       1.391782        37.8723 
 755   0.0000       1.393295        37.9135 
 756   0.0000       1.394777        37.9538 
 757   0.0000       1.399365        38.0787 
 758   0.0000       1.406543        38.2740 
 759   0.0000       1.408645        38.3312 
 760   0.0000       1.410203        38.3736 
 761   0.0000       1.412092        38.4250 
 762   0.0000       1.413609        38.4662 
 763   0.0000       1.414718        38.4964 
 764   0.0000       1.418939        38.6113 
 765   0.0000       1.420674        38.6585 
 766   0.0000       1.424506        38.7628 
 767   0.0000       1.424904        38.7736 
 768   0.0000       1.429023        38.8857 
 769   0.0000       1.429696        38.9040 
 770   0.0000       1.434168        39.0257 
 771   0.0000       1.436441        39.0876 
 772   0.0000       1.437470        39.1156 
 773   0.0000       1.441531        39.2261 
 774   0.0000       1.444432        39.3050 
 775   0.0000       1.445236        39.3269 
 776   0.0000       1.451126        39.4872 
 777   0.0000       1.453709        39.5574 
 778   0.0000       1.454892        39.5896 
 779   0.0000       1.459936        39.7269 
 780   0.0000       1.461130        39.7594 
 781   0.0000       1.466339        39.9011 
 782   0.0000       1.467306        39.9274 
 783   0.0000       1.468843        39.9692 
 784   0.0000       1.473448        40.0946 
 785   0.0000       1.475962        40.1630 
 786   0.0000       1.478684        40.2370 
 787   0.0000       1.483548        40.3694 
 788   0.0000       1.484860        40.4051 
 789   0.0000       1.486297        40.4442 
 790   0.0000       1.491255        40.5791 
 791   0.0000       1.495829        40.7036 
 792   0.0000       1.496395        40.7190 
 793   0.0000       1.500170        40.8217 
 794   0.0000       1.507065        41.0093 
 795   0.0000       1.507471        41.0204 
 796   0.0000       1.510769        41.1101 
 797   0.0000       1.511220        41.1224 
 798   0.0000       1.513823        41.1932 
 799   0.0000       1.515696        41.2442 
 800   0.0000       1.520195        41.3666 
 801   0.0000       1.520929        41.3866 
 802   0.0000       1.526653        41.5423 
 803   0.0000       1.531362        41.6705 
 804   0.0000       1.533105        41.7179 
 805   0.0000       1.533741        41.7352 
 806   0.0000       1.538341        41.8604 
 807   0.0000       1.539049        41.8796 
 808   0.0000       1.540627        41.9226 
 809   0.0000       1.541731        41.9526 
 810   0.0000       1.544055        42.0159 
 811   0.0000       1.546291        42.0767 
 812   0.0000       1.550510        42.1915 
 813   0.0000       1.552914        42.2569 
 814   0.0000       1.553949        42.2851 
 815   0.0000       1.561286        42.4848 
 816   0.0000       1.566163        42.6175 
 817   0.0000       1.566871        42.6367 
 818   0.0000       1.571751        42.7695 
 819   0.0000       1.573782        42.8248 
 820   0.0000       1.578235        42.9460 
 821   0.0000       1.579241        42.9733 
 822   0.0000       1.580483        43.0071 
 823   0.0000       1.583405        43.0866 
 824   0.0000       1.586342        43.1666 
 825   0.0000       1.589839        43.2617 
 826   0.0000       1.591472        43.3062 
 827   0.0000       1.591866        43.3169 
 828   0.0000       1.594267        43.3822 
 829   0.0000       1.594623        43.3919 
 830   0.0000       1.602215        43.5985 
 831   0.0000       1.602356        43.6023 
 832   0.0000       1.608715        43.7753 
 833   0.0000       1.610577        43.8260 
 834   0.0000       1.611014        43.8379 
 835   0.0000       1.613212        43.8977 
 836   0.0000       1.624441        44.2033 
 837   0.0000       1.626561        44.2610 
 838   0.0000       1.626965        44.2720 
 839   0.0000       1.628717        44.3196 
 840   0.0000       1.630567        44.3700 
 841   0.0000       1.631393        44.3925 
 842   0.0000       1.633058        44.4378 
 843   0.0000       1.637777        44.5662 
 844   0.0000       1.638964        44.5985 
 845   0.0000       1.643750        44.7287 
 846   0.0000       1.645946        44.7885 
 847   0.0000       1.646383        44.8004 
 848   0.0000       1.647619        44.8340 
 849   0.0000       1.656410        45.0732 
 850   0.0000       1.658404        45.1275 
 851   0.0000       1.661200        45.2036 
 852   0.0000       1.661673        45.2164 
 853   0.0000       1.664575        45.2954 
 854   0.0000       1.666932        45.3595 
 855   0.0000       1.667597        45.3776 
 856   0.0000       1.669223        45.4219 
 857   0.0000       1.674006        45.5520 
 858   0.0000       1.674261        45.5590 
 859   0.0000       1.678963        45.6869 
 860   0.0000       1.680325        45.7240 
 861   0.0000       1.684803        45.8458 
[...]
      pz      :     0.714276  p :     2.009971
      px      :     0.728100
      py      :     0.567595
      dz2     :     0.148754  d :     0.677292
      dxz     :     0.221589
      dyz     :     0.106286
      dx2y2   :     0.083066
      dxy     :     0.117597
      f0      :     0.060690  f :     0.429582
      f+1     :     0.121596
      f-1     :     0.043221
      f+2     :     0.066231
      f-2     :     0.051576
      f+3     :     0.036081
      f-3     :     0.050188
      g0      :     0.017627  g :     0.127686
      g+1     :     0.017230
      g-1     :     0.012322
      g+2     :     0.028279
      g-2     :     0.012971
      g+3     :     0.009474
      g-3     :     0.011529
      g+4     :     0.007454
      g-4     :     0.010800
 34 C s       :     2.393732  s :     2.393732
      pz      :     0.699913  p :     1.993554
      px      :     0.728048
      py      :     0.565594
      dz2     :     0.149393  d :     0.688246
      dxz     :     0.154583
      dyz     :     0.087190
      dx2y2   :     0.146910
      dxy     :     0.150168
      f0      :     0.036098  f :     0.448253
      f+1     :     0.114724
      f-1     :     0.038905
      f+2     :     0.061409
      f-2     :     0.064101
      f+3     :     0.054505
      f-3     :     0.078510
      g0      :     0.016779  g :     0.134180
      g+1     :     0.012241
      g-1     :     0.005910
      g+2     :     0.018261
      g-2     :     0.016613
      g+3     :     0.017764
      g-3     :     0.017521
      g+4     :     0.009312
      g-4     :     0.019778
 35 C s       :     2.401777  s :     2.401777
      pz      :     0.712374  p :     2.016762
      px      :     0.724394
      py      :     0.579994
      dz2     :     0.151617  d :     0.671540
      dxz     :     0.184904
      dyz     :     0.137413
      dx2y2   :     0.115656
      dxy     :     0.081951
      f0      :     0.058518  f :     0.426093
      f+1     :     0.094846
      f-1     :     0.071387
      f+2     :     0.051750
      f-2     :     0.065605
      f+3     :     0.047068
      f-3     :     0.036919
      g0      :     0.016934  g :     0.126679
      g+1     :     0.017819
      g-1     :     0.012434
      g+2     :     0.013101
      g-2     :     0.027832
      g+3     :     0.011516
      g-3     :     0.009487
      g+4     :     0.007459
      g-4     :     0.010097
 36 C s       :     2.392751  s :     2.392751
      pz      :     0.703192  p :     2.009840
      px      :     0.728578
      py      :     0.578070
      dz2     :     0.149715  d :     0.676638
      dxz     :     0.157068
      dyz     :     0.088156
      dx2y2   :     0.142931
      dxy     :     0.138768
      f0      :     0.036294  f :     0.439762
      f+1     :     0.114887
      f-1     :     0.037389
      f+2     :     0.063485
      f-2     :     0.062388
      f+3     :     0.051504
      f-3     :     0.073813
      g0      :     0.016574  g :     0.132366
      g+1     :     0.013188
      g-1     :     0.005931
      g+2     :     0.018083
      g-2     :     0.016284
      g+3     :     0.017890
      g-3     :     0.016685
      g+4     :     0.009097
      g-4     :     0.018635
 37 C s       :     2.375656  s :     2.375656
      pz      :     0.722973  p :     2.037216
      px      :     0.732101
      py      :     0.582142
      dz2     :     0.174471  d :     0.881430
      dxz     :     0.247543
      dyz     :     0.154391
      dx2y2   :     0.153903
      dxy     :     0.151123
      f0      :     0.086859  f :     0.671865
      f+1     :     0.151722
      f-1     :     0.070799
      f+2     :     0.115268
      f-2     :     0.086844
      f+3     :     0.080095
      f-3     :     0.080279
      g0      :     0.025050  g :     0.189068
      g+1     :     0.022475
      g-1     :     0.016187
      g+2     :     0.033223
      g-2     :     0.019830
      g+3     :     0.024472
      g-3     :     0.017519
      g+4     :     0.013057
      g-4     :     0.017256
 38 C s       :     2.374720  s :     2.374720
      pz      :     0.658321  p :     1.948243
      px      :     0.630309
      py      :     0.659613
      dz2     :     0.055753  d :     0.455662
      dxz     :     0.117196
      dyz     :     0.089342
      dx2y2   :     0.097767
      dxy     :     0.095604
      f0      :     0.024032  f :     0.252904
      f+1     :     0.044887
      f-1     :     0.017253
      f+2     :     0.031657
      f-2     :     0.043316
      f+3     :     0.038574
      f-3     :     0.053186
      g0      :     0.006549  g :     0.071759
      g+1     :     0.006009
      g-1     :     0.003574
      g+2     :     0.009651
      g-2     :     0.003725
      g+3     :     0.007699
      g-3     :     0.015705
      g+4     :     0.006436
      g-4     :     0.012412
 39 C s       :     2.358291  s :     2.358291
      pz      :     0.712741  p :     1.972407
      px      :     0.662043
      py      :     0.597623
      dz2     :     0.213147  d :     0.983209
      dxz     :     0.269238
      dyz     :     0.162285
      dx2y2   :     0.183482
      dxy     :     0.155056
      f0      :     0.081945  f :     0.731326
      f+1     :     0.185977
      f-1     :     0.082062
      f+2     :     0.095817
      f-2     :     0.111441
      f+3     :     0.084672
      f-3     :     0.089412
      g0      :     0.027903  g :     0.220970
      g+1     :     0.029442
      g-1     :     0.014691
      g+2     :     0.032618
      g-2     :     0.032050
      g+3     :     0.019538
      g-3     :     0.027641
      g+4     :     0.015301
      g-4     :     0.021786
 40 C s       :     2.393069  s :     2.393069
      pz      :     0.533437  p :     1.964549
      px      :     0.694653
      py      :     0.736459
      dz2     :     0.184029  d :     1.351091
      dxz     :     0.209340
      dyz     :     0.259992
      dx2y2   :     0.343649
      dxy     :     0.354081
      f0      :     0.078491  f :     0.897822
      f+1     :     0.076684
      f-1     :     0.132385
      f+2     :     0.136752
      f-2     :     0.106479
      f+3     :     0.236850
      f-3     :     0.130181
      g0      :     0.023232  g :     0.302221
      g+1     :     0.023471
      g-1     :     0.019262
      g+2     :     0.035214
      g-2     :     0.022671
      g+3     :     0.038634
      g-3     :     0.043172
      g+4     :     0.051201
      g-4     :     0.045364
 41 C s       :     2.383096  s :     2.383096
      pz      :     0.483055  p :     1.940551
      px      :     0.688450
      py      :     0.769046
      dz2     :     0.164175  d :     1.340577
      dxz     :     0.170082
      dyz     :     0.273585
      dx2y2   :     0.380189
      dxy     :     0.352545
      f0      :     0.064726  f :     0.886758
      f+1     :     0.074981
      f-1     :     0.102972
      f+2     :     0.079822
      f-2     :     0.147207
      f+3     :     0.151641
      f-3     :     0.265409
      g0      :     0.025841  g :     0.301917
      g+1     :     0.012153
      g-1     :     0.024863
      g+2     :     0.024814
      g-2     :     0.027981
      g+3     :     0.033883
      g-3     :     0.033447
      g+4     :     0.070225
      g-4     :     0.048710
 42 N s       :     2.504308  s :     2.504308
      pz      :     0.896441  p :     2.640552
      px      :     0.868560
      py      :     0.875551
      dz2     :     0.090623  d :     0.631253
      dxz     :     0.099894
      dyz     :     0.096742
      dx2y2   :     0.162926
      dxy     :     0.181068
      f0      :     0.032169  f :     0.358415
      f+1     :     0.056171
      f-1     :     0.029167
      f+2     :     0.047821
      f-2     :     0.042452
      f+3     :     0.062824
      f-3     :     0.087812
      g0      :     0.006194  g :     0.082398
      g+1     :     0.005689
      g-1     :     0.005855
      g+2     :     0.011221
      g-2     :     0.003394
      g+3     :     0.009218
      g-3     :     0.010591
      g+4     :     0.017462
      g-4     :     0.012776
 43 N s       :     2.536416  s :     2.536416
      pz      :     0.882040  p :     2.610358
      px      :     0.879132
      py      :     0.849186
      dz2     :     0.047526  d :     0.400217
      dxz     :     0.079764
      dyz     :     0.043296
      dx2y2   :     0.130338
      dxy     :     0.099293
      f0      :     0.025220  f :     0.200232
      f+1     :     0.017043
      f-1     :     0.013364
      f+2     :     0.021364
      f-2     :     0.031491
      f+3     :     0.058480
      f-3     :     0.033269
      g0      :     0.002623  g :     0.051440
      g+1     :     0.005568
      g-1     :     0.002773
      g+2     :     0.002511
      g-2     :     0.004649
      g+3     :     0.002977
      g-3     :     0.006923
      g+4     :     0.014223
      g-4     :     0.009193
 44 O s       :     3.103803  s :     3.103803
      pz      :     1.228746  p :     3.869801
      px      :     1.339943
      py      :     1.301112
      dz2     :     0.027180  d :     0.222630
      dxz     :     0.017896
      dyz     :     0.060957
      dx2y2   :     0.048215
      dxy     :     0.068382
      f0      :     0.008524  f :     0.113300
      f+1     :     0.002902
      f-1     :     0.020065
      f+2     :     0.018269
      f-2     :     0.017596
      f+3     :     0.027413
      f-3     :     0.018530
      g0      :     0.002133  g :     0.026981
      g+1     :     0.000628
      g-1     :     0.003144
      g+2     :     0.002754
      g-2     :     0.000661
      g+3     :     0.004764
      g-3     :     0.004736
      g+4     :     0.003689
      g-4     :     0.004471
 45 O s       :     3.059340  s :     3.059340
      pz      :     1.183592  p :     3.836523
      px      :     1.305933
      py      :     1.346998
      dz2     :     0.032715  d :     0.240261
      dxz     :     0.028370
      dyz     :     0.042342
      dx2y2   :     0.073454
      dxy     :     0.063380
      f0      :     0.010812  f :     0.117928
      f+1     :     0.004738
      f-1     :     0.015537
      f+2     :     0.010272
      f-2     :     0.016342
      f+3     :     0.019413
      f-3     :     0.040814
      g0      :     0.001772  g :     0.028526
      g+1     :     0.001304
      g-1     :     0.002813
      g+2     :     0.001481
      g-2     :     0.002254
      g+3     :     0.003519
      g-3     :     0.002301
      g+4     :     0.006587
      g-4     :     0.006494


                      *****************************
                      * MAYER POPULATION ANALYSIS *
                      *****************************

  NA   - Mulliken gross atomic population
  ZA   - Total nuclear charge
  QA   - Mulliken gross atomic charge
  VA   - Mayer's total valence
  BVA  - Mayer's bonded valence
  FA   - Mayer's free valence

  ATOM       NA         ZA         QA         VA         BVA        FA
  0 H      0.7001     1.0000     0.2999     0.8710     0.8710    -0.0000
  1 H      0.7076     1.0000     0.2924     0.8504     0.8504     0.0000
  2 H      0.6571     1.0000     0.3429     0.9968     0.9968    -0.0000
  3 H      0.6846     1.0000     0.3154     0.8071     0.8071     0.0000
  4 H      0.7490     1.0000     0.2510     1.0692     1.0692    -0.0000
  5 H      0.7631     1.0000     0.2369     1.0164     1.0164     0.0000
  6 H      0.5216     1.0000     0.4784     0.6819     0.6819    -0.0000
  7 H      0.7858     1.0000     0.2142     1.0461     1.0461    -0.0000
  8 H      0.7972     1.0000     0.2028     0.9828     0.9828    -0.0000
  9 H      0.6208     1.0000     0.3792     0.8447     0.8447    -0.0000
 10 C      6.2450     6.0000    -0.2450     3.1870     3.1870    -0.0000
 11 C      6.3148     6.0000    -0.3148     3.1997     3.1997    -0.0000
 12 C      6.3630     6.0000    -0.3630     3.2773     3.2773    -0.0000
 13 C      6.6119     6.0000    -0.6119     3.4430     3.4430    -0.0000
 14 C      6.3318     6.0000    -0.3318     3.3751     3.3751    -0.0000
 15 C      7.1234     6.0000    -1.1234     3.6705     3.6705    -0.0000
 16 C      5.1567     6.0000     0.8433     2.1708     2.1708    -0.0000
 17 C      4.4574     6.0000     1.5426     2.3930     2.3930     0.0000
 18 C      4.7846     6.0000     1.2154     2.3655     2.3655     0.0000
 19 N      7.6139     7.0000    -0.6139     2.6934     2.6934    -0.0000
 20 N      7.9160     7.0000    -0.9160     3.0305     3.0305    -0.0000
 21 O      9.0206     8.0000    -1.0206     1.2518     1.2518    -0.0000
 22 O      9.0738     8.0000    -1.0738     1.1746     1.1746     0.0000
 23 H      0.6991     1.0000     0.3009     0.8704     0.8704    -0.0000
 24 H      0.7076     1.0000     0.2924     0.8507     0.8507    -0.0000
 25 H      0.6568     1.0000     0.3432     0.9966     0.9966    -0.0000
 26 H      0.6847     1.0000     0.3153     0.8074     0.8074    -0.0000
 27 H      0.7492     1.0000     0.2508     1.0694     1.0694     0.0000
 28 H      0.7623     1.0000     0.2377     1.0152     1.0152    -0.0000
 29 H      0.5213     1.0000     0.4787     0.6813     0.6813    -0.0000
 30 H      0.7858     1.0000     0.2142     1.0461     1.0461    -0.0000
 31 H      0.7981     1.0000     0.2019     0.9838     0.9838     0.0000
 32 H      0.6207     1.0000     0.3793     0.8445     0.8445     0.0000
 33 C      6.2457     6.0000    -0.2457     3.1887     3.1887    -0.0000
 34 C      6.3142     6.0000    -0.3142     3.1998     3.1998    -0.0000
 35 C      6.3630     6.0000    -0.3630     3.2782     3.2782    -0.0000
 36 C      6.6106     6.0000    -0.6106     3.4428     3.4428    -0.0000
 37 C      6.3319     6.0000    -0.3319     3.3743     3.3743    -0.0000
 38 C      7.1233     6.0000    -1.1233     3.6694     3.6694    -0.0000
 39 C      5.1610     6.0000     0.8390     2.1752     2.1752    -0.0000
 40 C      4.4576     6.0000     1.5424     2.3934     2.3934    -0.0000
 41 C      4.7836     6.0000     1.2164     2.3636     2.3636    -0.0000
 42 N      7.6136     7.0000    -0.6136     2.6954     2.6954     0.0000
 43 N      7.9160     7.0000    -0.9160     3.0308     3.0308    -0.0000
 44 O      9.0205     8.0000    -1.0205     1.2521     1.2521     0.0000
 45 O      9.0739     8.0000    -1.0739     1.1748     1.1748    -0.0000

  Mayer bond orders larger than 0.100000
B(  0-H , 11-C ) :   1.0008 B(  1-H , 10-C ) :   1.0965 B(  1-H , 12-C ) :  -0.1028 
B(  1-H , 13-C ) :  -0.1535 B(  2-H , 15-C ) :   0.8985 B(  3-H , 11-C ) :  -0.1104 
B(  3-H , 12-C ) :   1.0388 B(  4-H , 15-C ) :   1.0637 B(  4-H , 18-C ) :  -0.1663 
B(  5-H , 13-C ) :   0.9820 B(  6-H , 15-C ) :   0.7960 B(  6-H , 18-C ) :  -0.1287 
B(  7-H , 20-N ) :   1.0440 B(  8-H , 16-C ) :  -0.1156 B(  8-H , 19-N ) :   1.1348 
B(  9-H , 20-N ) :   0.8297 B( 10-C , 12-C ) :   1.1127 B( 10-C , 13-C ) :   1.3278 
B( 10-C , 16-C ) :  -0.3335 B( 11-C , 12-C ) :   1.2503 B( 11-C , 13-C ) :   0.2276 
B( 11-C , 14-C ) :   1.3479 B( 11-C , 16-C ) :  -0.3424 B( 11-C , 17-C ) :  -0.1208 
B( 13-C , 14-C ) :  -0.1925 B( 13-C , 16-C ) :   1.3827 B( 13-C , 19-N ) :  -0.1046 
B( 14-C , 16-C ) :   1.1496 B( 14-C , 17-C ) :   1.0369 B( 14-C , 20-N ) :  -0.1174 
B( 14-C , 21-O ) :   0.3689 B( 15-C , 18-C ) :   0.6616 B( 15-C , 22-O ) :   0.1483 
B( 16-C , 17-C ) :  -0.2110 B( 16-C , 19-N ) :   0.4393 B( 17-C , 20-N ) :   1.0748 
B( 17-C , 21-O ) :   0.6294 B( 18-C , 19-N ) :   1.0204 B( 18-C , 22-O ) :   0.9138 
B( 19-N , 22-O ) :   0.1043 B( 20-N , 21-O ) :   0.2151 B( 23-H , 34-C ) :   0.9998 
B( 24-H , 33-C ) :   1.0962 B( 24-H , 35-C ) :  -0.1027 B( 24-H , 36-C ) :  -0.1531 
B( 25-H , 38-C ) :   0.8982 B( 26-H , 34-C ) :  -0.1102 B( 26-H , 35-C ) :   1.0386 
B( 27-H , 38-C ) :   1.0639 B( 27-H , 41-C ) :  -0.1662 B( 28-H , 36-C ) :   0.9808 
B( 29-H , 38-C ) :   0.7956 B( 29-H , 41-C ) :  -0.1287 B( 30-H , 43-N ) :   1.0440 
B( 31-H , 39-C ) :  -0.1152 B( 31-H , 42-N ) :   1.1358 B( 32-H , 43-N ) :   0.8296 
B( 33-C , 35-C ) :   1.1132 B( 33-C , 36-C ) :   1.3285 B( 33-C , 39-C ) :  -0.3330 
B( 34-C , 35-C ) :   1.2509 B( 34-C , 36-C ) :   0.2281 B( 34-C , 37-C ) :   1.3494 
B( 34-C , 39-C ) :  -0.3428 B( 34-C , 40-C ) :  -0.1209 B( 36-C , 37-C ) :  -0.1930 
B( 36-C , 39-C ) :   1.3835 B( 36-C , 42-N ) :  -0.1054 B( 37-C , 39-C ) :   1.1497 
B( 37-C , 40-C ) :   1.0366 B( 37-C , 43-N ) :  -0.1180 B( 37-C , 44-O ) :   0.3693 
B( 38-C , 41-C ) :   0.6615 B( 38-C , 45-O ) :   0.1485 B( 39-C , 40-C ) :  -0.2107 
B( 39-C , 42-N ) :   0.4412 B( 40-C , 43-N ) :   1.0751 B( 40-C , 44-O ) :   0.6294 
B( 41-C , 42-N ) :   1.0193 B( 41-C , 45-O ) :   0.9126 B( 42-N , 45-O ) :   0.1061 
B( 43-N , 44-O ) :   0.2150 

-------
TIMINGS
-------

Total SCF time: 0 days 17 hours 16 min 27 sec 

Total time                  ....   62187.572 sec
Sum of individual times     ....   62160.583 sec  (100.0%)

Fock matrix formation       ....   62103.567 sec  ( 99.9%)
Diagonalization             ....      13.622 sec  (  0.0%)
Density matrix formation    ....       1.342 sec  (  0.0%)
Population analysis         ....       3.872 sec  (  0.0%)
Initial guess               ....       7.931 sec  (  0.0%)
Orbital Transformation      ....       0.000 sec  (  0.0%)
Orbital Orthonormalization  ....       0.000 sec  (  0.0%)
DIIS solution               ....      13.477 sec  (  0.0%)
SOSCF solution              ....      16.171 sec  (  0.0%)

Maximum memory used throughout the entire SCF-calculation: 781.9 MB

-------------------------   --------------------
FINAL SINGLE POINT ENERGY     -1211.068114260911
-------------------------   --------------------


                            ***************************************
                            *     ORCA property calculations      *
                            ***************************************

                                    ---------------------
                                    Active property flags
                                    ---------------------
   (+) Dipole Moment


------------------------------------------------------------------------------
                       ORCA ELECTRIC PROPERTIES CALCULATION
------------------------------------------------------------------------------

Dipole Moment Calculation                       ... on
Quadrupole Moment Calculation                   ... off
Polarizability Calculation                      ... off
GBWName                                         ... ACBNZA01_01.gbw
Electron density                                ... ACBNZA01_01.scfp
The origin for moment calculation is the CENTER OF MASS  = ( 4.909804,  8.383587 11.306584)

-------------
DIPOLE MOMENT
-------------
                                X             Y             Z
Electronic contribution:     -0.00000      -0.00001       0.00000
Nuclear contribution   :     -0.00000       0.00000       0.00000
                        -----------------------------------------
Total Dipole Moment    :     -0.00001      -0.00000       0.00000
                        -----------------------------------------
Magnitude (a.u.)       :      0.00001
Magnitude (Debye)      :      0.00002



--------------------
Rotational spectrum 
--------------------
 
Rotational constants in cm-1:     0.013180     0.003211     0.002830 
Rotational constants in MHz :   395.123070    96.264689    84.834132 

 Dipole components along the rotational axes: 
x,y,z [a.u.] :     0.000002     0.000003     0.000006 
x,y,z [Debye]:     0.000005     0.000008     0.000016 

 

Timings for individual modules:

Sum of individual times         ...    62223.260 sec (=1037.054 min)
GTO integral calculation        ...       33.153 sec (=   0.553 min)   0.1 %
SCF iterations                  ...    62190.107 sec (=1036.502 min)  99.9 %
                             ****ORCA TERMINATED NORMALLY****
TOTAL RUN TIME: 0 days 17 hours 17 minutes 19 seconds 846 msec
Job execution end: Sat Apr  1 14:46:12 EDT 2023
