Job execution start: Fri Mar  3 10:27:15 EST 2023
Shared library path: /SFS/product/faccts/openmpi/4.1.4/x86-64/lib:/SFS/product/gcc/8.4.0/centos7_x86_64/lib64:/SFS/product/gcc/8.4.0/centos7_x86_64/lib:/SFS/product/pbs2021.1.2/CENTOS7/lib
PBS Job ID is: 3425553.bmbhpcps002
PBS Job name is: orca_test_100_uridine_opt_freq
Submitted to the the queue medium wtih ncpus=4 and mem=4gb
ktchpcpx016.merck.com

                                 *****************
                                 * O   R   C   A *
                                 *****************

                                            #,                                       
                                            ###                                      
                                            ####                                     
                                            #####                                    
                                            ######                                   
                                           ########,                                 
                                     ,,################,,,,,                         
                               ,,#################################,,                 
                          ,,##########################################,,             
                       ,#########################################, ''#####,          
                    ,#############################################,,   '####,        
                  ,##################################################,,,,####,       
                ,###########''''           ''''###############################       
              ,#####''   ,,,,##########,,,,          '''####'''          '####       
            ,##' ,,,,###########################,,,                        '##       
           ' ,,###''''                  '''############,,,                           
         ,,##''                                '''############,,,,        ,,,,,,###''
      ,#''                                            '''#######################'''  
     '                                                          ''''####''''         
             ,#######,   #######,   ,#######,      ##                                
            ,#'     '#,  ##    ##  ,#'     '#,    #''#        ######   ,####,        
            ##       ##  ##   ,#'  ##            #'  '#       #        #'  '#        
            ##       ##  #######   ##           ,######,      #####,   #    #        
            '#,     ,#'  ##    ##  '#,     ,#' ,#      #,         ##   #,  ,#        
             '#######'   ##     ##  '#######'  #'      '#     #####' # '####'        



                  #######################################################
                  #                        -***-                        #
                  #          Department of theory and spectroscopy      #
                  #    Directorship and core code : Frank Neese         #
                  #        Max Planck Institute fuer Kohlenforschung    #
                  #                Kaiser Wilhelm Platz 1               #
                  #                 D-45470 Muelheim/Ruhr               #
                  #                      Germany                        #
                  #                                                     #
                  #                  All rights reserved                #
                  #                        -***-                        #
                  #######################################################


                         Program Version 5.0.3-f.1  -   RELEASE   -


 With contributions from (in alphabetic order):
   Daniel Aravena         : Magnetic Suceptibility
   Michael Atanasov       : Ab Initio Ligand Field Theory (pilot matlab implementation)
   Alexander A. Auer      : GIAO ZORA, VPT2 properties, NMR spectrum
   Ute Becker             : Parallelization
   Giovanni Bistoni       : ED, misc. LED, open-shell LED, HFLD
   Martin Brehm           : Molecular dynamics
   Dmytro Bykov           : SCF Hessian
   Vijay G. Chilkuri      : MRCI spin determinant printing, contributions to CSF-ICE
   Dipayan Datta          : RHF DLPNO-CCSD density
   Achintya Kumar Dutta   : EOM-CC, STEOM-CC
   Dmitry Ganyushin       : Spin-Orbit,Spin-Spin,Magnetic field MRCI
   Miquel Garcia          : C-PCM and meta-GGA Hessian, CC/C-PCM, Gaussian charge scheme
   Yang Guo               : DLPNO-NEVPT2, F12-NEVPT2, CIM, IAO-localization
   Andreas Hansen         : Spin unrestricted coupled pair/coupled cluster methods
   Benjamin Helmich-Paris : MC-RPA, TRAH-SCF, COSX integrals
   Lee Huntington         : MR-EOM, pCC
   Robert Izsak           : Overlap fitted RIJCOSX, COSX-SCS-MP3, EOM
   Marcus Kettner         : VPT2
   Christian Kollmar      : KDIIS, OOCD, Brueckner-CCSD(T), CCSD density, CASPT2, CASPT2-K
   Simone Kossmann        : Meta GGA functionals, TD-DFT gradient, OOMP2, MP2 Hessian
   Martin Krupicka        : Initial AUTO-CI
   Lucas Lang             : DCDCAS
   Marvin Lechner         : AUTO-CI (C++ implementation), FIC-MRCC
   Dagmar Lenk            : GEPOL surface, SMD
   Dimitrios Liakos       : Extrapolation schemes; Compound Job, initial MDCI parallelization
   Dimitrios Manganas     : Further ROCIS development; embedding schemes
   Dimitrios Pantazis     : SARC Basis sets
   Anastasios Papadopoulos: AUTO-CI, single reference methods and gradients
   Taras Petrenko         : DFT Hessian,TD-DFT gradient, ASA, ECA, R-Raman, ABS, FL, XAS/XES, NRVS
   Peter Pinski           : DLPNO-MP2, DLPNO-MP2 Gradient
   Christoph Reimann      : Effective Core Potentials
   Marius Retegan         : Local ZFS, SOC
   Christoph Riplinger    : Optimizer, TS searches, QM/MM, DLPNO-CCSD(T), (RO)-DLPNO pert. Triples
   Tobias Risthaus        : Range-separated hybrids, TD-DFT gradient, RPA, STAB
   Michael Roemelt        : Original ROCIS implementation
   Masaaki Saitow         : Open-shell DLPNO-CCSD energy and density
   Barbara Sandhoefer     : DKH picture change effects
   Avijit Sen             : IP-ROCIS
   Kantharuban Sivalingam : CASSCF convergence, NEVPT2, FIC-MRCI
   Bernardo de Souza      : ESD, SOC TD-DFT
   Georgi Stoychev        : AutoAux, RI-MP2 NMR, DLPNO-MP2 response
   Willem Van den Heuvel  : Paramagnetic NMR
   Boris Wezisla          : Elementary symmetry handling
   Frank Wennmohs         : Technical directorship


 We gratefully acknowledge several colleagues who have allowed us to
 interface, adapt or use parts of their codes:
   Stefan Grimme, W. Hujo, H. Kruse, P. Pracht,  : VdW corrections, initial TS optimization,
                  C. Bannwarth, S. Ehlert          DFT functionals, gCP, sTDA/sTD-DF
   Ed Valeev, F. Pavosevic, A. Kumar             : LibInt (2-el integral package), F12 methods
   Garnet Chan, S. Sharma, J. Yang, R. Olivares  : DMRG
   Ulf Ekstrom                                   : XCFun DFT Library
   Mihaly Kallay                                 : mrcc  (arbitrary order and MRCC methods)
   Jiri Pittner, Ondrej Demel                    : Mk-CCSD
   Frank Weinhold                                : gennbo (NPA and NBO analysis)
   Christopher J. Cramer and Donald G. Truhlar   : smd solvation model
   Lars Goerigk                                  : TD-DFT with DH, B97 family of functionals
   V. Asgeirsson, H. Jonsson                     : NEB implementation
   FAccTs GmbH                                   : IRC, NEB, NEB-TS, DLPNO-Multilevel, CI-OPT
                                                   MM, QMMM, 2- and 3-layer-ONIOM, Crystal-QMMM,
                                                   LR-CPCM, SF, NACMEs, symmetry and pop. for TD-DFT,
                                                   nearIR, NL-DFT gradient (VV10), updates on ESD,
                                                   ML-optimized integration grids
   S Lehtola, MJT Oliveira, MAL Marques          : LibXC Library
   Liviu Ungur et al                             : ANISO software


 Your calculation uses the libint2 library for the computation of 2-el integrals
 For citations please refer to: http://libint.valeyev.net

 Your ORCA version has been built with support for libXC version: 5.1.0
 For citations please refer to: https://tddft.org/programs/libxc/

 This ORCA versions uses:
   CBLAS   interface :  Fast vector & matrix operations
   LAPACKE interface :  Fast linear algebra routines
   SCALAPACK package :  Parallel linear algebra routines
   Shared memory     :  Shared parallel matrices
   BLAS/LAPACK       :  OpenBLAS 0.3.20  USE64BITINT DYNAMIC_ARCH NO_AFFINITY SkylakeX SINGLE_THREADED
        Core in use  :  SkylakeX
   Copyright (c) 2011-2014, The OpenBLAS Project


Your calculation utilizes the atom-pairwise dispersion correction
with the Becke-Johnson damping scheme (D3BJ)
Cite in your paper:
S.Grimme, S.Ehrlich, L.Goerigk, J Comput Chem, (2011), 32, 1456–1465 
S.Grimme, J.Antony, S.Ehrlich and H.Krieg, J.Chem.Phys., 132, (2010), 154104 
   

================================================================================

----- Orbital basis set information -----
Your calculation utilizes the basis: 6-31G(d)
   H-He, Li-Ne : W. J. Hehre, R. Ditchfield and J.A. Pople, J. Chem. Phys. 56, 2257 (1972).
                 Note: He and Ne are unpublished basis sets taken from the Gaussian program.
                 Note: Li and B from J. D. Dill and J. A. Pople, J. Chem. Phys. 62, 2921 (1975).
   Na - Ar     : M. M. Francl, W. J. Pietro, W. J. Hehre, J. S. Binkley, M. S. Gordon, 
                 D. J. DeFrees and J. A. Pople, J. Chem. Phys. 77, 3654 (1982).
   K - Zn      : V. A. Rassolov, J. A. Pople, M. A. Ratner, and T. L. Windus, J. Chem. Phys. 109, 1223 (1998).

----- AuxJ basis set information -----
Your calculation utilizes the auxiliary basis: def2/J
   F. Weigend, Phys. Chem. Chem. Phys. 8, 1057 (2006).

================================================================================
                                        WARNINGS
                       Please study these warnings very carefully!
================================================================================


WARNING: Geometry Optimization
  ===> : Switching off AutoStart
         For restart on a previous wavefunction, please use MOREAD

INFO   : the flag for use of the SHARK integral package has been found!

================================================================================
                                       INPUT FILE
================================================================================
NAME = orca_test_100_uridine_opt_freq.inp
|  1> ! b3lyp/G 6-31g(d) D3 CPCM(water) opt freq tightscf
|  2> %maxcore 1000
|  3> %pal
|  4> 	nproc 4
|  5> end
|  6> 
|  7> * xyz 0 1
|  8>  6          3.81472230    0.33750522    0.14614943
|  9>  6          2.70351934    0.51809502   -0.57053703
| 10>  7          1.44507718    0.26401237   -0.05548295
| 11>  6          1.27698672   -0.21741368    1.23580658
| 12>  8          0.18983726   -0.48697883    1.74334991
| 13>  7          2.42703629   -0.39430982    1.96055412
| 14>  6          3.69690514   -0.15269515    1.52668941
| 15>  8          4.68861151   -0.33199659    2.22232127
| 16>  6          0.27652907    0.46311659   -0.91630781
| 17>  6         -0.43325704   -0.82726794   -1.36208439
| 18>  6         -1.75885904   -0.78542173   -0.61961108
| 19>  6         -1.98108745    0.71387446   -0.44165945
| 20>  8         -0.67931598    1.29470444   -0.23261185
| 21>  6         -2.88835597    1.07023466    0.73521751
| 22>  8         -2.50963593    0.39274159    1.93051863
| 23>  8         -2.78649902   -1.41911137   -1.38349736
| 24>  8         -0.67447364   -0.80085635   -2.78132772
| 25>  1          4.80783558    0.53296161   -0.23537906
| 26>  1          2.76381254    0.87833512   -1.59442019
| 27>  1          2.32244110   -0.73365402    2.90389299
| 28>  1          0.58795124    1.03504050   -1.79944336
| 29>  1          0.13832243   -1.73754263   -1.15744293
| 30>  1         -1.65814829   -1.31425822    0.33219174
| 31>  1         -2.39890432    1.15967953   -1.35317397
| 32>  1         -3.92426777    0.79417652    0.51661742
| 33>  1         -2.84833598    2.14471841    0.94008678
| 34>  1         -1.52917957    0.41925484    1.99037051
| 35>  1         -3.54789329   -1.53307223   -0.78323817
| 36>  1         -1.52137470   -1.28387237   -2.89754915
| 37> *
| 38> 
| 39> 
| 40>                          ****END OF INPUT****
================================================================================

                       *****************************
                       * Geometry Optimization Run *
                       *****************************

Geometry optimization settings:
Update method            Update   .... BFGS
Choice of coordinates    CoordSys .... Z-matrix Internals
Initial Hessian          InHess   .... Almoef's Model

Convergence Tolerances:
Energy Change            TolE     ....  5.0000e-06 Eh
Max. Gradient            TolMAXG  ....  3.0000e-04 Eh/bohr
RMS Gradient             TolRMSG  ....  1.0000e-04 Eh/bohr
Max. Displacement        TolMAXD  ....  4.0000e-03 bohr
RMS Displacement         TolRMSD  ....  2.0000e-03 bohr
Strict Convergence                ....  False
------------------------------------------------------------------------------
                        ORCA OPTIMIZATION COORDINATE SETUP
------------------------------------------------------------------------------

The optimization will be done in new redundant internal coordinates
Making redundant internal coordinates   ...  (new redundants) done
Evaluating the initial hessian          ...  (Almloef) done
Evaluating the coordinates              ...  done
Calculating the B-matrix                .... done
Calculating the G-matrix                .... done
Diagonalizing the G-matrix              .... done
Small eigenvalue found = 1.171e-02
Small eigenvalue found = 2.043e-02
The first mode is                       ....   82
The number of degrees of freedom        ....   81

    -----------------------------------------------------------------
                    Redundant Internal Coordinates


    -----------------------------------------------------------------
         Definition                    Initial Value    Approx d2E/dq
    -----------------------------------------------------------------
      1. B(C   1,C   0)                  1.3346         0.765958   
      2. B(N   2,C   1)                  1.3833         0.573544   
      3. B(C   3,N   2)                  1.3883         0.563045   
      4. B(O   4,C   3)                  1.2297         1.008383   
      5. B(N   5,C   3)                  1.3708         0.600434   
      6. B(C   6,N   5)                  1.3635         0.616772   
      7. B(C   6,C   0)                  1.4697         0.466182   
      8. B(O   7,C   6)                  1.2246         1.027621   
      9. B(C   8,N   2)                  1.4650         0.424864   
     10. B(C   9,C   8)                  1.5387         0.361821   
     11. B(C  10,C   9)                  1.5199         0.387629   
     12. B(C  11,C  10)                  1.5261         0.378984   
     13. B(O  12,C  11)                  1.4407         0.464468   
     14. B(O  12,C   8)                  1.4397         0.466281   
     15. B(C  13,C  11)                  1.5281         0.376156   
     16. B(O  14,C  13)                  1.4252         0.491734   
     17. B(O  15,C  10)                  1.4287         0.485470   
     18. B(O  16,C   9)                  1.4398         0.465974   
     19. B(H  17,C   0)                  1.0817         0.371270   
     20. B(H  18,C   1)                  1.0871         0.363982   
     21. B(H  19,N   5)                  1.0080         0.435963   
     22. B(H  20,C   8)                  1.0973         0.350605   
     23. B(H  21,C   9)                  1.0942         0.354642   
     24. B(H  22,C  10)                  1.0935         0.355501   
     25. B(H  23,C  11)                  1.0973         0.350510   
     26. B(H  24,C  13)                  1.0941         0.354686   
     27. B(H  25,C  13)                  1.0946         0.354102   
     28. B(H  26,O  14)                  0.9826         0.478462   
     29. B(H  27,O  15)                  0.9762         0.489866   
     30. B(H  28,O  16)                  0.9819         0.479830   
     31. A(C   1,C   0,C   6)          118.8702         0.428355   
     32. A(C   1,C   0,H  17)          123.4078         0.367765   
     33. A(C   6,C   0,H  17)          117.7221         0.338131   
     34. A(C   0,C   1,H  18)          120.2959         0.366517   
     35. A(N   2,C   1,H  18)          117.5173         0.346789   
     36. A(C   0,C   1,N   2)          122.1866         0.441727   
     37. A(C   1,N   2,C   8)          118.8101         0.395139   
     38. A(C   1,N   2,C   3)          121.3425         0.415285   
     39. A(C   3,N   2,C   8)          119.8073         0.393861   
     40. A(N   2,C   3,O   4)          124.5374         0.459735   
     41. A(O   4,C   3,N   5)          119.6825         0.465169   
     42. A(N   2,C   3,N   5)          115.7798         0.418687   
     43. A(C   3,N   5,C   6)          126.1734         0.425558   
     44. A(C   6,N   5,H  19)          117.0067         0.358808   
     45. A(C   3,N   5,H  19)          116.8198         0.357173   
     46. A(C   0,C   6,N   5)          115.6357         0.409459   
     47. A(N   5,C   6,O   7)          123.1974         0.469084   
     48. A(C   0,C   6,O   7)          121.1659         0.448710   
     49. A(N   2,C   8,C   9)          115.1005         0.367114   
     50. A(O  12,C   8,H  20)          105.6395         0.332911   
     51. A(C   9,C   8,H  20)          109.5638         0.321214   
     52. A(C   9,C   8,O  12)          108.4046         0.373031   
     53. A(N   2,C   8,H  20)          108.5046         0.327829   
     54. A(N   2,C   8,O  12)          109.2109         0.381123   
     55. A(C   8,C   9,C  10)          103.7508         0.363660   
     56. A(C  10,C   9,O  16)          109.5655         0.377452   
     57. A(C   8,C   9,O  16)          110.3322         0.372989   
     58. A(O  16,C   9,H  21)          106.6864         0.333507   
     59. A(C  10,C   9,H  21)          112.7767         0.325475   
     60. A(C   8,C   9,H  21)          113.7360         0.321816   
     61. A(C   9,C  10,C  11)          102.1815         0.366556   
     62. A(C  11,C  10,O  15)          113.1641         0.378658   
     63. A(C   9,C  10,O  15)          110.7277         0.380141   
     64. A(C  11,C  10,H  22)          112.7707         0.324400   
     65. A(O  15,C  10,H  22)          108.4897         0.335921   
     66. A(C   9,C  10,H  22)          109.3629         0.325605   
     67. A(C  13,C  11,H  23)          108.5979         0.323250   
     68. A(C  10,C  11,H  23)          110.9597         0.323648   
     69. A(O  12,C  11,C  13)          109.3107         0.375287   
     70. A(C  10,C  11,C  13)          113.9141         0.364675   
     71. A(C  10,C  11,O  12)          106.3449         0.375773   
     72. A(O  12,C  11,H  23)          107.5041         0.332681   
     73. A(C   8,O  12,C  11)          107.3451         0.387076   
     74. A(H  24,C  13,H  25)          108.6443         0.289385   
     75. A(O  14,C  13,H  25)          107.4548         0.336418   
     76. A(C  11,C  13,H  25)          110.5705         0.323792   
     77. A(O  14,C  13,H  24)          107.4108         0.336510   
     78. A(C  11,C  13,H  24)          110.4516         0.323879   
     79. A(C  11,C  13,O  14)          112.1659         0.379008   
     80. A(C  13,O  14,H  26)          107.6620         0.350774   
     81. A(C  10,O  15,H  27)          106.5002         0.351411   
     82. A(C   9,O  16,H  28)          104.6050         0.347773   
     83. D(H  18,C   1,C   0,H  17)      0.0594         0.042014   
     84. D(N   2,C   1,C   0,C   6)      0.2466         0.042014   
     85. D(H  18,C   1,C   0,C   6)   -179.9073         0.042014   
     86. D(N   2,C   1,C   0,H  17)   -179.7867         0.042014   
     87. D(C   8,N   2,C   1,C   0)   -178.8272         0.026346   
     88. D(C   3,N   2,C   1,C   0)     -1.1358         0.026346   
     89. D(C   3,N   2,C   1,H  18)    179.0140         0.026346   
     90. D(C   8,N   2,C   1,H  18)      1.3226         0.026346   
     91. D(N   5,C   3,N   2,C   1)      1.2405         0.025334   
     92. D(O   4,C   3,N   2,C   8)     -0.8906         0.025334   
     93. D(O   4,C   3,N   2,C   1)   -178.5593         0.025334   
     94. D(N   5,C   3,N   2,C   8)    178.9091         0.025334   
     95. D(H  19,N   5,C   3,N   2)    179.3435         0.029053   
     96. D(C   6,N   5,C   3,O   4)    179.2671         0.029053   
     97. D(C   6,N   5,C   3,N   2)     -0.5430         0.029053   
     98. D(H  19,N   5,C   3,O   4)     -0.8464         0.029053   
     99. D(O   7,C   6,N   5,H  19)      0.2052         0.030779   
    100. D(C   0,C   6,N   5,H  19)    179.8393         0.030779   
    101. D(C   0,C   6,N   5,C   3)     -0.2744         0.030779   
    102. D(O   7,C   6,C   0,H  17)      0.1065         0.014800   
    103. D(O   7,C   6,N   5,C   3)   -179.9085         0.030779   
    104. D(N   5,C   6,C   0,H  17)   -179.5357         0.014800   
    105. D(N   5,C   6,C   0,C   1)      0.4329         0.014800   
    106. D(O   7,C   6,C   0,C   1)   -179.9249         0.014800   
    107. D(H  20,C   8,N   2,C   3)    168.3641         0.015390   
    108. D(H  20,C   8,N   2,C   1)    -13.9083         0.015390   
    109. D(O  12,C   8,N   2,C   3)     53.6767         0.015390   
    110. D(O  12,C   8,N   2,C   1)   -128.5957         0.015390   
    111. D(C   9,C   8,N   2,C   3)    -68.4938         0.015390   
    112. D(C   9,C   8,N   2,C   1)    109.2339         0.015390   
    113. D(C  10,C   9,C   8,N   2)    110.7429         0.010496   
    114. D(H  21,C   9,C   8,O  12)   -134.7484         0.010496   
    115. D(H  21,C   9,C   8,N   2)    -12.1451         0.010496   
    116. D(O  16,C   9,C   8,H  20)     -9.3998         0.010496   
    117. D(O  16,C   9,C   8,O  12)    105.4205         0.010496   
    118. D(O  16,C   9,C   8,N   2)   -131.9762         0.010496   
    119. D(C  10,C   9,C   8,H  20)   -126.6806         0.010496   
    120. D(H  21,C   9,C   8,H  20)    110.4314         0.010496   
    121. D(C  10,C   9,C   8,O  12)    -11.8604         0.010496   
    122. D(H  22,C  10,C   9,H  21)     31.5100         0.011952   
    123. D(H  22,C  10,C   9,C   8)    -92.0080         0.011952   
    124. D(O  15,C  10,C   9,H  21)    -87.9883         0.011952   
    125. D(O  15,C  10,C   9,O  16)     30.6794         0.011952   
    126. D(O  15,C  10,C   9,C   8)    148.4937         0.011952   
    127. D(C  11,C  10,C   9,H  21)    151.2167         0.011952   
    128. D(H  22,C  10,C   9,O  16)    150.1777         0.011952   
    129. D(C  11,C  10,C   9,O  16)    -90.1156         0.011952   
    130. D(C  11,C  10,C   9,C   8)     27.6988         0.011952   
    131. D(H  23,C  11,C  10,H  22)   -161.4063         0.011450   
    132. D(H  23,C  11,C  10,O  15)    -37.7853         0.011450   
    133. D(H  23,C  11,C  10,C   9)     81.3052         0.011450   
    134. D(C  13,C  11,C  10,H  22)    -38.4872         0.011450   
    135. D(C  13,C  11,C  10,O  15)     85.1338         0.011450   
    136. D(C  13,C  11,C  10,C   9)   -155.7757         0.011450   
    137. D(O  12,C  11,C  10,H  22)     81.9788         0.011450   
    138. D(O  12,C  11,C  10,O  15)   -154.4002         0.011450   
    139. D(O  12,C  11,C  10,C   9)    -35.3097         0.011450   
    140. D(C   8,O  12,C  11,C  13)    152.0905         0.016999   
    141. D(C   8,O  12,C  11,C  10)     28.6969         0.016999   
    142. D(C  11,O  12,C   8,H  20)    107.0442         0.017134   
    143. D(C  11,O  12,C   8,C   9)    -10.3189         0.017134   
    144. D(C   8,O  12,C  11,H  23)    -90.2086         0.016999   
    145. D(C  11,O  12,C   8,N   2)   -136.4321         0.017134   
    146. D(H  25,C  13,C  11,H  23)    -67.3677         0.011289   
    147. D(H  25,C  13,C  11,C  10)    168.4327         0.011289   
    148. D(H  24,C  13,C  11,H  23)     52.9229         0.011289   
    149. D(H  24,C  13,C  11,O  12)    169.9348         0.011289   
    150. D(H  24,C  13,C  11,C  10)    -71.2766         0.011289   
    151. D(O  14,C  13,C  11,H  23)    172.7090         0.011289   
    152. D(H  25,C  13,C  11,O  12)     49.6441         0.011289   
    153. D(O  14,C  13,C  11,O  12)    -70.2791         0.011289   
    154. D(O  14,C  13,C  11,C  10)     48.5095         0.011289   
    155. D(H  26,O  14,C  13,H  25)    -79.5177         0.019097   
    156. D(H  26,O  14,C  13,H  24)    163.7504         0.019097   
    157. D(H  26,O  14,C  13,C  11)     42.2052         0.019097   
    158. D(H  27,O  15,C  10,H  22)     47.8779         0.018602   
    159. D(H  27,O  15,C  10,C  11)    -78.0644         0.018602   
    160. D(H  27,O  15,C  10,C   9)    167.8999         0.018602   
    161. D(H  28,O  16,C   9,H  21)     89.4474         0.017111   
    162. D(H  28,O  16,C   9,C  10)    -32.9277         0.017111   
    163. D(H  28,O  16,C   9,C   8)   -146.5511         0.017111   
    -----------------------------------------------------------------

Number of atoms                         .... 29
Number of degrees of freedom            .... 163

         *************************************************************
         *                GEOMETRY OPTIMIZATION CYCLE   1            *
         *************************************************************
---------------------------------
CARTESIAN COORDINATES (ANGSTROEM)
---------------------------------
  C      3.814722    0.337505    0.146149
  C      2.703519    0.518095   -0.570537
  N      1.445077    0.264012   -0.055483
  C      1.276987   -0.217414    1.235807
  O      0.189837   -0.486979    1.743350
  N      2.427036   -0.394310    1.960554
  C      3.696905   -0.152695    1.526689
  O      4.688612   -0.331997    2.222321
  C      0.276529    0.463117   -0.916308
  C     -0.433257   -0.827268   -1.362084
  C     -1.758859   -0.785422   -0.619611
  C     -1.981087    0.713874   -0.441659
  O     -0.679316    1.294704   -0.232612
  C     -2.888356    1.070235    0.735218
  O     -2.509636    0.392742    1.930519
  O     -2.786499   -1.419111   -1.383497
  O     -0.674474   -0.800856   -2.781328
  H      4.807836    0.532962   -0.235379
  H      2.763813    0.878335   -1.594420
  H      2.322441   -0.733654    2.903893
  H      0.587951    1.035041   -1.799443
  H      0.138322   -1.737543   -1.157443
  H     -1.658148   -1.314258    0.332192
  H     -2.398904    1.159680   -1.353174
  H     -3.924268    0.794177    0.516617
  H     -2.848336    2.144718    0.940087
  H     -1.529180    0.419255    1.990371
  H     -3.547893   -1.533072   -0.783238
  H     -1.521375   -1.283872   -2.897549

----------------------------
CARTESIAN COORDINATES (A.U.)
----------------------------
  NO LB      ZA    FRAG     MASS         X           Y           Z
   0 C     6.0000    0    12.011    7.208780    0.637792    0.276182
   1 C     6.0000    0    12.011    5.108911    0.979058   -1.078159
   2 N     7.0000    0    14.007    2.730800    0.498911   -0.104848
   3 C     6.0000    0    12.011    2.413155   -0.410852    2.335336
   4 O     8.0000    0    15.999    0.358740   -0.920257    3.294454
   5 N     7.0000    0    14.007    4.586434   -0.745138    3.704910
   6 C     6.0000    0    12.011    6.986138   -0.288552    2.885025
   7 O     8.0000    0    15.999    8.860192   -0.627383    4.199579
   8 C     6.0000    0    12.011    0.522564    0.875164   -1.731571
   9 C     6.0000    0    12.011   -0.818737   -1.563310   -2.573966
  10 C     6.0000    0    12.011   -3.323762   -1.484232   -1.170895
  11 C     6.0000    0    12.011   -3.743713    1.349027   -0.834615
  12 O     8.0000    0    15.999   -1.283721    2.446637   -0.439573
  13 C     6.0000    0    12.011   -5.458202    2.022450    1.389360
  14 O     8.0000    0    15.999   -4.742525    0.742174    3.648152
  15 O     8.0000    0    15.999   -5.265720   -2.681732   -2.614431
  16 O     8.0000    0    15.999   -1.274570   -1.513399   -5.255948
  17 H     1.0000    0     1.008    9.085493    1.007151   -0.444802
  18 H     1.0000    0     1.008    5.222849    1.659813   -3.013018
  19 H     1.0000    0     1.008    4.388778   -1.386405    5.487562
  20 H     1.0000    0     1.008    1.111067    1.955943   -3.400455
  21 H     1.0000    0     1.008    0.261392   -3.283480   -2.187250
  22 H     1.0000    0     1.008   -3.133446   -2.483588    0.627751
  23 H     1.0000    0     1.008   -4.533272    2.191477   -2.557128
  24 H     1.0000    0     1.008   -7.415791    1.500776    0.976265
  25 H     1.0000    0     1.008   -5.382575    4.052930    1.776507
  26 H     1.0000    0     1.008   -2.889731    0.792277    3.761255
  27 H     1.0000    0     1.008   -6.704547   -2.897087   -1.480106
  28 H     1.0000    0     1.008   -2.874982   -2.426167   -5.475574

--------------------------------
INTERNAL COORDINATES (ANGSTROEM)
--------------------------------
 C      0   0   0     0.000000000000     0.00000000     0.00000000
 C      1   0   0     1.334550177447     0.00000000     0.00000000
 N      2   1   0     1.383298727109   122.18659767     0.00000000
 C      3   2   1     1.388327805185   121.34247141   358.86418036
 O      4   3   2     1.229698967349   124.53737103   181.44072693
 N      4   3   2     1.370826485935   115.77980636     1.24046733
 C      6   4   3     1.363518658304   126.17341181   359.45698293
 O      7   6   4     1.224554700833   123.19741635   180.09152814
 C      3   2   1     1.464980073380   118.81012043   181.17282173
 C      9   3   2     1.538702478223   115.10047184   109.23387139
 C     10   9   3     1.519946835833   103.75080837   110.74293093
 C     11  10   9     1.526086928775   102.18149551    27.69876894
 O      9   3   2     1.439659083810   109.21086556   231.40431107
 C     12  11  10     1.528125694603   113.91413585   204.22433094
 O     14  12  11     1.425191389277   112.16594367    48.50951705
 O     11  10   9     1.428680768090   110.72769108   148.49372045
 O     10   9   3     1.439838411056   110.33216887   228.02381062
 H      1   2   3     1.081684416078   123.40777511   180.21330405
 H      2   1   3     1.087080919226   120.29590032   179.84612252
 H      6   4   3     1.007959752916   116.81983651   179.34350766
 H      9   3   2     1.097273496659   108.50464618   346.09173002
 H     10   9   3     1.094157771499   113.73599281   347.85494950
 H     11  10   9     1.093498649510   109.36288431   267.99203538
 H     12  11  10     1.097347628359   110.95965638    81.30518580
 H     14  12  11     1.094124011887   110.45157695   288.72342267
 H     14  12  11     1.094572220735   110.57052567   168.43274991
 H     15  14  12     0.982639238902   107.66196115    42.20517507
 H     16  11  10     0.976227128890   106.50018171   167.89985105
 H     17  10   9     0.981862160284   104.60501109   213.44885708

---------------------------
INTERNAL COORDINATES (A.U.)
---------------------------
 C      0   0   0     0.000000000000     0.00000000     0.00000000
 C      1   0   0     2.521934347351     0.00000000     0.00000000
 N      2   1   0     2.614055755638   122.18659767     0.00000000
 C      3   2   1     2.623559335907   121.34247141   358.86418036
 O      4   3   2     2.323794275456   124.53737103   181.44072693
 N      4   3   2     2.590486635542   115.77980636     1.24046733
 C      6   4   3     2.576676842686   126.17341181   359.45698293
 O      7   6   4     2.314073020580   123.19741635   180.09152814
 C      3   2   1     2.768411130340   118.81012043   181.17282173
 C      9   3   2     2.907726285427   115.10047184   109.23387139
 C     10   9   3     2.872283257844   103.75080837   110.74293093
 C     11  10   9     2.883886351943   102.18149551    27.69876894
 O      9   3   2     2.720561394613   109.21086556   231.40431107
 C     12  11  10     2.887739061008   113.91413585   204.22433094
 O     14  12  11     2.693221414156   112.16594367    48.50951705
 O     11  10   9     2.699815384490   110.72769108   148.49372045
 O     10   9   3     2.720900273996   110.33216887   228.02381062
 H      1   2   3     2.044087309718   123.40777511   180.21330405
 H      2   1   3     2.054285222749   120.29590032   179.84612252
 H      6   4   3     1.904767887025   116.81983651   179.34350766
 H      9   3   2     2.073546402696   108.50464618   346.09173002
 H     10   9   3     2.067658535434   113.73599281   347.85494950
 H     11  10   9     2.066412975387   109.36288431   267.99203538
 H     12  11  10     2.073686491307   110.95965638    81.30518580
 H     14  12  11     2.067594739013   110.45157695   288.72342267
 H     14  12  11     2.068441730986   110.57052567   168.43274991
 H     15  14  12     1.856919049969   107.66196115    42.20517507
 H     16  11  10     1.844801918106   106.50018171   167.89985105
 H     17  10   9     1.855450584197   104.60501109   213.44885708

---------------------
BASIS SET INFORMATION
---------------------
There are 4 groups of distinct atoms

 Group   1 Type C   : 10s4p1d contracted to 3s2p1d pattern {631/31/1}
 Group   2 Type N   : 10s4p1d contracted to 3s2p1d pattern {631/31/1}
 Group   3 Type O   : 10s4p1d contracted to 3s2p1d pattern {631/31/1}
 Group   4 Type H   : 4s contracted to 2s pattern {31}

Atom   0C    basis set group =>   1
Atom   1C    basis set group =>   1
Atom   2N    basis set group =>   2
Atom   3C    basis set group =>   1
Atom   4O    basis set group =>   3
Atom   5N    basis set group =>   2
Atom   6C    basis set group =>   1
Atom   7O    basis set group =>   3
Atom   8C    basis set group =>   1
Atom   9C    basis set group =>   1
Atom  10C    basis set group =>   1
Atom  11C    basis set group =>   1
Atom  12O    basis set group =>   3
Atom  13C    basis set group =>   1
Atom  14O    basis set group =>   3
Atom  15O    basis set group =>   3
Atom  16O    basis set group =>   3
Atom  17H    basis set group =>   4
Atom  18H    basis set group =>   4
Atom  19H    basis set group =>   4
Atom  20H    basis set group =>   4
Atom  21H    basis set group =>   4
Atom  22H    basis set group =>   4
Atom  23H    basis set group =>   4
Atom  24H    basis set group =>   4
Atom  25H    basis set group =>   4
Atom  26H    basis set group =>   4
Atom  27H    basis set group =>   4
Atom  28H    basis set group =>   4
---------------------------------
AUXILIARY/J BASIS SET INFORMATION
---------------------------------
There are 4 groups of distinct atoms

 Group   1 Type C   : 12s5p4d2f1g contracted to 6s4p3d1f1g pattern {711111/2111/211/2/1}
 Group   2 Type N   : 12s5p4d2f1g contracted to 6s4p3d1f1g pattern {711111/2111/211/2/1}
 Group   3 Type O   : 12s5p4d2f1g contracted to 6s4p3d1f1g pattern {711111/2111/211/2/1}
 Group   4 Type H   : 5s2p1d contracted to 3s1p1d pattern {311/2/1}

Atom   0C    basis set group =>   1
Atom   1C    basis set group =>   1
Atom   2N    basis set group =>   2
Atom   3C    basis set group =>   1
Atom   4O    basis set group =>   3
Atom   5N    basis set group =>   2
Atom   6C    basis set group =>   1
Atom   7O    basis set group =>   3
Atom   8C    basis set group =>   1
Atom   9C    basis set group =>   1
Atom  10C    basis set group =>   1
Atom  11C    basis set group =>   1
Atom  12O    basis set group =>   3
Atom  13C    basis set group =>   1
Atom  14O    basis set group =>   3
Atom  15O    basis set group =>   3
Atom  16O    basis set group =>   3
Atom  17H    basis set group =>   4
Atom  18H    basis set group =>   4
Atom  19H    basis set group =>   4
Atom  20H    basis set group =>   4
Atom  21H    basis set group =>   4
Atom  22H    basis set group =>   4
Atom  23H    basis set group =>   4
Atom  24H    basis set group =>   4
Atom  25H    basis set group =>   4
Atom  26H    basis set group =>   4
Atom  27H    basis set group =>   4
Atom  28H    basis set group =>   4


           ************************************************************
           *        Program running with 4 parallel MPI-processes     *
           *              working on a common directory               *
           ************************************************************
------------------------------------------------------------------------------
                           ORCA GTO INTEGRAL CALCULATION
                           -- RI-GTO INTEGRALS CHOSEN --
------------------------------------------------------------------------------
------------------------------------------------------------------------------
                   ___                                                        
                  /   \      - P O W E R E D   B Y -                         
                 /     \                                                     
                 |  |  |   _    _      __       _____    __    __             
                 |  |  |  | |  | |    /  \     |  _  \  |  |  /  |          
                  \  \/   | |  | |   /    \    | | | |  |  | /  /          
                 / \  \   | |__| |  /  /\  \   | |_| |  |  |/  /          
                |  |  |   |  __  | /  /__\  \  |    /   |      \           
                |  |  |   | |  | | |   __   |  |    \   |  |\   \          
                \     /   | |  | | |  |  |  |  | |\  \  |  | \   \       
                 \___/    |_|  |_| |__|  |__|  |_| \__\ |__|  \__/        
                                                                              
                      - O R C A' S   B I G   F R I E N D -                    
                                      &                                       
                       - I N T E G R A L  F E E D E R -                       
                                                                              
 v1 FN, 2020, v2 2021                                                         
------------------------------------------------------------------------------


Reading SHARK input file orca_test_100_uridine_opt_freq.SHARKINP.tmp ... ok
----------------------
SHARK INTEGRAL PACKAGE
----------------------

Number of atoms                             ...     29
Number of basis functions                   ...    262
Number of shells                            ...    126
Maximum angular momentum                    ...      2
Integral batch strategy                     ... SHARK/LIBINT Hybrid
RI-J (if used) integral strategy            ... SPLIT-RIJ (Revised 2003 algorithm where possible)
Printlevel                                  ...      1
Contraction scheme used                     ... SEGMENTED contraction
Coulomb Range Separation                    ... NOT USED
Exchange Range Separation                   ... NOT USED
Finite Nucleus Model                        ... NOT USED
Auxiliary Coulomb fitting basis             ... AVAILABLE
   # of basis functions in Aux-J            ...    965
   # of shells in Aux-J                     ...    315
   Maximum angular momentum in Aux-J        ...      4
Auxiliary J/K fitting basis                 ... NOT available
Auxiliary Correlation fitting basis         ... NOT available
Auxiliary 'external' fitting basis          ... NOT available
Integral threshold                          ...     2.500000e-11
Primitive cut-off                           ...     2.500000e-12
Primitive pair pre-selection threshold      ...     2.500000e-12

Calculating pre-screening integrals         ... done (  0.0 sec) Dimension = 126
Organizing shell pair data                  ... done (  0.1 sec)
Shell pair information
Total number of shell pairs                 ...      8001
Shell pairs after pre-screening             ...      6566
Total number of primitive shell pairs       ...     46449
Primitive shell pairs kept                  ...     22015
          la=0 lb=0:   2237 shell pairs
          la=1 lb=0:   2200 shell pairs
          la=1 lb=1:    545 shell pairs
          la=2 lb=0:    969 shell pairs
          la=2 lb=1:    496 shell pairs
          la=2 lb=2:    119 shell pairs

Calculating one electron integrals          ... done (  0.0 sec)
Calculating RI/J V-Matrix + Cholesky decomp.... done (  0.2 sec)
Calculating Nuclear repulsion               ... done (  0.0 sec) ENN=   1332.028291233917 Eh

SHARK setup successfully completed in   0.7 seconds

Maximum memory used throughout the entire GTOINT-calculation: 16.8 MB


           ************************************************************
           *        Program running with 4 parallel MPI-processes     *
           *              working on a common directory               *
           ************************************************************
-------------------------------------------------------------------------------
                                 ORCA SCF
-------------------------------------------------------------------------------

------------
SCF SETTINGS
------------
Hamiltonian:
 Density Functional     Method          .... DFT(GTOs)
 Exchange Functional    Exchange        .... B88
   X-Alpha parameter    XAlpha          ....  0.666667
   Becke's b parameter  XBeta           ....  0.004200
 Correlation Functional Correlation     .... LYP
 LDA part of GGA corr.  LDAOpt          .... VWN-3
 Gradients option       PostSCFGGA      .... off
 Hybrid DFT is turned on
   Fraction HF Exchange ScalHFX         ....  0.200000
   Scaling of DF-GGA-X  ScalDFX         ....  0.720000
   Scaling of DF-GGA-C  ScalDFC         ....  0.810000
   Scaling of DF-LDA-C  ScalLDAC        ....  1.000000
   Perturbative correction              ....  0.000000
   Density functional embedding theory  .... OFF
   NL short-range parameter             ....  4.800000
 RI-approximation to the Coulomb term is turned on
   Number of AuxJ basis functions       .... 965
   RIJ-COSX (HFX calculated with COS-X)).... on


General Settings:
 Integral files         IntName         .... orca_test_100_uridine_opt_freq
 Hartree-Fock type      HFTyp           .... RHF
 Total Charge           Charge          ....    0
 Multiplicity           Mult            ....    1
 Number of Electrons    NEL             ....  128
 Basis Dimension        Dim             ....  262
 Nuclear Repulsion      ENuc            ....   1332.0282912339 Eh

Convergence Acceleration:
 DIIS                   CNVDIIS         .... on
   Start iteration      DIISMaxIt       ....    12
   Startup error        DIISStart       ....  0.200000
   # of expansion vecs  DIISMaxEq       ....     5
   Bias factor          DIISBfac        ....   1.050
   Max. coefficient     DIISMaxC        ....  10.000
 Trust-Rad. Augm. Hess. CNVTRAH         .... auto
   Auto Start mean grad. ratio tolernc. ....  1.125000
   Auto Start start iteration           ....    20
   Auto Start num. interpolation iter.  ....    10
   Max. Number of Micro iterations      ....    16
   Max. Number of Macro iterations      .... Maxiter - #DIIS iter
   Number of Davidson start vectors     ....     2
   Converg. threshold I  (grad. norm)   ....   1.000e-05
   Converg. threshold II (energy diff.) ....   1.000e-08
   Grad. Scal. Fac. for Micro threshold ....   0.100
   Minimum threshold for Micro iter.    ....   0.010
   NR start threshold (gradient norm)   ....   0.001
   Initial trust radius                 ....   0.400
   Minimum AH scaling param. (alpha)    ....   1.000
   Maximum AH scaling param. (alpha)    .... 1000.000
   Orbital update algorithm             .... Taylor
   White noise on init. David. guess    .... on
   Maximum white noise                  ....   0.010
   Quad. conv. algorithm                .... NR
 SOSCF                  CNVSOSCF        .... on
   Start iteration      SOSCFMaxIt      ....   150
   Startup grad/error   SOSCFStart      ....  0.003300
 Level Shifting         CNVShift        .... on
   Level shift para.    LevelShift      ....    0.2500
   Turn off err/grad.   ShiftErr        ....    0.0010
 Zerner damping         CNVZerner       .... off
 Static damping         CNVDamp         .... on
   Fraction old density DampFac         ....    0.7000
   Max. Damping (<1)    DampMax         ....    0.9800
   Min. Damping (>=0)   DampMin         ....    0.0000
   Turn off err/grad.   DampErr         ....    0.1000
 Fernandez-Rico         CNVRico         .... off

SCF Procedure:
 Maximum # iterations   MaxIter         ....   125
 SCF integral mode      SCFMode         .... Direct
   Integral package                     .... SHARK and LIBINT hybrid scheme
 Reset frequency        DirectResetFreq ....    20
 Integral Threshold     Thresh          ....  2.500e-11 Eh
 Primitive CutOff       TCut            ....  2.500e-12 Eh

Convergence Tolerance:
 Convergence Check Mode ConvCheckMode   .... Total+1el-Energy
 Convergence forced     ConvForced      .... 0
 Energy Change          TolE            ....  1.000e-08 Eh
 1-El. energy change                    ....  1.000e-05 Eh
 Orbital Gradient       TolG            ....  1.000e-05
 Orbital Rotation angle TolX            ....  1.000e-05
 DIIS Error             TolErr          ....  5.000e-07


Diagonalization of the overlap matrix:
Smallest eigenvalue                        ... 1.433e-03
Time for diagonalization                   ...    0.009 sec
Threshold for overlap eigenvalues          ... 1.000e-08
Number of eigenvalues below threshold      ... 0
Time for construction of square roots      ...    0.011 sec
Total time needed                          ...    0.022 sec

Time for model grid setup =    0.281 sec

------------------------------
INITIAL GUESS: MODEL POTENTIAL
------------------------------
Loading Hartree-Fock densities                     ... done
Calculating cut-offs                               ... done
Initializing the effective Hamiltonian             ... done
Setting up the integral package (SHARK)            ... done
Starting the Coulomb interaction                   ... done (   0.2 sec)
Reading the grid                                   ... done
Mapping shells                                     ... done
Starting the XC term evaluation                    ... done (   0.1 sec)
  promolecular density results
     # of electrons  =    127.991763080
     EX              =   -112.273997630
     EC              =     -4.497422732
     EX+EC           =   -116.771420361
Transforming the Hamiltonian                       ... done (   0.0 sec)
Diagonalizing the Hamiltonian                      ... done (   0.0 sec)
Back transforming the eigenvectors                 ... done (   0.0 sec)
Now organizing SCF variables                       ... done
                      ------------------
                      INITIAL GUESS DONE (   0.6 sec)
                      ------------------
-------------------
DFT GRID GENERATION
-------------------

General Integration Accuracy     IntAcc      ... 4.388
Radial Grid Type                 RadialGrid  ... OptM3 with GC (2021)
Angular Grid (max. ang.)         AngularGrid ... 4 (Lebedev-302)
Angular grid pruning method      GridPruning ... 4 (adaptive)
Weight generation scheme         WeightScheme... Becke
Basis function cutoff            BFCut       ... 1.0000e-11
Integration weight cutoff        WCut        ... 1.0000e-14
Angular grids for H and He will be reduced by one unit
Partially contracted basis set               ... off
Rotationally invariant grid construction     ... off

Total number of grid points                  ...   140089
Total number of batches                      ...     2203
Average number of points per batch           ...       63
Average number of grid points per atom       ...     4831
Time for grid setup =    0.987 sec

--------------------
COSX GRID GENERATION
--------------------

GRIDX 1
-------
General Integration Accuracy     IntAcc      ... 3.816
Radial Grid Type                 RadialGrid  ... OptM3 with GC (2021)
Angular Grid (max. ang.)         AngularGrid ... 1 (Lebedev-50)
Angular grid pruning method      GridPruning ... 4 (adaptive)
Weight generation scheme         WeightScheme... Becke
Basis function cutoff            BFCut       ... 1.0000e-11
Integration weight cutoff        WCut        ... 1.0000e-14
Angular grids for H and He will be reduced by one unit
Partially contracted basis set               ... on
Rotationally invariant grid construction     ... off

Total number of grid points                  ...    17818
Total number of batches                      ...      295
Average number of points per batch           ...       60
Average number of grid points per atom       ...      614
UseSFitting                                  ... on

GRIDX 2
-------
General Integration Accuracy     IntAcc      ... 4.020
Radial Grid Type                 RadialGrid  ... OptM3 with GC (2021)
Angular Grid (max. ang.)         AngularGrid ... 2 (Lebedev-110)
Angular grid pruning method      GridPruning ... 4 (adaptive)
Weight generation scheme         WeightScheme... Becke
Basis function cutoff            BFCut       ... 1.0000e-11
Integration weight cutoff        WCut        ... 1.0000e-14
Angular grids for H and He will be reduced by one unit
Partially contracted basis set               ... on
Rotationally invariant grid construction     ... off

Total number of grid points                  ...    38969
Total number of batches                      ...      624
Average number of points per batch           ...       62
Average number of grid points per atom       ...     1344
UseSFitting                                  ... on

GRIDX 3
-------
General Integration Accuracy     IntAcc      ... 4.338
Radial Grid Type                 RadialGrid  ... OptM3 with GC (2021)
Angular Grid (max. ang.)         AngularGrid ... 3 (Lebedev-194)
Angular grid pruning method      GridPruning ... 4 (adaptive)
Weight generation scheme         WeightScheme... Becke
Basis function cutoff            BFCut       ... 1.0000e-11
Integration weight cutoff        WCut        ... 1.0000e-14
Angular grids for H and He will be reduced by one unit
Partially contracted basis set               ... on
Rotationally invariant grid construction     ... off

Total number of grid points                  ...    85367
Total number of batches                      ...     1350
Average number of points per batch           ...       63
Average number of grid points per atom       ...     2944
UseSFitting                                  ... on

Time for X-Grid setup             =    1.032 sec


--------------------
CPCM SOLVATION MODEL
--------------------
CPCM parameters:
  Epsilon                                         ...      80.4000
  Refrac                                          ...       1.3300
  Rsolv                                           ...       1.3000
  Surface type                                    ... GAUSSIAN VDW
  Epsilon function type                           ...         CPCM
Radii:
 Radius for C  used is    3.8550 Bohr (=   2.0400 Ang.)
 Radius for N  used is    3.5149 Bohr (=   1.8600 Ang.)
 Radius for O  used is    3.4469 Bohr (=   1.8240 Ang.)
 Radius for H  used is    2.4944 Bohr (=   1.3200 Ang.)
Calculating surface                               ...        done! (  0.0s)
GEPOL surface points                              ...         1509
GEPOL Volume                                      ...    1719.3197
GEPOL Surface-area                                ...     891.8313
Calculating surface distance matrix               ...        done! (  0.0s)
Performing Cholesky decomposition & store         ...        done! (  0.2s)
Overall time for CPCM initialization              ...                 0.2s
--------------
SCF ITERATIONS
--------------
ITER       Energy         Delta-E        Max-DP      RMS-DP      [F,P]     Damp
               ***  Starting incremental Fock matrix formation  ***
  0   -910.5404607438   0.000000000000 0.10436441  0.00227063  0.2818388 0.7000
  1   -910.7700759209  -0.229615177137 0.06104154  0.00140782  0.1124631 0.7000
                               ***Turning on DIIS***
  2   -910.8511578580  -0.081081937072 0.07107052  0.00192166  0.0419147 0.0000
  3   -910.9964089578  -0.145251099759 0.04132738  0.00098017  0.0541184 0.0000
  4   -911.0191851787  -0.022776220949 0.01129053  0.00026298  0.0142070 0.0000
  5   -911.0209683625  -0.001783183770 0.00289716  0.00007394  0.0035121 0.0000
                      *** Initiating the SOSCF procedure ***
                           *** Shutting down DIIS ***
                      *** Re-Reading the Fockian *** 
                      *** Removing any level shift *** 
ITER      Energy       Delta-E        Grad      Rot      Max-DP    RMS-DP
  6   -911.02103648  -0.0000681165  0.000204  0.000204  0.000895  0.000025
               *** Restarting incremental Fock matrix formation ***
  7   -911.02088999   0.0001464861  0.000125  0.000447  0.000567  0.000017
  8   -911.02088968   0.0000003083  0.000136  0.000104  0.000332  0.000009
  9   -911.02089158  -0.0000018968  0.000012  0.000053  0.000092  0.000002
 10   -911.02089157   0.0000000144  0.000022  0.000041  0.000063  0.000001
 11   -911.02089160  -0.0000000344  0.000006  0.000014  0.000031  0.000001
 12   -911.02089160   0.0000000045  0.000010  0.000009  0.000016  0.000000
                  ***Gradient check signals convergence***
              ***Rediagonalizing the Fockian in SOSCF/NRSCF***

               *****************************************************
               *                     SUCCESS                       *
               *           SCF CONVERGED AFTER  13 CYCLES          *
               *****************************************************

Old exchange energy                            =    -22.752462950 Eh
New exchange energy                            =    -22.752497945 Eh
Exchange energy change after final integration =     -0.000034995 Eh
Total energy after final integration           =   -911.020926595 Eh
Final COS-X integration done in                =     8.539 sec

----------------
TOTAL SCF ENERGY
----------------

Total Energy       :         -911.02092659 Eh          -24790.13972 eV

Components:
Nuclear Repulsion  :         1332.02829123 Eh           36246.33253 eV
Electronic Energy  :        -2243.04921783 Eh          -61036.47225 eV
One Electron Energy:        -3891.65007106 Eh         -105897.18214 eV
Two Electron Energy:         1648.60085323 Eh           44860.70989 eV
Max COSX asymmetry :            0.00000333 Eh               0.00009 eV
CPCM Dielectric    :           -0.03230760 Eh              -0.87913 eV

Virial components:
Potential Energy   :        -1816.46902610 Eh          -49428.63510 eV
Kinetic Energy     :          905.44809951 Eh           24638.49538 eV
Virial Ratio       :            2.00615477


DFT components:
N(Alpha)           :       64.000007392764 electrons
N(Beta)            :       64.000007392764 electrons
N(Total)           :      128.000014785529 electrons
E(X)               :      -90.478191911640 Eh       
E(C)               :       -5.755683358168 Eh       
E(XC)              :      -96.233875269808 Eh       
DFET-embed. en.    :        0.000000000000 Eh       
CPCM Solvation Model Properties:
Surface-charge          :           -0.01311893
Charge-correction       :            0.00004742 Eh               0.00129 eV
Free-energy (cav+disp)  :  This term is not implemented in the current solvation scheme

---------------
SCF CONVERGENCE
---------------

  Last Energy change         ...   -2.8932e-09  Tolerance :   1.0000e-08
  Last MAX-Density change    ...    3.5527e-15  Tolerance :   1.0000e-07
  Last RMS-Density change    ...    4.9457e-17  Tolerance :   5.0000e-09
  Last Orbital Gradient      ...    1.4010e-06  Tolerance :   1.0000e-05
  Last Orbital Rotation      ...    6.0702e-06  Tolerance :   1.0000e-05

             **** THE GBW FILE WAS UPDATED (orca_test_100_uridine_opt_freq.gbw) ****
             **** DENSITY orca_test_100_uridine_opt_freq.scfp WAS UPDATED ****
             **** ENERGY FILE WAS UPDATED (orca_test_100_uridine_opt_freq.en.tmp) ****
             **** THE GBW FILE WAS UPDATED (orca_test_100_uridine_opt_freq.gbw) ****
             **** DENSITY orca_test_100_uridine_opt_freq.scfp WAS UPDATED ****
----------------
ORBITAL ENERGIES
----------------

  NO   OCC          E(Eh)            E(eV) 
   0   2.0000     -19.162305      -521.4328 
   1   2.0000     -19.156011      -521.2615 
   2   2.0000     -19.142328      -520.8892 
   3   2.0000     -19.139924      -520.8238 
   4   2.0000     -19.126511      -520.4588 
   5   2.0000     -19.123237      -520.3697 
   6   2.0000     -14.409189      -392.0940 
   7   2.0000     -14.390207      -391.5774 
   8   2.0000     -10.348163      -281.5878 
   9   2.0000     -10.302791      -280.3532 
  10   2.0000     -10.288294      -279.9587 
  11   2.0000     -10.252252      -278.9780 
  12   2.0000     -10.240788      -278.6660 
  13   2.0000     -10.233228      -278.4603 
  14   2.0000     -10.231163      -278.4041 
  15   2.0000     -10.220790      -278.1218 
  16   2.0000     -10.192158      -277.3427 
  17   2.0000      -1.092300       -29.7230 
  18   2.0000      -1.061912       -28.8961 
  19   2.0000      -1.045458       -28.4484 
  20   2.0000      -1.035017       -28.1643 
  21   2.0000      -1.009300       -27.4644 
  22   2.0000      -1.002970       -27.2922 
  23   2.0000      -0.985277       -26.8107 
  24   2.0000      -0.943134       -25.6640 
  25   2.0000      -0.804377       -21.8882 
  26   2.0000      -0.775015       -21.0892 
  27   2.0000      -0.760522       -20.6949 
  28   2.0000      -0.703195       -19.1349 
  29   2.0000      -0.680379       -18.5140 
  30   2.0000      -0.657621       -17.8948 
  31   2.0000      -0.610674       -16.6173 
  32   2.0000      -0.598141       -16.2762 
  33   2.0000      -0.584601       -15.9078 
  34   2.0000      -0.556438       -15.1414 
  35   2.0000      -0.536804       -14.6072 
  36   2.0000      -0.525183       -14.2910 
  37   2.0000      -0.512771       -13.9532 
  38   2.0000      -0.496935       -13.5223 
  39   2.0000      -0.490241       -13.3401 
  40   2.0000      -0.476449       -12.9648 
  41   2.0000      -0.467628       -12.7248 
  42   2.0000      -0.464733       -12.6460 
  43   2.0000      -0.455500       -12.3948 
  44   2.0000      -0.440691       -11.9918 
  45   2.0000      -0.433674       -11.8009 
  46   2.0000      -0.418969       -11.4007 
  47   2.0000      -0.414207       -11.2711 
  48   2.0000      -0.409969       -11.1558 
  49   2.0000      -0.402869       -10.9626 
  50   2.0000      -0.386560       -10.5188 
  51   2.0000      -0.378575       -10.3016 
  52   2.0000      -0.366956        -9.9854 
  53   2.0000      -0.360004        -9.7962 
  54   2.0000      -0.336273        -9.1504 
  55   2.0000      -0.319896        -8.7048 
  56   2.0000      -0.308937        -8.4066 
  57   2.0000      -0.297569        -8.0973 
  58   2.0000      -0.289817        -7.8863 
  59   2.0000      -0.278292        -7.5727 
  60   2.0000      -0.270217        -7.3530 
  61   2.0000      -0.262944        -7.1551 
  62   2.0000      -0.256510        -6.9800 
  63   2.0000      -0.246583        -6.7099 
  64   0.0000      -0.033777        -0.9191 
  65   0.0000      -0.005223        -0.1421 
  66   0.0000       0.054955         1.4954 
  67   0.0000       0.088758         2.4152 
  68   0.0000       0.091711         2.4956 
  69   0.0000       0.106427         2.8960 
  70   0.0000       0.115627         3.1464 
  71   0.0000       0.122361         3.3296 
  72   0.0000       0.128095         3.4857 
  73   0.0000       0.134950         3.6722 
  74   0.0000       0.142770         3.8850 
  75   0.0000       0.149692         4.0733 
  76   0.0000       0.164071         4.4646 
  77   0.0000       0.168551         4.5865 
  78   0.0000       0.180200         4.9035 
  79   0.0000       0.191685         5.2160 
  80   0.0000       0.199224         5.4212 
  81   0.0000       0.204998         5.5783 
  82   0.0000       0.210434         5.7262 
  83   0.0000       0.213130         5.7996 
  84   0.0000       0.236966         6.4482 
  85   0.0000       0.242571         6.6007 
  86   0.0000       0.257134         6.9970 
  87   0.0000       0.260933         7.1003 
  88   0.0000       0.275694         7.5020 
  89   0.0000       0.280905         7.6438 
  90   0.0000       0.299450         8.1485 
  91   0.0000       0.312787         8.5114 
  92   0.0000       0.338350         9.2070 
  93   0.0000       0.353997         9.6327 
  94   0.0000       0.370226        10.0744 
  95   0.0000       0.391664        10.6577 
  96   0.0000       0.475933        12.9508 
  97   0.0000       0.480121        13.0648 
  98   0.0000       0.495059        13.4712 
  99   0.0000       0.518211        14.1012 
 100   0.0000       0.532926        14.5016 
 101   0.0000       0.543529        14.7902 
 102   0.0000       0.544850        14.8261 
 103   0.0000       0.559951        15.2370 
 104   0.0000       0.569493        15.4967 
 105   0.0000       0.577975        15.7275 
 106   0.0000       0.582897        15.8614 
 107   0.0000       0.588637        16.0176 
 108   0.0000       0.592602        16.1255 
 109   0.0000       0.608203        16.5500 
 110   0.0000       0.618225        16.8227 
 111   0.0000       0.624899        17.0044 
 112   0.0000       0.631378        17.1807 
 113   0.0000       0.651512        17.7286 
 114   0.0000       0.678694        18.4682 
 115   0.0000       0.686411        18.6782 
 116   0.0000       0.690026        18.7766 
 117   0.0000       0.707149        19.2425 
 118   0.0000       0.717676        19.5289 
 119   0.0000       0.753459        20.5027 
 120   0.0000       0.767950        20.8970 
 121   0.0000       0.776226        21.1222 
 122   0.0000       0.776815        21.1382 
 123   0.0000       0.787111        21.4184 
 124   0.0000       0.801402        21.8072 
 125   0.0000       0.808052        21.9882 
 126   0.0000       0.825275        22.4569 
 127   0.0000       0.832930        22.6652 
 128   0.0000       0.852750        23.2045 
 129   0.0000       0.854567        23.2540 
 130   0.0000       0.863709        23.5027 
 131   0.0000       0.867339        23.6015 
 132   0.0000       0.881877        23.9971 
 133   0.0000       0.890527        24.2325 
 134   0.0000       0.901417        24.5288 
 135   0.0000       0.909625        24.7522 
 136   0.0000       0.919190        25.0124 
 137   0.0000       0.925254        25.1774 
 138   0.0000       0.927550        25.2399 
 139   0.0000       0.950869        25.8745 
 140   0.0000       0.971130        26.4258 
 141   0.0000       0.983405        26.7598 
 142   0.0000       0.991740        26.9866 
 143   0.0000       1.006084        27.3769 
 144   0.0000       1.018576        27.7169 
 145   0.0000       1.029891        28.0248 
 146   0.0000       1.039256        28.2796 
 147   0.0000       1.074088        29.2274 
 148   0.0000       1.087596        29.5950 
 149   0.0000       1.089756        29.6538 
 150   0.0000       1.090493        29.6738 
 151   0.0000       1.103642        30.0316 
 152   0.0000       1.106378        30.1061 
 153   0.0000       1.124429        30.5973 
 154   0.0000       1.139163        30.9982 
 155   0.0000       1.156292        31.4643 
 156   0.0000       1.182713        32.1832 
 157   0.0000       1.199736        32.6465 
 158   0.0000       1.225331        33.3429 
 159   0.0000       1.229654        33.4606 
 160   0.0000       1.250843        34.0372 
 161   0.0000       1.269793        34.5528 
 162   0.0000       1.293566        35.1997 
 163   0.0000       1.306034        35.5390 
 164   0.0000       1.336181        36.3593 
 165   0.0000       1.367666        37.2161 
 166   0.0000       1.376790        37.4644 
 167   0.0000       1.383399        37.6442 
 168   0.0000       1.410234        38.3744 
 169   0.0000       1.426709        38.8227 
 170   0.0000       1.433896        39.0183 
 171   0.0000       1.437839        39.1256 
 172   0.0000       1.466226        39.8980 
 173   0.0000       1.467938        39.9446 
 174   0.0000       1.506009        40.9806 
 175   0.0000       1.529801        41.6280 
 176   0.0000       1.560590        42.4658 
 177   0.0000       1.585879        43.1540 
 178   0.0000       1.588614        43.2284 
 179   0.0000       1.619474        44.0681 
 180   0.0000       1.644068        44.7374 
 181   0.0000       1.661404        45.2091 
 182   0.0000       1.682351        45.7791 
 183   0.0000       1.698442        46.2170 
 184   0.0000       1.714399        46.6512 
 185   0.0000       1.730160        47.0801 
 186   0.0000       1.743153        47.4336 
 187   0.0000       1.755528        47.7704 
 188   0.0000       1.764745        48.0211 
 189   0.0000       1.774122        48.2763 
 190   0.0000       1.790841        48.7312 
 191   0.0000       1.801347        49.0171 
 192   0.0000       1.825401        49.6717 
 193   0.0000       1.830100        49.7996 
 194   0.0000       1.833577        49.8942 
 195   0.0000       1.845470        50.2178 
 196   0.0000       1.860159        50.6175 
 197   0.0000       1.881407        51.1957 
 198   0.0000       1.892945        51.5097 
 199   0.0000       1.902572        51.7716 
 200   0.0000       1.906990        51.8918 
 201   0.0000       1.929821        52.5131 
 202   0.0000       1.940943        52.8158 
 203   0.0000       1.952143        53.1205 
 204   0.0000       1.969633        53.5964 
 205   0.0000       1.980519        53.8927 
 206   0.0000       1.986018        54.0423 
 207   0.0000       2.011110        54.7251 
 208   0.0000       2.026404        55.1412 
 209   0.0000       2.044298        55.6282 
 210   0.0000       2.058752        56.0215 
 211   0.0000       2.079976        56.5990 
 212   0.0000       2.102837        57.2211 
 213   0.0000       2.109555        57.4039 
 214   0.0000       2.127275        57.8861 
 215   0.0000       2.136900        58.1480 
 216   0.0000       2.158757        58.7428 
 217   0.0000       2.170150        59.0528 
 218   0.0000       2.183972        59.4289 
 219   0.0000       2.200298        59.8732 
 220   0.0000       2.211565        60.1797 
 221   0.0000       2.242586        61.0239 
 222   0.0000       2.258523        61.4575 
 223   0.0000       2.290414        62.3253 
 224   0.0000       2.306772        62.7705 
 225   0.0000       2.322824        63.2072 
 226   0.0000       2.327427        63.3325 
 227   0.0000       2.348685        63.9110 
 228   0.0000       2.351260        63.9810 
 229   0.0000       2.384919        64.8970 
 230   0.0000       2.405640        65.4608 
 231   0.0000       2.421138        65.8825 
 232   0.0000       2.488784        67.7233 
 233   0.0000       2.494235        67.8716 
 234   0.0000       2.517585        68.5070 
 235   0.0000       2.532673        68.9175 
 236   0.0000       2.536973        69.0345 
 237   0.0000       2.547581        69.3232 
 238   0.0000       2.572791        70.0092 
 239   0.0000       2.593804        70.5810 
 240   0.0000       2.615606        71.1743 
 241   0.0000       2.632886        71.6445 
 242   0.0000       2.658249        72.3346 
 243   0.0000       2.664354        72.5008 
 244   0.0000       2.678007        72.8723 
 245   0.0000       2.708977        73.7150 
 246   0.0000       2.719729        74.0076 
 247   0.0000       2.767102        75.2967 
 248   0.0000       2.777309        75.5744 
 249   0.0000       2.794113        76.0317 
 250   0.0000       2.816199        76.6327 
 251   0.0000       2.832730        77.0825 
 252   0.0000       2.870822        78.1190 
 253   0.0000       2.891268        78.6754 
 254   0.0000       2.964238        80.6610 
 255   0.0000       2.981303        81.1254 
 256   0.0000       3.016140        82.0733 
 257   0.0000       3.028980        82.4227 
 258   0.0000       3.052026        83.0498 
 259   0.0000       3.082576        83.8812 
 260   0.0000       3.252414        88.5027 
 261   0.0000       3.441947        93.6601 

                    ********************************
                    * MULLIKEN POPULATION ANALYSIS *
                    ********************************

-----------------------
MULLIKEN ATOMIC CHARGES
-----------------------
   0 C :   -0.272473
   1 C :    0.094945
   2 N :   -0.466821
   3 C :    0.733866
   4 O :   -0.510851
   5 N :   -0.630581
   6 C :    0.563033
   7 O :   -0.520669
   8 C :    0.247667
   9 C :    0.087369
  10 C :    0.116655
  11 C :    0.092686
  12 O :   -0.528640
  13 C :   -0.040840
  14 O :   -0.700117
  15 O :   -0.691728
  16 O :   -0.702201
  17 H :    0.187634
  18 H :    0.229807
  19 H :    0.389988
  20 H :    0.199273
  21 H :    0.167711
  22 H :    0.169639
  23 H :    0.151164
  24 H :    0.160568
  25 H :    0.144202
  26 H :    0.437852
  27 H :    0.451544
  28 H :    0.439314
Sum of atomic charges:   -0.0000000

--------------------------------
MULLIKEN REDUCED ORBITAL CHARGES
--------------------------------
  0 C s       :     3.241753  s :     3.241753
      pz      :     0.927331  p :     2.998624
      px      :     1.006555
      py      :     1.064739
      dz2     :     0.008141  d :     0.032096
      dxz     :     0.008966
      dyz     :     0.003781
      dx2y2   :     0.006466
      dxy     :     0.004743
  1 C s       :     3.091053  s :     3.091053
      pz      :     0.998770  p :     2.760343
      px      :     0.827585
      py      :     0.933988
      dz2     :     0.012119  d :     0.053658
      dxz     :     0.013768
      dyz     :     0.004479
      dx2y2   :     0.009233
      dxy     :     0.014059
  2 N s       :     3.579564  s :     3.579564
      pz      :     1.159829  p :     3.850456
      px      :     1.157305
      py      :     1.533323
      dz2     :     0.008563  d :     0.036800
      dxz     :     0.009836
      dyz     :     0.005595
      dx2y2   :     0.006450
      dxy     :     0.006357
  3 C s       :     2.826203  s :     2.826203
      pz      :     0.777546  p :     2.309949
      px      :     0.719451
      py      :     0.812952
      dz2     :     0.029584  d :     0.129982
      dxz     :     0.037666
      dyz     :     0.016215
      dx2y2   :     0.021133
      dxy     :     0.025383
  4 O s       :     3.863386  s :     3.863386
      pz      :     1.678434  p :     4.622245
      px      :     1.412129
      py      :     1.531682
      dz2     :     0.003495  d :     0.025219
      dxz     :     0.006792
      dyz     :     0.001839
      dx2y2   :     0.005604
      dxy     :     0.007489
  5 N s       :     3.629738  s :     3.629738
      pz      :     1.274798  p :     3.970848
      px      :     1.128462
      py      :     1.567588
      dz2     :     0.007902  d :     0.029995
      dxz     :     0.007602
      dyz     :     0.003410
      dx2y2   :     0.005596
      dxy     :     0.005485
  6 C s       :     2.933336  s :     2.933336
      pz      :     0.872665  p :     2.391227
      px      :     0.704785
      py      :     0.813777
      dz2     :     0.029084  d :     0.112404
      dxz     :     0.027031
      dyz     :     0.011314
      dx2y2   :     0.021933
      dxy     :     0.023041
  7 O s       :     3.841320  s :     3.841320
      pz      :     1.644862  p :     4.653116
      px      :     1.511542
      py      :     1.496711
      dz2     :     0.004524  d :     0.026233
      dxz     :     0.007511
      dyz     :     0.002945
      dx2y2   :     0.004873
      dxy     :     0.006380
  8 C s       :     3.118939  s :     3.118939
      pz      :     0.900076  p :     2.553060
      px      :     0.742720
      py      :     0.910264
      dz2     :     0.011400  d :     0.080334
      dxz     :     0.021673
      dyz     :     0.013925
      dx2y2   :     0.013454
      dxy     :     0.019882
  9 C s       :     3.175446  s :     3.175446
      pz      :     0.708438  p :     2.671391
      px      :     0.973594
      py      :     0.989359
      dz2     :     0.020056  d :     0.065794
      dxz     :     0.014040
      dyz     :     0.013066
      dx2y2   :     0.006516
      dxy     :     0.012116
 10 C s       :     3.135701  s :     3.135701
      pz      :     0.953337  p :     2.680520
      px      :     0.814294
      py      :     0.912890
      dz2     :     0.011412  d :     0.067124
      dxz     :     0.014205
      dyz     :     0.012921
      dx2y2   :     0.017244
      dxy     :     0.011341
 11 C s       :     3.168230  s :     3.168230
      pz      :     1.019946  p :     2.672519
      px      :     0.736750
      py      :     0.915823
      dz2     :     0.011104  d :     0.066565
      dxz     :     0.016768
      dyz     :     0.008470
      dx2y2   :     0.015908
      dxy     :     0.014315
 12 O s       :     3.896629  s :     3.896629
      pz      :     1.739619  p :     4.604210
      px      :     1.216891
      py      :     1.647700
      dz2     :     0.003412  d :     0.027801
      dxz     :     0.005829
      dyz     :     0.004963
      dx2y2   :     0.004634
      dxy     :     0.008962
 13 C s       :     3.197283  s :     3.197283
      pz      :     0.776980  p :     2.779225
      px      :     1.017404
      py      :     0.984842
      dz2     :     0.018925  d :     0.064332
      dxz     :     0.012071
      dyz     :     0.013110
      dx2y2   :     0.015995
      dxy     :     0.004231
 14 O s       :     3.875159  s :     3.875159
      pz      :     1.551606  p :     4.799762
      px      :     1.446889
      py      :     1.801267
      dz2     :     0.007476  d :     0.025197
      dxz     :     0.002176
      dyz     :     0.005112
      dx2y2   :     0.008982
      dxy     :     0.001451
 15 O s       :     3.886736  s :     3.886736
      pz      :     1.602495  p :     4.779288
      px      :     1.353960
      py      :     1.822833
      dz2     :     0.003485  d :     0.025704
      dxz     :     0.012494
      dyz     :     0.003860
      dx2y2   :     0.003747
      dxy     :     0.002118
 16 O s       :     3.892387  s :     3.892387
      pz      :     1.388631  p :     4.784067
      px      :     1.579393
      py      :     1.816043
      dz2     :     0.010568  d :     0.025747
      dxz     :     0.002775
      dyz     :     0.003214
      dx2y2   :     0.002539
      dxy     :     0.006651
 17 H s       :     0.812366  s :     0.812366
 18 H s       :     0.770193  s :     0.770193
 19 H s       :     0.610012  s :     0.610012
 20 H s       :     0.800727  s :     0.800727
 21 H s       :     0.832289  s :     0.832289
 22 H s       :     0.830361  s :     0.830361
 23 H s       :     0.848836  s :     0.848836
 24 H s       :     0.839432  s :     0.839432
 25 H s       :     0.855798  s :     0.855798
 26 H s       :     0.562148  s :     0.562148
 27 H s       :     0.548456  s :     0.548456
 28 H s       :     0.560686  s :     0.560686


                     *******************************
                     * LOEWDIN POPULATION ANALYSIS *
                     *******************************

----------------------
LOEWDIN ATOMIC CHARGES
----------------------
   0 C :   -0.207212
   1 C :   -0.026808
   2 N :   -0.019865
   3 C :    0.146459
   4 O :   -0.300048
   5 N :   -0.128686
   6 C :    0.103384
   7 O :   -0.307943
   8 C :    0.064016
   9 C :   -0.024336
  10 C :   -0.038703
  11 C :   -0.033183
  12 O :   -0.247479
  13 C :   -0.110112
  14 O :   -0.456362
  15 O :   -0.414997
  16 O :   -0.436430
  17 H :    0.168925
  18 H :    0.175550
  19 H :    0.298927
  20 H :    0.155473
  21 H :    0.132574
  22 H :    0.138325
  23 H :    0.128227
  24 H :    0.133542
  25 H :    0.119494
  26 H :    0.313366
  27 H :    0.347416
  28 H :    0.326488

-------------------------------
LOEWDIN REDUCED ORBITAL CHARGES
-------------------------------
  0 C s       :     2.928867  s :     2.928867
      pz      :     1.036429  p :     3.199349
      px      :     1.095487
      py      :     1.067433
      dz2     :     0.021994  d :     0.078996
      dxz     :     0.024512
      dyz     :     0.009126
      dx2y2   :     0.014587
      dxy     :     0.008777
  1 C s       :     2.903106  s :     2.903106
      pz      :     1.077522  p :     2.998552
      px      :     0.980747
      py      :     0.940282
      dz2     :     0.026554  d :     0.125151
      dxz     :     0.034989
      dyz     :     0.007532
      dx2y2   :     0.024402
      dxy     :     0.031674
  2 N s       :     3.078327  s :     3.078327
      pz      :     1.197364  p :     3.845610
      px      :     1.169078
      py      :     1.479168
      dz2     :     0.024091  d :     0.095927
      dxz     :     0.029820
      dyz     :     0.013122
      dx2y2   :     0.014891
      dxy     :     0.014004
  3 C s       :     2.797555  s :     2.797555
      pz      :     0.932156  p :     2.752889
      px      :     0.971129
      py      :     0.849604
      dz2     :     0.070555  d :     0.303096
      dxz     :     0.091093
      dyz     :     0.035966
      dx2y2   :     0.051597
      dxy     :     0.053885
  4 O s       :     3.548328  s :     3.548328
      pz      :     1.682608  p :     4.699114
      px      :     1.490147
      py      :     1.526359
      dz2     :     0.006696  d :     0.052606
      dxz     :     0.015982
      dyz     :     0.003155
      dx2y2   :     0.014072
      dxy     :     0.012701
  5 N s       :     3.116649  s :     3.116649
      pz      :     1.254157  p :     3.932925
      px      :     1.167272
      py      :     1.511496
      dz2     :     0.018725  d :     0.079112
      dxz     :     0.023958
      dyz     :     0.005929
      dx2y2   :     0.017370
      dxy     :     0.013130
  6 C s       :     2.830302  s :     2.830302
      pz      :     1.002004  p :     2.796983
      px      :     0.958657
      py      :     0.836321
      dz2     :     0.071019  d :     0.269331
      dxz     :     0.066325
      dyz     :     0.023919
      dx2y2   :     0.057585
      dxy     :     0.050483
  7 O s       :     3.553229  s :     3.553229
      pz      :     1.657058  p :     4.701591
      px      :     1.558979
      py      :     1.485554
      dz2     :     0.008417  d :     0.053123
      dxz     :     0.018859
      dyz     :     0.004735
      dx2y2   :     0.011431
      dxy     :     0.009682
  8 C s       :     2.893974  s :     2.893974
      pz      :     0.988214  p :     2.866297
      px      :     0.869529
      py      :     1.008554
      dz2     :     0.022745  d :     0.175713
      dxz     :     0.050144
      dyz     :     0.029483
      dx2y2   :     0.028582
      dxy     :     0.044758
  9 C s       :     2.906923  s :     2.906923
      pz      :     0.853368  p :     2.969088
      px      :     1.053072
      py      :     1.062648
      dz2     :     0.045523  d :     0.148326
      dxz     :     0.032812
      dyz     :     0.027863
      dx2y2   :     0.014939
      dxy     :     0.027190
 10 C s       :     2.897877  s :     2.897877
      pz      :     1.038732  p :     2.987124
      px      :     0.933028
      py      :     1.015364
      dz2     :     0.023941  d :     0.153702
      dxz     :     0.034156
      dyz     :     0.026922
      dx2y2   :     0.044186
      dxy     :     0.024496
 11 C s       :     2.913382  s :     2.913382
      pz      :     1.085166  p :     2.970963
      px      :     0.871132
      py      :     1.014665
      dz2     :     0.024232  d :     0.148838
[...]
      2       0.000410  -0.000053   0.000017
      3       0.000175  -0.000298  -0.000056
      4      -0.000061  -0.000075  -0.000013
      5       0.000209   0.000073   0.000024
      6       0.000136   0.000305   0.000057
      7      -0.000301   0.000373   0.000031
      8       0.000769  -0.000837   0.000010
      9       0.000442  -0.003684  -0.000077
     10      -0.000181  -0.001407  -0.000007
     11       0.000524   0.001513  -0.000016
     12       0.000342   0.001623   0.000058
     13       0.000073   0.000366   0.000014
     14      -0.000122  -0.000943   0.000027
     15       0.007318   0.000786   0.000037
     16       0.029252  -0.001172  -0.000013
     17      -0.067052   0.003297   0.000046
     18      -0.000629  -0.000589  -0.000032
     19      -0.000208  -0.000046   0.000008
     20       0.000282   0.000049  -0.000023
     21      -0.000065   0.000231   0.000019
     22       0.000026  -0.000023   0.000001
     23      -0.000098   0.000111   0.000016
     24      -0.000100   0.000257  -0.000045
     25       0.000028  -0.000178  -0.000142
     26      -0.000042   0.000338  -0.000086
     27       0.000016   0.000081   0.000206
     28      -0.000023   0.000048   0.000125
     29      -0.000017   0.000093   0.000140
     30      -0.000019  -0.000023   0.000896
     31       0.000007  -0.000198  -0.001275
     32      -0.000040   0.000097   0.001571
     33      -0.000016   0.000638   0.000138
     34      -0.000003  -0.000099   0.000029
     35      -0.000009   0.000364   0.000129
     36       0.000033  -0.000149   0.000056
     37      -0.000007   0.000087   0.000111
     38       0.000010  -0.000130  -0.000000
     39      -0.000142  -0.002481   0.000012
     40       0.000053   0.000559  -0.000061
     41      -0.000035  -0.000442  -0.000011
     42      -0.003001  -0.061595   0.000035
     43       0.000481   0.010207   0.000027
     44       0.000169   0.003470   0.000036
     45       0.000012  -0.000022  -0.012425
     46      -0.000011  -0.000045  -0.060162
     47       0.000019   0.000039   0.011789
     48       0.000435  -0.000362   0.002395
     49       0.000113  -0.000077   0.000568
     50       0.000097  -0.000073   0.000370
     51      -0.001020  -0.000120   0.000020
     52      -0.000491  -0.000051  -0.000005
     53       0.000688  -0.000017   0.000017
     54      -0.000047   0.000266  -0.000026
     55       0.000465   0.000460   0.000037
     56      -0.001043  -0.000948  -0.000068
     57      -0.104581   0.004321   0.000053
     58      -0.396546   0.018673   0.000218
     59       0.907760  -0.043620  -0.000495
     60       0.000147   0.000333   0.000263
     61      -0.000172   0.000388   0.000459
     62       0.000329  -0.001078  -0.000006
     63      -0.000032  -0.000748   0.000385
     64       0.000015   0.000782  -0.000564
     65      -0.000101   0.000065  -0.000185
     66      -0.000027   0.001204   0.003091
     67      -0.000310  -0.001173   0.007632
     68       0.000227  -0.002375  -0.005893
     69       0.000085  -0.002112  -0.001372
     70      -0.000089   0.000368   0.001613
     71       0.000374   0.002379  -0.002033
     72       0.001306   0.021392   0.000067
     73       0.000182   0.003489  -0.000098
     74       0.000381   0.006972  -0.000090
     75      -0.000036  -0.000778   0.000066
     76      -0.000894  -0.013719   0.000457
     77       0.000255   0.004906   0.000209
     78       0.047481   0.982880  -0.000955
     79      -0.006875  -0.151006  -0.000117
     80      -0.002906  -0.064318  -0.000406
     81       0.000048   0.000155   0.179826
     82       0.000307   0.001018   0.959338
     83      -0.000068  -0.000243  -0.204151
     84      -0.006921   0.005166  -0.038926
     85      -0.001686   0.001080  -0.009781
     86      -0.001324   0.000613  -0.002706


-----------
IR SPECTRUM
-----------

 Mode   freq       eps      Int      T**2         TX        TY        TZ
       cm**-1   L/(mol*cm) km/mol    a.u.
----------------------------------------------------------------------------
  6:     41.02   0.000119    0.60  0.000907  ( 0.028952 -0.008248 -0.000565)
  7:     60.16   0.002807   14.19  0.014561  ( 0.080682 -0.088182 -0.016608)
  8:     64.69   0.000343    1.74  0.001657  (-0.032894  0.014332 -0.019221)
  9:    106.05   0.001250    6.32  0.003677  (-0.045916 -0.017572 -0.035496)
 10:    122.81   0.002958   14.95  0.007516  (-0.012001 -0.051589 -0.068637)
 11:    153.46   0.000043    0.22  0.000088  ( 0.008109 -0.001269  0.004531)
 12:    176.26   0.001755    8.87  0.003107  (-0.011414  0.051501  0.018019)
 13:    199.84   0.000646    3.27  0.001009  (-0.007100  0.002327  0.030877)
 14:    232.78   0.000787    3.98  0.001056  ( 0.003710 -0.026519  0.018398)
 15:    262.81   0.000266    1.34  0.000315  ( 0.013119  0.006510  0.010050)
 16:    282.44   0.001627    8.22  0.001798  ( 0.019489  0.018982 -0.032526)
 17:    301.35   0.016930   85.56  0.017532  ( 0.065632  0.072060 -0.089618)
 18:    318.09   0.003531   17.84  0.003464  ( 0.033586 -0.044467  0.018936)
 19:    338.84   0.004377   22.12  0.004031  ( 0.035160 -0.036241 -0.038486)
 20:    346.61   0.005535   27.97  0.004983  ( 0.053960 -0.002882 -0.045421)
 21:    399.64   0.007931   40.08  0.006193  (-0.002789 -0.005771  0.078435)
 22:    407.73   0.003006   15.19  0.002301  ( 0.024600  0.040007 -0.009752)
 23:    461.16   0.004561   23.05  0.003086  (-0.048792  0.024282  0.010765)
 24:    507.48   0.056817  287.13  0.034938  ( 0.075449 -0.135831 -0.103903)
 25:    532.18   0.020038  101.26  0.011750  (-0.041997  0.085105  0.052379)
 26:    553.74   0.013356   67.49  0.007527  (-0.082284  0.019108  0.019768)
 27:    558.85   0.003284   16.60  0.001834  (-0.034501 -0.018991 -0.016822)
 28:    584.69   0.012004   60.66  0.006407  ( 0.063301 -0.026845  0.040977)
 29:    605.46   0.002663   13.46  0.001373  ( 0.012665 -0.033094  0.010819)
 30:    648.13   0.002557   12.92  0.001231  ( 0.022660  0.026769  0.001018)
 31:    674.19   0.020365  102.92  0.009426  (-0.012744  0.087649  0.039769)
 32:    716.02   0.007216   36.47  0.003145  ( 0.034165 -0.043605 -0.008733)
 33:    724.66   0.000353    1.78  0.000152  ( 0.000992 -0.009889 -0.007285)
 34:    748.23   0.005976   30.20  0.002492  ( 0.035447 -0.032607 -0.013141)
 35:    764.58   0.014349   72.52  0.005857  ( 0.009473 -0.070269 -0.028795)
 36:    781.14   0.003632   18.36  0.001451  ( 0.037822 -0.000778  0.004476)
 37:    815.31   0.012140   61.35  0.004647  ( 0.010090 -0.061642 -0.027297)
 38:    865.77   0.007446   37.63  0.002684  (-0.045536  0.002994 -0.024524)
 39:    887.28   0.001106    5.59  0.000389  ( 0.010142  0.007464  0.015179)
 40:    898.79   0.024783  125.25  0.008605  (-0.067487 -0.016571 -0.061448)
 41:    960.29   0.008138   41.13  0.002645  ( 0.001486 -0.023319  0.045810)
 42:    979.63   0.000438    2.21  0.000139  (-0.004222  0.010293  0.003950)
 43:    993.98   0.000500    2.53  0.000157  ( 0.005436 -0.003121 -0.010847)
 44:   1036.06   0.017348   87.67  0.005225  ( 0.064749 -0.007940 -0.031140)
 45:   1047.30   0.021307  107.68  0.006349  ( 0.063335  0.043966  0.020112)
 46:   1066.78   0.030183  152.53  0.008829  ( 0.085432 -0.035120  0.017241)
 47:   1103.18   0.030110  152.16  0.008517  ( 0.007519 -0.008297 -0.091608)
 48:   1113.35   0.019400   98.04  0.005438  ( 0.050374  0.019140  0.050336)
 49:   1121.33   0.039961  201.95  0.011121  ( 0.096598 -0.013285  0.040166)
 50:   1137.97   0.017161   86.73  0.004706  (-0.041268  0.050520 -0.021232)
 51:   1157.08   0.001658    8.38  0.000447  (-0.012624  0.013869 -0.009767)
 52:   1200.80   0.006843   34.58  0.001778  (-0.006268 -0.007048  0.041102)
 53:   1225.81   0.012976   65.58  0.003303  ( 0.055022  0.013409 -0.009811)
 54:   1242.65   0.007433   37.56  0.001867  (-0.041490  0.000978 -0.012009)
 55:   1248.57   0.007621   38.51  0.001905  (-0.040961 -0.011448 -0.009792)
 56:   1270.32   0.017630   89.10  0.004331  (-0.041290 -0.003131 -0.051150)
 57:   1303.56   0.029830  150.75  0.007141  (-0.084183 -0.007097 -0.001952)
 58:   1332.87   0.004773   24.12  0.001117  (-0.026631 -0.011746 -0.016439)
 59:   1334.69   0.000614    3.10  0.000144  ( 0.006688 -0.000234  0.009942)
 60:   1356.93   0.002569   12.98  0.000591  ( 0.013220 -0.003785 -0.020043)
 61:   1366.47   0.004620   23.35  0.001055  ( 0.013252  0.005937  0.029056)
 62:   1385.92   0.004623   23.36  0.001041  (-0.015852  0.012771 -0.025030)
 63:   1400.48   0.027567  139.31  0.006143  ( 0.010312 -0.032968  0.070352)
 64:   1404.98   0.002133   10.78  0.000474  (-0.012390 -0.016596  0.006691)
 65:   1423.41   0.008991   45.44  0.001971  ( 0.024435 -0.003576 -0.036894)
 66:   1433.82   0.046320  234.08  0.010081  (-0.018254 -0.012557  0.097930)
 67:   1458.48   0.015497   78.32  0.003316  ( 0.019094 -0.015978  0.051923)
 68:   1465.22   0.000690    3.49  0.000147  ( 0.011758 -0.000925 -0.002809)
 69:   1470.56   0.016237   82.05  0.003446  (-0.043964 -0.020280  0.033188)
 70:   1489.63   0.034901  176.38  0.007312  (-0.078532 -0.023821  0.024016)
 71:   1522.43   0.000254    1.28  0.000052  ( 0.001107  0.001887  0.006879)
 72:   1682.80   0.032073  162.08  0.005948  ( 0.046161 -0.015164  0.059891)
 73:   1738.40   0.385107  1946.18  0.069131  ( 0.260461  0.021777  0.028590)
 74:   1770.73   0.101749  514.20  0.017932  (-0.038947  0.041825 -0.121101)
 75:   3013.39   0.017552   88.70  0.001818  ( 0.011537 -0.040871 -0.003762)
 76:   3042.84   0.016873   85.27  0.001730  (-0.026602  0.021661 -0.023527)
 77:   3072.12   0.010770   54.43  0.001094  (-0.020051  0.022952 -0.012852)
 78:   3094.02   0.012726   64.31  0.001284  (-0.033792 -0.010234 -0.006076)
 79:   3107.78   0.006247   31.57  0.000627  ( 0.010797  0.004999 -0.022038)
 80:   3159.74   0.002687   13.58  0.000265  ( 0.005209 -0.008963  0.012567)
 81:   3249.44   0.000440    2.22  0.000042  (-0.006404 -0.001035  0.000439)
 82:   3269.27   0.000184    0.93  0.000018  ( 0.003198  0.001602 -0.002175)
 83:   3572.86   0.038244  193.27  0.003340  ( 0.056293  0.012828  0.002630)
 84:   3583.41   0.025595  129.35  0.002229  ( 0.002977 -0.019332  0.042969)
 85:   3618.76   0.098324  496.89  0.008479  ( 0.089816 -0.020083 -0.002945)
 86:   3731.28   0.021332  107.80  0.001784  ( 0.017451  0.038298 -0.003580)

* The epsilon (eps) is given for a Dirac delta lineshape.
** The dipole moment derivative (T) already includes vibrational overlap.

The first frequency considered to be a vibration is 6
The total number of vibrations considered is 81


--------------------------
THERMOCHEMISTRY AT 298.15K
--------------------------

Temperature         ... 298.15 K
Pressure            ... 1.00 atm
Total Mass          ... 244.20 AMU

Throughout the following assumptions are being made:
  (1) The electronic state is orbitally nondegenerate
  (2) There are no thermally accessible electronically excited states
  (3) Hindered rotations indicated by low frequency modes are not
      treated as such but are treated as vibrations and this may
      cause some error
  (4) All equations used are the standard statistical mechanics
      equations for an ideal gas
  (5) All vibrations are strictly harmonic

freq.      41.02  E(vib)   ...       0.54 
freq.      60.16  E(vib)   ...       0.51 
freq.      64.69  E(vib)   ...       0.50 
freq.     106.05  E(vib)   ...       0.45 
freq.     122.81  E(vib)   ...       0.43 
freq.     153.46  E(vib)   ...       0.40 
freq.     176.26  E(vib)   ...       0.38 
freq.     199.84  E(vib)   ...       0.35 
freq.     232.78  E(vib)   ...       0.32 
freq.     262.81  E(vib)   ...       0.29 
freq.     282.44  E(vib)   ...       0.28 
freq.     301.35  E(vib)   ...       0.26 
freq.     318.09  E(vib)   ...       0.25 
freq.     338.84  E(vib)   ...       0.23 
freq.     346.61  E(vib)   ...       0.23 
freq.     399.64  E(vib)   ...       0.19 
freq.     407.73  E(vib)   ...       0.19 
freq.     461.16  E(vib)   ...       0.16 
freq.     507.48  E(vib)   ...       0.14 
freq.     532.18  E(vib)   ...       0.13 
freq.     553.74  E(vib)   ...       0.12 
freq.     558.85  E(vib)   ...       0.12 
freq.     584.69  E(vib)   ...       0.11 
freq.     605.46  E(vib)   ...       0.10 
freq.     648.13  E(vib)   ...       0.08 
freq.     674.19  E(vib)   ...       0.08 
freq.     716.02  E(vib)   ...       0.07 
freq.     724.66  E(vib)   ...       0.06 
freq.     748.23  E(vib)   ...       0.06 
freq.     764.58  E(vib)   ...       0.06 
freq.     781.14  E(vib)   ...       0.05 
freq.     815.31  E(vib)   ...       0.05 
freq.     865.77  E(vib)   ...       0.04 
freq.     887.28  E(vib)   ...       0.04 
freq.     898.79  E(vib)   ...       0.03 
freq.     960.29  E(vib)   ...       0.03 
freq.     979.63  E(vib)   ...       0.03 
freq.     993.98  E(vib)   ...       0.02 
freq.    1036.06  E(vib)   ...       0.02 
freq.    1047.30  E(vib)   ...       0.02 
freq.    1066.78  E(vib)   ...       0.02 
freq.    1103.18  E(vib)   ...       0.02 
freq.    1113.35  E(vib)   ...       0.01 
freq.    1121.33  E(vib)   ...       0.01 
freq.    1137.97  E(vib)   ...       0.01 
freq.    1157.08  E(vib)   ...       0.01 
freq.    1200.80  E(vib)   ...       0.01 
freq.    1225.81  E(vib)   ...       0.01 
freq.    1242.65  E(vib)   ...       0.01 
freq.    1248.57  E(vib)   ...       0.01 
freq.    1270.32  E(vib)   ...       0.01 
freq.    1303.56  E(vib)   ...       0.01 
freq.    1332.87  E(vib)   ...       0.01 
freq.    1334.69  E(vib)   ...       0.01 
freq.    1356.93  E(vib)   ...       0.01 
freq.    1366.47  E(vib)   ...       0.01 
freq.    1385.92  E(vib)   ...       0.00 
freq.    1400.48  E(vib)   ...       0.00 
freq.    1404.98  E(vib)   ...       0.00 
freq.    1423.41  E(vib)   ...       0.00 
freq.    1433.82  E(vib)   ...       0.00 
freq.    1458.48  E(vib)   ...       0.00 
freq.    1465.22  E(vib)   ...       0.00 
freq.    1470.56  E(vib)   ...       0.00 
freq.    1489.63  E(vib)   ...       0.00 
freq.    1522.43  E(vib)   ...       0.00 
freq.    1682.80  E(vib)   ...       0.00 
freq.    1738.40  E(vib)   ...       0.00 
freq.    1770.73  E(vib)   ...       0.00 
freq.    3013.39  E(vib)   ...       0.00 
freq.    3042.84  E(vib)   ...       0.00 
freq.    3072.12  E(vib)   ...       0.00 
freq.    3094.02  E(vib)   ...       0.00 
freq.    3107.78  E(vib)   ...       0.00 
freq.    3159.74  E(vib)   ...       0.00 
freq.    3249.44  E(vib)   ...       0.00 
freq.    3269.27  E(vib)   ...       0.00 
freq.    3572.86  E(vib)   ...       0.00 
freq.    3583.41  E(vib)   ...       0.00 
freq.    3618.76  E(vib)   ...       0.00 
freq.    3731.28  E(vib)   ...       0.00 

------------
INNER ENERGY
------------

The inner energy is: U= E(el) + E(ZPE) + E(vib) + E(rot) + E(trans)
    E(el)   - is the total energy from the electronic structure calculation
              = E(kin-el) + E(nuc-el) + E(el-el) + E(nuc-nuc)
    E(ZPE)  - the the zero temperature vibrational energy from the frequency calculation
    E(vib)  - the the finite temperature correction to E(ZPE) due to population
              of excited vibrational states
    E(rot)  - is the rotational thermal energy
    E(trans)- is the translational thermal energy

Summary of contributions to the inner energy U:
Electronic energy                ...   -911.09100624 Eh
Zero point energy                ...      0.22759726 Eh     142.82 kcal/mol
Thermal vibrational correction   ...      0.01214092 Eh       7.62 kcal/mol
Thermal rotational correction    ...      0.00141627 Eh       0.89 kcal/mol
Thermal translational correction ...      0.00141627 Eh       0.89 kcal/mol
-----------------------------------------------------------------------
Total thermal energy                   -910.84843551 Eh


Summary of corrections to the electronic energy:
(perhaps to be used in another calculation)
Total thermal correction                  0.01497346 Eh       9.40 kcal/mol
Non-thermal (ZPE) correction              0.22759726 Eh     142.82 kcal/mol
-----------------------------------------------------------------------
Total correction                          0.24257072 Eh     152.22 kcal/mol


--------
ENTHALPY
--------

The enthalpy is H = U + kB*T
                kB is Boltzmann's constant
Total free energy                 ...   -910.84843551 Eh 
Thermal Enthalpy correction       ...      0.00094421 Eh       0.59 kcal/mol
-----------------------------------------------------------------------
Total Enthalpy                    ...   -910.84749131 Eh


Note: Only C1 symmetry has been detected, increase convergence thresholds 
      if your molecule has a higher symmetry. Symmetry factor of 1.0 is   
      used for the rotational entropy correction. 
 

Note: Rotational entropy computed according to Herzberg 
Infrared and Raman Spectra, Chapter V,1, Van Nostrand Reinhold, 1945 
Point Group:  C1, Symmetry Number:   1  
Rotational constants in cm-1:     0.030573     0.010195     0.008785 

Vibrational entropy computed according to the QRRHO of S. Grimme
Chem.Eur.J. 2012 18 9955


-------
ENTROPY
-------

The entropy contributions are T*S = T*(S(el)+S(vib)+S(rot)+S(trans))
     S(el)   - electronic entropy
     S(vib)  - vibrational entropy
     S(rot)  - rotational entropy
     S(trans)- translational entropy
The entropies will be listed as multiplied by the temperature to get
units of energy

Electronic entropy                ...      0.00000000 Eh      0.00 kcal/mol
Vibrational entropy               ...      0.02081014 Eh     13.06 kcal/mol
Rotational entropy                ...      0.01555747 Eh      9.76 kcal/mol
Translational entropy             ...      0.02013573 Eh     12.64 kcal/mol
-----------------------------------------------------------------------
Final entropy term                ...      0.05650333 Eh     35.46 kcal/mol

In case the symmetry of your molecule has not been determined correctly
or in case you have a reason to use a different symmetry number we print 
out the resulting rotational entropy values for sn=1,12 :
 --------------------------------------------------------
|  sn= 1 | S(rot)=       0.01555747 Eh      9.76 kcal/mol|
|  sn= 2 | S(rot)=       0.01490301 Eh      9.35 kcal/mol|
|  sn= 3 | S(rot)=       0.01452018 Eh      9.11 kcal/mol|
|  sn= 4 | S(rot)=       0.01424855 Eh      8.94 kcal/mol|
|  sn= 5 | S(rot)=       0.01403787 Eh      8.81 kcal/mol|
|  sn= 6 | S(rot)=       0.01386572 Eh      8.70 kcal/mol|
|  sn= 7 | S(rot)=       0.01372017 Eh      8.61 kcal/mol|
|  sn= 8 | S(rot)=       0.01359410 Eh      8.53 kcal/mol|
|  sn= 9 | S(rot)=       0.01348289 Eh      8.46 kcal/mol|
|  sn=10 | S(rot)=       0.01338341 Eh      8.40 kcal/mol|
|  sn=11 | S(rot)=       0.01329342 Eh      8.34 kcal/mol|
|  sn=12 | S(rot)=       0.01321126 Eh      8.29 kcal/mol|
 --------------------------------------------------------


-------------------
GIBBS FREE ENERGY
-------------------

The Gibbs free energy is G = H - T*S

Total enthalpy                    ...   -910.84749131 Eh 
Total entropy correction          ...     -0.05650333 Eh    -35.46 kcal/mol
-----------------------------------------------------------------------
Final Gibbs free energy         ...   -910.90399464 Eh

For completeness - the Gibbs free energy minus the electronic energy
G-E(el)                           ...      0.18701160 Eh    117.35 kcal/mol


Timings for individual modules:

Sum of individual times         ...     4498.140 sec (=  74.969 min)
GTO integral calculation        ...       42.170 sec (=   0.703 min)   0.9 %
SCF iterations                  ...     3012.156 sec (=  50.203 min)  67.0 %
SCF Gradient evaluation         ...      945.185 sec (=  15.753 min)  21.0 %
Geometry relaxation             ...        7.001 sec (=   0.117 min)   0.2 %
Analytical frequency calculation...      491.628 sec (=   8.194 min)  10.9 %
                             ****ORCA TERMINATED NORMALLY****
TOTAL RUN TIME: 0 days 1 hours 15 minutes 28 seconds 704 msec
