 Entering Gaussian System, Link 0=g09
 Input=pentane_conformation_3.gjf
 Output=pentane_conformation_3.out
 Initial command:
 /n/sw/g09_D.01/g09/l1.exe "/scratch/ekwan_pentane_conformation_3/Gau-21119.inp" -scrdir="/scratch/ekwan_pentane_conformation_3/"
 Entering Link 1 = /n/sw/g09_D.01/g09/l1.exe PID=     21120.
  
 Copyright (c) 1988,1990,1992,1993,1995,1998,2003,2009,2013,
            Gaussian, Inc.  All Rights Reserved.
  
 This is part of the Gaussian(R) 09 program.  It is based on
 the Gaussian(R) 03 system (copyright 2003, Gaussian, Inc.),
 the Gaussian(R) 98 system (copyright 1998, Gaussian, Inc.),
 the Gaussian(R) 94 system (copyright 1995, Gaussian, Inc.),
 the Gaussian 92(TM) system (copyright 1992, Gaussian, Inc.),
 the Gaussian 90(TM) system (copyright 1990, Gaussian, Inc.),
 the Gaussian 88(TM) system (copyright 1988, Gaussian, Inc.),
 the Gaussian 86(TM) system (copyright 1986, Carnegie Mellon
 University), and the Gaussian 82(TM) system (copyright 1983,
 Carnegie Mellon University). Gaussian is a federally registered
 trademark of Gaussian, Inc.
  
 This software contains proprietary and confidential information,
 including trade secrets, belonging to Gaussian, Inc.
  
 This software is provided under written license and may be
 used, copied, transmitted, or stored only in accord with that
 written license.
  
 The following legend is applicable only to US Government
 contracts under FAR:
  
                    RESTRICTED RIGHTS LEGEND
  
 Use, reproduction and disclosure by the US Government is
 subject to restrictions as set forth in subparagraphs (a)
 and (c) of the Commercial Computer Software - Restricted
 Rights clause in FAR 52.227-19.
  
 Gaussian, Inc.
 340 Quinnipiac St., Bldg. 40, Wallingford CT 06492
  
  
 ---------------------------------------------------------------
 Warning -- This program may not be used in any manner that
 competes with the business of Gaussian, Inc. or will provide
 assistance to any competitor of Gaussian, Inc.  The licensee
 of this program is prohibited from giving any competitor of
 Gaussian, Inc. access to this program.  By using this program,
 the user acknowledges that Gaussian, Inc. is engaged in the
 business of creating and licensing software in the field of
 computational chemistry and represents and warrants to the
 licensee that it is not a competitor of Gaussian, Inc. and that
 it will not use this program in any manner prohibited above.
 ---------------------------------------------------------------
  

 Cite this work as:
 Gaussian 09, Revision D.01,
 M. J. Frisch, G. W. Trucks, H. B. Schlegel, G. E. Scuseria, 
 M. A. Robb, J. R. Cheeseman, G. Scalmani, V. Barone, B. Mennucci, 
 G. A. Petersson, H. Nakatsuji, M. Caricato, X. Li, H. P. Hratchian, 
 A. F. Izmaylov, J. Bloino, G. Zheng, J. L. Sonnenberg, M. Hada, 
 M. Ehara, K. Toyota, R. Fukuda, J. Hasegawa, M. Ishida, T. Nakajima, 
 Y. Honda, O. Kitao, H. Nakai, T. Vreven, J. A. Montgomery, Jr., 
 J. E. Peralta, F. Ogliaro, M. Bearpark, J. J. Heyd, E. Brothers, 
 K. N. Kudin, V. N. Staroverov, T. Keith, R. Kobayashi, J. Normand, 
 K. Raghavachari, A. Rendell, J. C. Burant, S. S. Iyengar, J. Tomasi, 
 M. Cossi, N. Rega, J. M. Millam, M. Klene, J. E. Knox, J. B. Cross, 
 V. Bakken, C. Adamo, J. Jaramillo, R. Gomperts, R. E. Stratmann, 
 O. Yazyev, A. J. Austin, R. Cammi, C. Pomelli, J. W. Ochterski, 
 R. L. Martin, K. Morokuma, V. G. Zakrzewski, G. A. Voth, 
 P. Salvador, J. J. Dannenberg, S. Dapprich, A. D. Daniels, 
 O. Farkas, J. B. Foresman, J. V. Ortiz, J. Cioslowski, 
 and D. J. Fox, Gaussian, Inc., Wallingford CT, 2013.
 
 ******************************************
 Gaussian 09:  EM64L-G09RevD.01 24-Apr-2013
                15-Mar-2017 
 ******************************************
 %mem=1GB
 ------------------------
 #p opt freq=noraman pddg
 ------------------------
 1/14=-1,18=20,19=15,26=1,38=1/1,3;
 2/9=110,12=2,17=6,18=5,40=1/2;
 3/5=2,16=1,25=1,41=4000000,71=1/1,2,3;
 4/35=1/1;
 5/5=2,35=1,38=5/2;
 6/7=2,8=2,9=2,10=2,28=1/1;
 7//1,2,3,16;
 1/14=-1,18=20,19=15,26=1/3(2);
 2/9=110/2;
 99//99;
 2/9=110/2;
 3/5=2,16=1,25=1,41=4000000,71=1,135=20/1,2,3;
 4/5=5,16=3,35=1/1;
 5/5=2,35=1,38=5/2;
 7//1,2,3,16;
 1/14=-1,18=20,19=15,26=1/3(-5);
 2/9=110/2;
 6/7=2,8=2,9=2,10=2,19=2,28=1/1;
 99/9=1/99;
 Leave Link    1 at Wed Mar 15 15:24:38 2017, MaxMem=   134217728 cpu:         0.0
 (Enter /n/sw/g09_D.01/g09/l101.exe)
 ----------------------
 pentane conformation 3
 ----------------------
 Symbolic Z-matrix:
 Charge =  0 Multiplicity = 1
 C                     1.26964   1.41037   1.23993 
 H                     0.39267   2.06679   1.29093 
 H                     2.1584    2.04923   1.26344 
 H                     1.27364   0.80934   2.15716 
 C                     1.24631   0.53987  0. 
 H                     1.2746    1.16978  -0.91347 
 H                     2.15819  -0.09139  -0.04467 
 C                     0.       -0.33329   0.00003 
 H                     0.       -1.00756   0.88375 
 H                    0.        -1.0076   -0.88367 
 C                    -1.24631   0.53987   0.00001 
 H                    -1.29838   1.13588   0.93492 
 H                    -2.15875  -0.09217  -0.00196 
 C                    -1.23814   1.45526  -1.20736 
 H                    -1.21826   0.88827  -2.14581 
 H                    -2.1263    2.09498  -1.23028 
 H                    -0.36045   2.11269  -1.21168 
 
 NAtoms=     17 NQM=       17 NQMF=       0 NMMI=      0 NMMIF=      0
                NMic=       0 NMicF=      0.
                    Isotopes and Nuclear Properties:
 (Nuclear quadrupole moments (NQMom) in fm**2, nuclear magnetic moments (NMagM)
  in nuclear magnetons)

  Atom         1           2           3           4           5           6           7           8           9          10
 IAtWgt=          12           1           1           1          12           1           1          12           1           1
 AtmWgt=  12.0000000   1.0078250   1.0078250   1.0078250  12.0000000   1.0078250   1.0078250  12.0000000   1.0078250   1.0078250
 NucSpn=           0           1           1           1           0           1           1           0           1           1
 AtZEff=   0.0000000   0.0000000   0.0000000   0.0000000   0.0000000   0.0000000   0.0000000   0.0000000   0.0000000   0.0000000
 NQMom=    0.0000000   0.0000000   0.0000000   0.0000000   0.0000000   0.0000000   0.0000000   0.0000000   0.0000000   0.0000000
 NMagM=    0.0000000   2.7928460   2.7928460   2.7928460   0.0000000   2.7928460   2.7928460   0.0000000   2.7928460   2.7928460
 AtZNuc=   6.0000000   1.0000000   1.0000000   1.0000000   6.0000000   1.0000000   1.0000000   6.0000000   1.0000000   1.0000000

  Atom        11          12          13          14          15          16          17
 IAtWgt=          12           1           1          12           1           1           1
 AtmWgt=  12.0000000   1.0078250   1.0078250  12.0000000   1.0078250   1.0078250   1.0078250
 NucSpn=           0           1           1           0           1           1           1
 AtZEff=   0.0000000   0.0000000   0.0000000   0.0000000   0.0000000   0.0000000   0.0000000
 NQMom=    0.0000000   0.0000000   0.0000000   0.0000000   0.0000000   0.0000000   0.0000000
 NMagM=    0.0000000   2.7928460   2.7928460   0.0000000   2.7928460   2.7928460   2.7928460
 AtZNuc=   6.0000000   1.0000000   1.0000000   6.0000000   1.0000000   1.0000000   1.0000000
 Leave Link  101 at Wed Mar 15 15:24:39 2017, MaxMem=   134217728 cpu:         0.3
 (Enter /n/sw/g09_D.01/g09/l103.exe)

 GradGradGradGradGradGradGradGradGradGradGradGradGradGradGradGradGradGrad
 Berny optimization.
 Initialization pass.
                           ----------------------------
                           !    Initial Parameters    !
                           ! (Angstroms and Degrees)  !
 --------------------------                            --------------------------
 ! Name  Definition              Value          Derivative Info.                !
 --------------------------------------------------------------------------------
 ! R1    R(1,2)                  1.0966         estimate D2E/DX2                !
 ! R2    R(1,3)                  1.0948         estimate D2E/DX2                !
 ! R3    R(1,4)                  1.0966         estimate D2E/DX2                !
 ! R4    R(1,5)                  1.5152         estimate D2E/DX2                !
 ! R5    R(5,6)                  1.11           estimate D2E/DX2                !
 ! R6    R(5,7)                  1.11           estimate D2E/DX2                !
 ! R7    R(5,8)                  1.5217         estimate D2E/DX2                !
 ! R8    R(8,9)                  1.1116         estimate D2E/DX2                !
 ! R9    R(8,10)                 1.1116         estimate D2E/DX2                !
 ! R10   R(8,11)                 1.5217         estimate D2E/DX2                !
 ! R11   R(11,12)                1.11           estimate D2E/DX2                !
 ! R12   R(11,13)                1.11           estimate D2E/DX2                !
 ! R13   R(11,14)                1.5152         estimate D2E/DX2                !
 ! R14   R(14,15)                1.0966         estimate D2E/DX2                !
 ! R15   R(14,16)                1.0948         estimate D2E/DX2                !
 ! R16   R(14,17)                1.0966         estimate D2E/DX2                !
 ! A1    A(2,1,3)              107.3917         estimate D2E/DX2                !
 ! A2    A(2,1,4)              106.9828         estimate D2E/DX2                !
 ! A3    A(2,1,5)              111.6942         estimate D2E/DX2                !
 ! A4    A(3,1,4)              107.3916         estimate D2E/DX2                !
 ! A5    A(3,1,5)              111.4279         estimate D2E/DX2                !
 ! A6    A(4,1,5)              111.6943         estimate D2E/DX2                !
 ! A7    A(1,5,6)              110.3059         estimate D2E/DX2                !
 ! A8    A(1,5,7)              110.3057         estimate D2E/DX2                !
 ! A9    A(1,5,8)              110.0139         estimate D2E/DX2                !
 ! A10   A(6,5,7)              105.5865         estimate D2E/DX2                !
 ! A11   A(6,5,8)              110.2749         estimate D2E/DX2                !
 ! A12   A(7,5,8)              110.2748         estimate D2E/DX2                !
 ! A13   A(5,8,9)              110.3692         estimate D2E/DX2                !
 ! A14   A(5,8,10)             110.3684         estimate D2E/DX2                !
 ! A15   A(5,8,11)             109.9704         estimate D2E/DX2                !
 ! A16   A(9,8,10)             105.3114         estimate D2E/DX2                !
 ! A17   A(9,8,11)             110.3689         estimate D2E/DX2                !
 ! A18   A(10,8,11)            110.3687         estimate D2E/DX2                !
 ! A19   A(8,11,12)            110.2747         estimate D2E/DX2                !
 ! A20   A(8,11,13)            110.275          estimate D2E/DX2                !
 ! A21   A(8,11,14)            110.0139         estimate D2E/DX2                !
 ! A22   A(12,11,13)           105.5865         estimate D2E/DX2                !
 ! A23   A(12,11,14)           110.3054         estimate D2E/DX2                !
 ! A24   A(13,11,14)           110.3063         estimate D2E/DX2                !
 ! A25   A(11,14,15)           111.6943         estimate D2E/DX2                !
 ! A26   A(11,14,16)           111.4279         estimate D2E/DX2                !
 ! A27   A(11,14,17)           111.6942         estimate D2E/DX2                !
 ! A28   A(15,14,16)           107.3915         estimate D2E/DX2                !
 ! A29   A(15,14,17)           106.9828         estimate D2E/DX2                !
 ! A30   A(16,14,17)           107.3918         estimate D2E/DX2                !
 ! D1    D(2,1,5,6)             61.9839         estimate D2E/DX2                !
 ! D2    D(2,1,5,7)            178.2411         estimate D2E/DX2                !
 ! D3    D(2,1,5,8)            -59.8876         estimate D2E/DX2                !
 ! D4    D(3,1,5,6)            -58.129          estimate D2E/DX2                !
 ! D5    D(3,1,5,7)             58.1282         estimate D2E/DX2                !
 ! D6    D(3,1,5,8)            179.9995         estimate D2E/DX2                !
 ! D7    D(4,1,5,6)           -178.2419         estimate D2E/DX2                !
 ! D8    D(4,1,5,7)            -61.9847         estimate D2E/DX2                !
 ! D9    D(4,1,5,8)             59.8866         estimate D2E/DX2                !
 ! D10   D(1,5,8,9)            -61.4323         estimate D2E/DX2                !
 ! D11   D(1,5,8,10)          -177.4285         estimate D2E/DX2                !
 ! D12   D(1,5,8,11)            60.57           estimate D2E/DX2                !
 ! D13   D(6,5,8,9)            176.6779         estimate D2E/DX2                !
 ! D14   D(6,5,8,10)            60.6816         estimate D2E/DX2                !
 ! D15   D(6,5,8,11)           -61.3199         estimate D2E/DX2                !
 ! D16   D(7,5,8,9)             60.4574         estimate D2E/DX2                !
 ! D17   D(7,5,8,10)           -55.5388         estimate D2E/DX2                !
 ! D18   D(7,5,8,11)          -177.5403         estimate D2E/DX2                !
 ! D19   D(5,8,11,12)          -63.8891         estimate D2E/DX2                !
 ! D20   D(5,8,11,13)          179.8905         estimate D2E/DX2                !
 ! D21   D(5,8,11,14)           58.0            estimate D2E/DX2                !
 ! D22   D(9,8,11,12)           58.1133         estimate D2E/DX2                !
 ! D23   D(9,8,11,13)          -58.1071         estimate D2E/DX2                !
 ! D24   D(9,8,11,14)         -179.9976         estimate D2E/DX2                !
 ! D25   D(10,8,11,12)         174.1096         estimate D2E/DX2                !
 ! D26   D(10,8,11,13)          57.8891         estimate D2E/DX2                !
 ! D27   D(10,8,11,14)         -64.0013         estimate D2E/DX2                !
 ! D28   D(8,11,14,15)          59.8872         estimate D2E/DX2                !
 ! D29   D(8,11,14,16)         180.0            estimate D2E/DX2                !
 ! D30   D(8,11,14,17)         -59.887          estimate D2E/DX2                !
 ! D31   D(12,11,14,15)       -178.2419         estimate D2E/DX2                !
 ! D32   D(12,11,14,16)        -58.1291         estimate D2E/DX2                !
 ! D33   D(12,11,14,17)         61.9839         estimate D2E/DX2                !
 ! D34   D(13,11,14,15)        -61.9846         estimate D2E/DX2                !
 ! D35   D(13,11,14,16)         58.1281         estimate D2E/DX2                !
 ! D36   D(13,11,14,17)        178.2412         estimate D2E/DX2                !
 --------------------------------------------------------------------------------
 Trust Radius=3.00D-01 FncErr=1.00D-07 GrdErr=1.00D-07
 Number of steps in this run=     92 maximum allowed number of steps=    102.
 GradGradGradGradGradGradGradGradGradGradGradGradGradGradGradGradGradGrad

 Leave Link  103 at Wed Mar 15 15:24:39 2017, MaxMem=   134217728 cpu:         0.0
 (Enter /n/sw/g09_D.01/g09/l202.exe)
                          Input orientation:                          
 ---------------------------------------------------------------------
 Center     Atomic      Atomic             Coordinates (Angstroms)
 Number     Number       Type             X           Y           Z
 ---------------------------------------------------------------------
      1          6           0        1.269638    1.410368    1.239925
      2          1           0        0.392669    2.066791    1.290929
      3          1           0        2.158404    2.049230    1.263436
      4          1           0        1.273635    0.809340    2.157159
      5          6           0        1.246310    0.539865   -0.000004
      6          1           0        1.274604    1.169780   -0.913471
      7          1           0        2.158193   -0.091394   -0.044674
      8          6           0        0.000000   -0.333291    0.000027
      9          1           0        0.000001   -1.007562    0.883752
     10          1           0       -0.000001   -1.007595   -0.883669
     11          6           0       -1.246310    0.539865    0.000008
     12          1           0       -1.298384    1.135884    0.934922
     13          1           0       -2.158746   -0.092175   -0.001960
     14          6           0       -1.238139    1.455257   -1.207358
     15          1           0       -1.218264    0.888269   -2.145813
     16          1           0       -2.126303    2.094978   -1.230283
     17          1           0       -0.360453    2.112688   -1.211683
 ---------------------------------------------------------------------
                    Distance matrix (angstroms):
                    1          2          3          4          5
     1  C    0.000000
     2  H    1.096616   0.000000
     3  H    1.094807   1.766036   0.000000
     4  H    1.096617   1.762850   1.766036   0.000000
     5  C    1.515171   2.174101   2.169419   2.174101   0.000000
     6  H    2.166800   2.538073   2.508676   3.091713   1.109962
     7  H    2.166798   3.091710   2.508669   2.538077   1.109961
     8  C    2.487905   2.753363   3.454173   2.753357   1.521739
     9  H    2.754128   3.125960   3.761228   2.558289   2.174590
    10  H    3.459506   3.786148   4.314273   3.764311   2.174578
    11  C    2.936863   2.585388   3.932748   3.328069   2.492620
    12  H    2.600597   1.962903   3.590474   2.866318   2.775750
    13  H    3.943822   3.583632   4.982431   4.154006   3.463219
    14  C    3.504306   3.045480   4.241949   4.248082   2.910006
    15  H    4.233847   3.974319   4.936871   4.973063   3.286336
    16  H    4.254766   3.564060   4.957765   4.968622   3.912349
    17  H    3.026687   2.613879   3.531980   3.964601   2.554139
                    6          7          8          9         10
     6  H    0.000000
     7  H    1.768077   0.000000
     8  C    2.172169   2.172167   0.000000
     9  H    3.097651   2.521732   1.111581   0.000000
    10  H    2.523186   2.490208   1.111577   1.767421   0.000000
    11  C    2.754314   3.462820   1.521739   2.174586   2.174581
    12  H    3.168276   3.796543   2.172166   2.506548   3.096380
    13  H    3.769785   4.317150   2.172171   2.506513   2.505112
    14  C    2.545928   3.908841   2.487905   3.459944   2.775501
    15  H    2.795050   4.095727   2.753362   3.775792   2.582919
    16  H    3.538718   4.954068   3.454173   4.314634   3.777202
    17  H    1.910868   3.544497   2.753358   3.775809   3.158114
                   11         12         13         14         15
    11  C    0.000000
    12  H    1.109961   0.000000
    13  H    1.109963   1.768078   0.000000
    14  C    1.515171   2.166793   2.166806   0.000000
    15  H    2.174102   3.091708   2.538086   1.096617   0.000000
    16  H    2.169419   2.508669   2.508678   1.094807   1.766034
    17  H    2.174100   2.538065   3.091716   1.096616   1.762850
                   16         17
    16  H    0.000000
    17  H    1.766037   0.000000
 Stoichiometry    C5H12
 Framework group  C1[X(C5H12)]
 Deg. of freedom    45
 Full point group                 C1      NOp   1
 Largest Abelian subgroup         C1      NOp   1
 Largest concise Abelian subgroup C1      NOp   1
                         Standard orientation:                         
 ---------------------------------------------------------------------
 Center     Atomic      Atomic             Coordinates (Angstroms)
 Number     Number       Type             X           Y           Z
 ---------------------------------------------------------------------
      1          6           0        1.721595   -0.662732   -0.372166
      2          1           0        1.003223   -1.307218   -0.892884
      3          1           0        2.479404   -1.313125    0.076516
      4          1           0        2.221314   -0.056552   -1.137277
      5          6           0        1.044514    0.200867    0.672583
      6          1           0        0.573843   -0.434602    1.451469
      7          1           0        1.795553    0.819767    1.206358
      8          6           0       -0.000657    1.090385    0.015265
      9          1           0        0.478323    1.769661   -0.722822
     10          1           0       -0.468741    1.759544    0.769406
     11          6           0       -1.059945    0.233771   -0.662830
     12          1           0       -0.607750   -0.356129   -1.487179
     13          1           0       -1.826250    0.877779   -1.142464
     14          6           0       -1.707392   -0.688568    0.350010
     15          1           0       -2.188903   -0.127290    1.159753
     16          1           0       -2.474695   -1.316630   -0.114089
     17          1           0       -0.974003   -1.357541    0.816038
 ---------------------------------------------------------------------
 Rotational constants (GHZ):      7.4626630      3.2547374      2.9636899
 Leave Link  202 at Wed Mar 15 15:24:39 2017, MaxMem=   134217728 cpu:         0.0
 (Enter /n/sw/g09_D.01/g09/l301.exe)
 Standard basis: VSTO-6G (5D, 7F)
 Ernie: Thresh=  0.10000D-02 Tol=  0.10000D-05 Strict=F.
  NNHCO=     0 NNPyr=     0 NCTC=     0               EPep=         0.000000000
    EC=        95.443164368  ECS=         1.822916924   EG=         0.549127623
   EHC=         0.000000000  EAt=       -26.628120368  AtH=         2.358010633
 EPDDG=         0.005603513  ECC=        97.820812427 EAtT=        28.986131002
 There are    32 symmetry adapted cartesian basis functions of A   symmetry.
 There are    32 symmetry adapted basis functions of A   symmetry.
    32 basis functions,   192 primitive gaussians,    32 cartesian basis functions
    16 alpha electrons       16 beta electrons
       nuclear repulsion energy       126.8069434292 Hartrees.
 IExCor=    0 DFT=F Ex=HF Corr=None ExCW=0 ScaHFX=  1.000000
 ScaDFX=  1.000000  1.000000  1.000000  1.000000 ScalE2=  1.000000  1.000000
 IRadAn=      0 IRanWt=     -1 IRanGd=            0 ICorTp=0 IEmpDi=  4
 Integral buffers will be    131072 words long.
 Regular integral format.
 Two-electron integral symmetry is turned off.
 Leave Link  301 at Wed Mar 15 15:24:39 2017, MaxMem=   134217728 cpu:         0.1
 (Enter /n/sw/g09_D.01/g09/l302.exe)
 Do NDO integrals.
 NPDir=0 NMtPBC=     1 NCelOv=     1 NCel=       1 NClECP=     1 NCelD=      1
         NCelK=      1 NCelE2=     1 NClLst=     1 CellRange=     0.0.
 One-electron integrals computed using PRISM.
 NBasis=    32 RedAO= F EigKep=  0.00D+00  NBF=    32
 NBsUse=    32 1.00D-04 EigRej=  0.00D+00 NBFU=    32
 Leave Link  302 at Wed Mar 15 15:24:40 2017, MaxMem=   134217728 cpu:         0.2
 (Enter /n/sw/g09_D.01/g09/l303.exe)
 DipDrv:  MaxL=1.
 Leave Link  303 at Wed Mar 15 15:24:40 2017, MaxMem=   134217728 cpu:         0.1
 (Enter /n/sw/g09_D.01/g09/l401.exe)
 Simple Huckel Guess.
 JPrj=0 DoOrth=F DoCkMO=F.
 Leave Link  401 at Wed Mar 15 15:24:40 2017, MaxMem=   134217728 cpu:         0.1
 (Enter /n/sw/g09_D.01/g09/l502.exe)
 Closed shell SCF:
 Using DIIS extrapolation, IDIIS=  1040.
 Overlap will be assumed to be unity.
 Two-electron integral symmetry not used.
 Keep J ints in memory in canonical form, NReq=894650.
 IVT=       80931 IEndB=       80931 NGot=   134217728 MDV=   134134845
 LenX=   134134845 LenY=   134133380
 Requested convergence on RMS density matrix=1.00D-08 within 128 cycles.
 Requested convergence on MAX density matrix=1.00D-06.
 Requested convergence on             energy=1.00D-06.
 No special actions if energy rises.
 FoFCou: FMM=F IPFlag=           0 FMFlag=           0 FMFlg1=           0
         NFxFlg=           0 DoJE=F BraDBF=F KetDBF=F FulRan=T
         wScrn=  0.000000 ICntrl=     600 IOpCl=  2 I1Cent=           0 NGrid=           0
         NMat0=    1 NMatS0=     62 NMatT0=    0 NMatD0=    1 NMtDS0=    0 NMtDT0=    0
 Symmetry not used in FoFCou.

 Cycle   1  Pass 1  IDiag  1:
 E= 0.120044596499739    
 DIIS: error= 3.11D-02 at cycle   1 NSaved=   1.
 NSaved= 1 IEnMin= 1 EnMin= 0.120044596499739     IErMin= 1 ErrMin= 3.11D-02
 ErrMax= 3.11D-02  0.00D+00 EMaxC= 1.00D-01 BMatC= 6.85D-02 BMatP= 6.85D-02
 IDIUse=3 WtCom= 6.89D-01 WtEn= 3.11D-01
 Coeff-Com:  0.100D+01
 Coeff-En:   0.100D+01
 Coeff:      0.100D+01
 GapD=    2.000 DampG=2.000 DampE=0.500 DampFc=1.0000 IDamp=-1.
 RMSDP=1.08D-02 MaxDP=1.01D-01              OVMax= 0.00D+00

 Cycle   2  Pass 1  IDiag  1:
 E=-0.370296768641225E-01 Delta-E=       -0.157074273364 Rises=F Damp=F
 DIIS: error= 8.18D-03 at cycle   2 NSaved=   2.
 NSaved= 2 IEnMin= 2 EnMin=-0.370296768641225E-01 IErMin= 2 ErrMin= 8.18D-03
 ErrMax= 8.18D-03  0.00D+00 EMaxC= 1.00D-01 BMatC= 4.34D-03 BMatP= 6.85D-02
 IDIUse=3 WtCom= 9.18D-01 WtEn= 8.18D-02
 Coeff-Com: -0.317D+00 0.132D+01
 Coeff-En:   0.000D+00 0.100D+01
 Coeff:     -0.291D+00 0.129D+01
 RMSDP=3.74D-03 MaxDP=3.33D-02 DE=-1.57D-01 OVMax= 0.00D+00

 Cycle   3  Pass 1  IDiag  3:
 E=-0.487277921639162E-01 Delta-E=       -0.011698115300 Rises=F Damp=F
 DIIS: error= 6.87D-04 at cycle   3 NSaved=   3.
 NSaved= 3 IEnMin= 3 EnMin=-0.487277921639162E-01 IErMin= 3 ErrMin= 6.87D-04
 ErrMax= 6.87D-04  0.00D+00 EMaxC= 1.00D-01 BMatC= 5.21D-05 BMatP= 4.34D-03
 IDIUse=3 WtCom= 9.93D-01 WtEn= 6.87D-03
 Coeff-Com:  0.115D+00-0.531D+00 0.142D+01
 Coeff-En:   0.000D+00 0.000D+00 0.100D+01
 Coeff:      0.114D+00-0.527D+00 0.141D+01
 Gap=     0.538 Goal=   None    Shift=    0.000
 RMSDP=6.33D-04 MaxDP=3.55D-03 DE=-1.17D-02 OVMax= 5.39D-03

 Cycle   4  Pass 1  IDiag  3:
 E=-0.489707908528487E-01 Delta-E=       -0.000242998689 Rises=F Damp=F
 DIIS: error= 1.93D-04 at cycle   4 NSaved=   4.
 NSaved= 4 IEnMin= 4 EnMin=-0.489707908528487E-01 IErMin= 4 ErrMin= 1.93D-04
 ErrMax= 1.93D-04  0.00D+00 EMaxC= 1.00D-01 BMatC= 3.25D-06 BMatP= 5.21D-05
 IDIUse=3 WtCom= 9.98D-01 WtEn= 1.93D-03
 Coeff-Com: -0.662D-01 0.312D+00-0.993D+00 0.175D+01
 Coeff-En:   0.000D+00 0.000D+00 0.000D+00 0.100D+01
 Coeff:     -0.661D-01 0.311D+00-0.991D+00 0.175D+01
 Gap=     0.540 Goal=   None    Shift=    0.000
 RMSDP=2.35D-04 MaxDP=1.68D-03 DE=-2.43D-04 OVMax= 1.57D-03

 Cycle   5  Pass 1  IDiag  3:
 E=-0.489910192912646E-01 Delta-E=       -0.000020228438 Rises=F Damp=F
 DIIS: error= 3.07D-05 at cycle   5 NSaved=   5.
 NSaved= 5 IEnMin= 5 EnMin=-0.489910192912646E-01 IErMin= 5 ErrMin= 3.07D-05
 ErrMax= 3.07D-05  0.00D+00 EMaxC= 1.00D-01 BMatC= 6.66D-08 BMatP= 3.25D-06
 IDIUse=1 WtCom= 1.00D+00 WtEn= 0.00D+00
 Coeff-Com:  0.121D-01-0.570D-01 0.186D+00-0.381D+00 0.124D+01
 Coeff:      0.121D-01-0.570D-01 0.186D+00-0.381D+00 0.124D+01
 Gap=     0.539 Goal=   None    Shift=    0.000
 RMSDP=2.28D-05 MaxDP=2.07D-04 DE=-2.02D-05 OVMax= 1.55D-04

 Cycle   6  Pass 1  IDiag  3:
 E=-0.489913538611404E-01 Delta-E=       -0.000000334570 Rises=F Damp=F
 DIIS: error= 9.51D-06 at cycle   6 NSaved=   6.
 NSaved= 6 IEnMin= 6 EnMin=-0.489913538611404E-01 IErMin= 6 ErrMin= 9.51D-06
 ErrMax= 9.51D-06  0.00D+00 EMaxC= 1.00D-01 BMatC= 8.68D-09 BMatP= 6.66D-08
 IDIUse=1 WtCom= 1.00D+00 WtEn= 0.00D+00
 Coeff-Com: -0.389D-02 0.179D-01-0.565D-01 0.115D+00-0.644D+00 0.157D+01
 Coeff:     -0.389D-02 0.179D-01-0.565D-01 0.115D+00-0.644D+00 0.157D+01
 Gap=     0.539 Goal=   None    Shift=    0.000
 RMSDP=1.10D-05 MaxDP=8.91D-05 DE=-3.35D-07 OVMax= 6.80D-05

 Cycle   7  Pass 1  IDiag  3:
 E=-0.489914091891563E-01 Delta-E=       -0.000000055328 Rises=F Damp=F
 DIIS: error= 3.41D-06 at cycle   7 NSaved=   7.
 NSaved= 7 IEnMin= 7 EnMin=-0.489914091891563E-01 IErMin= 7 ErrMin= 3.41D-06
 ErrMax= 3.41D-06  0.00D+00 EMaxC= 1.00D-01 BMatC= 6.92D-10 BMatP= 8.68D-09
 IDIUse=1 WtCom= 1.00D+00 WtEn= 0.00D+00
 Coeff-Com:  0.931D-03-0.416D-02 0.124D-01-0.236D-01 0.239D+00-0.879D+00
 Coeff-Com:  0.165D+01
 Coeff:      0.931D-03-0.416D-02 0.124D-01-0.236D-01 0.239D+00-0.879D+00
 Coeff:      0.165D+01
 Gap=     0.539 Goal=   None    Shift=    0.000
 RMSDP=3.76D-06 MaxDP=2.84D-05 DE=-5.53D-08 OVMax= 2.81D-05

 Cycle   8  Pass 1  IDiag  3:
 E=-0.489914139401151E-01 Delta-E=       -0.000000004751 Rises=F Damp=F
 DIIS: error= 4.51D-07 at cycle   8 NSaved=   8.
 NSaved= 8 IEnMin= 8 EnMin=-0.489914139401151E-01 IErMin= 8 ErrMin= 4.51D-07
 ErrMax= 4.51D-07  0.00D+00 EMaxC= 1.00D-01 BMatC= 2.10D-11 BMatP= 6.92D-10
 IDIUse=1 WtCom= 1.00D+00 WtEn= 0.00D+00
 Coeff-Com: -0.181D-05-0.534D-04 0.497D-03-0.190D-02-0.423D-01 0.225D+00
 Coeff-Com: -0.578D+00 0.140D+01
 Coeff:     -0.181D-05-0.534D-04 0.497D-03-0.190D-02-0.423D-01 0.225D+00
 Coeff:     -0.578D+00 0.140D+01
 Gap=     0.539 Goal=   None    Shift=    0.000
 RMSDP=5.28D-07 MaxDP=3.82D-06 DE=-4.75D-09 OVMax= 3.83D-06

 Cycle   9  Pass 1  IDiag  3:
 E=-0.489914140600263E-01 Delta-E=       -0.000000000120 Rises=F Damp=F
 DIIS: error= 1.85D-07 at cycle   9 NSaved=   9.
 NSaved= 9 IEnMin= 9 EnMin=-0.489914140600263E-01 IErMin= 9 ErrMin= 1.85D-07
 ErrMax= 1.85D-07  0.00D+00 EMaxC= 1.00D-01 BMatC= 1.40D-12 BMatP= 2.10D-11
 IDIUse=1 WtCom= 1.00D+00 WtEn= 0.00D+00
 Coeff-Com: -0.193D-04 0.124D-03-0.583D-03 0.174D-02 0.198D-01-0.115D+00
 Coeff-Com:  0.313D+00-0.899D+00 0.168D+01
 Coeff:     -0.193D-04 0.124D-03-0.583D-03 0.174D-02 0.198D-01-0.115D+00
 Coeff:      0.313D+00-0.899D+00 0.168D+01
 Gap=     0.539 Goal=   None    Shift=    0.000
 RMSDP=1.46D-07 MaxDP=1.51D-06 DE=-1.20D-10 OVMax= 1.09D-06

 Cycle  10  Pass 1  IDiag  3:
 E=-0.489914140686523E-01 Delta-E=       -0.000000000009 Rises=F Damp=F
 DIIS: error= 4.49D-08 at cycle  10 NSaved=  10.
 NSaved=10 IEnMin=10 EnMin=-0.489914140686523E-01 IErMin=10 ErrMin= 4.49D-08
 ErrMax= 4.49D-08  0.00D+00 EMaxC= 1.00D-01 BMatC= 7.55D-14 BMatP= 1.40D-12
 IDIUse=1 WtCom= 1.00D+00 WtEn= 0.00D+00
 Coeff-Com:  0.364D-05-0.317D-04 0.183D-03-0.620D-03-0.896D-02 0.505D-01
 Coeff-Com: -0.136D+00 0.398D+00-0.907D+00 0.160D+01
 Coeff:      0.364D-05-0.317D-04 0.183D-03-0.620D-03-0.896D-02 0.505D-01
 Coeff:     -0.136D+00 0.398D+00-0.907D+00 0.160D+01
 Gap=     0.539 Goal=   None    Shift=    0.000
 RMSDP=3.72D-08 MaxDP=4.13D-07 DE=-8.63D-12 OVMax= 3.17D-07

 Cycle  11  Pass 1  IDiag  3:
 E=-0.489914140691923E-01 Delta-E=       -0.000000000001 Rises=F Damp=F
 DIIS: error= 5.97D-09 at cycle  11 NSaved=  11.
 NSaved=11 IEnMin=11 EnMin=-0.489914140691923E-01 IErMin=11 ErrMin= 5.97D-09
 ErrMax= 5.97D-09  0.00D+00 EMaxC= 1.00D-01 BMatC= 1.50D-15 BMatP= 7.55D-14
 IDIUse=1 WtCom= 1.00D+00 WtEn= 0.00D+00
 Coeff-Com: -0.847D-06 0.912D-05-0.577D-04 0.204D-03 0.318D-02-0.177D-01
 Coeff-Com:  0.479D-01-0.140D+00 0.327D+00-0.656D+00 0.143D+01
 Coeff:     -0.847D-06 0.912D-05-0.577D-04 0.204D-03 0.318D-02-0.177D-01
 Coeff:      0.479D-01-0.140D+00 0.327D+00-0.656D+00 0.143D+01
 Gap=     0.539 Goal=   None    Shift=    0.000
 RMSDP=4.28D-09 MaxDP=4.48D-08 DE=-5.40D-13 OVMax= 2.81D-08

 Cycle  12  Pass 2  IDiag  1:
 SCF Done:  E(RPDDG) = -0.489914140692E-01 A.U. after   12 cycles
            NFock= 11  Conv=0.43D-08     -V/T= 0.9976
 KE=-2.067222720390D+01 PE=-2.117054784605D+02 EE= 1.055217708211D+02
 Leave Link  502 at Wed Mar 15 15:24:41 2017, MaxMem=   134217728 cpu:         0.1
 (Enter /n/sw/g09_D.01/g09/l601.exe)
 Copying SCF densities to generalized density rwf, IOpCl= 0 IROHF=0.

 **********************************************************************

            Population analysis using the SCF density.

 **********************************************************************

 Orbital symmetries:
       Occupied  (A) (A) (A) (A) (A) (A) (A) (A) (A) (A) (A) (A)
                 (A) (A) (A) (A)
       Virtual   (A) (A) (A) (A) (A) (A) (A) (A) (A) (A) (A) (A)
                 (A) (A) (A) (A)
 The electronic state is 1-A.
 Alpha  occ. eigenvalues --   -1.47846  -1.18180  -0.99460  -0.87238  -0.72142
 Alpha  occ. eigenvalues --   -0.60987  -0.59301  -0.53578  -0.53198  -0.50570
 Alpha  occ. eigenvalues --   -0.48472  -0.45547  -0.45203  -0.42410  -0.41743
 Alpha  occ. eigenvalues --   -0.40832
 Alpha virt. eigenvalues --    0.13111   0.13342   0.14553   0.15354   0.15640
 Alpha virt. eigenvalues --    0.15648   0.16070   0.16425   0.17778   0.17824
 Alpha virt. eigenvalues --    0.18178   0.19436   0.19670   0.19729   0.20186
 Alpha virt. eigenvalues --    0.20291
          Condensed to atoms (all electrons):
               1          2          3          4          5          6
     1  C    4.279473   0.000000   0.000000   0.000000   0.000000   0.000000
     2  H    0.000000   0.903486   0.000000   0.000000   0.000000   0.000000
     3  H    0.000000   0.000000   0.913455   0.000000   0.000000   0.000000
     4  H    0.000000   0.000000   0.000000   0.911754   0.000000   0.000000
     5  C    0.000000   0.000000   0.000000   0.000000   4.182749   0.000000
     6  H    0.000000   0.000000   0.000000   0.000000   0.000000   0.899277
     7  H    0.000000   0.000000   0.000000   0.000000   0.000000   0.000000
     8  C    0.000000   0.000000   0.000000   0.000000   0.000000   0.000000
     9  H    0.000000   0.000000   0.000000   0.000000   0.000000   0.000000
    10  H    0.000000   0.000000   0.000000   0.000000   0.000000   0.000000
    11  C    0.000000   0.000000   0.000000   0.000000   0.000000   0.000000
    12  H    0.000000   0.000000   0.000000   0.000000   0.000000   0.000000
    13  H    0.000000   0.000000   0.000000   0.000000   0.000000   0.000000
    14  C    0.000000   0.000000   0.000000   0.000000   0.000000   0.000000
    15  H    0.000000   0.000000   0.000000   0.000000   0.000000   0.000000
    16  H    0.000000   0.000000   0.000000   0.000000   0.000000   0.000000
    17  H    0.000000   0.000000   0.000000   0.000000   0.000000   0.000000
               7          8          9         10         11         12
     1  C    0.000000   0.000000   0.000000   0.000000   0.000000   0.000000
     2  H    0.000000   0.000000   0.000000   0.000000   0.000000   0.000000
     3  H    0.000000   0.000000   0.000000   0.000000   0.000000   0.000000
     4  H    0.000000   0.000000   0.000000   0.000000   0.000000   0.000000
     5  C    0.000000   0.000000   0.000000   0.000000   0.000000   0.000000
     6  H    0.000000   0.000000   0.000000   0.000000   0.000000   0.000000
     7  H    0.908813   0.000000   0.000000   0.000000   0.000000   0.000000
     8  C    0.000000   4.189399   0.000000   0.000000   0.000000   0.000000
     9  H    0.000000   0.000000   0.906276   0.000000   0.000000   0.000000
    10  H    0.000000   0.000000   0.000000   0.906573   0.000000   0.000000
    11  C    0.000000   0.000000   0.000000   0.000000   4.181104   0.000000
    12  H    0.000000   0.000000   0.000000   0.000000   0.000000   0.900789
    13  H    0.000000   0.000000   0.000000   0.000000   0.000000   0.000000
    14  C    0.000000   0.000000   0.000000   0.000000   0.000000   0.000000
    15  H    0.000000   0.000000   0.000000   0.000000   0.000000   0.000000
    16  H    0.000000   0.000000   0.000000   0.000000   0.000000   0.000000
    17  H    0.000000   0.000000   0.000000   0.000000   0.000000   0.000000
              13         14         15         16         17
     1  C    0.000000   0.000000   0.000000   0.000000   0.000000
     2  H    0.000000   0.000000   0.000000   0.000000   0.000000
     3  H    0.000000   0.000000   0.000000   0.000000   0.000000
     4  H    0.000000   0.000000   0.000000   0.000000   0.000000
     5  C    0.000000   0.000000   0.000000   0.000000   0.000000
     6  H    0.000000   0.000000   0.000000   0.000000   0.000000
     7  H    0.000000   0.000000   0.000000   0.000000   0.000000
     8  C    0.000000   0.000000   0.000000   0.000000   0.000000
     9  H    0.000000   0.000000   0.000000   0.000000   0.000000
    10  H    0.000000   0.000000   0.000000   0.000000   0.000000
    11  C    0.000000   0.000000   0.000000   0.000000   0.000000
    12  H    0.000000   0.000000   0.000000   0.000000   0.000000
    13  H    0.908841   0.000000   0.000000   0.000000   0.000000
    14  C    0.000000   4.280558   0.000000   0.000000   0.000000
    15  H    0.000000   0.000000   0.911621   0.000000   0.000000
    16  H    0.000000   0.000000   0.000000   0.913326   0.000000
    17  H    0.000000   0.000000   0.000000   0.000000   0.902506
 Mulliken charges:
               1
     1  C   -0.279473
     2  H    0.096514
     3  H    0.086545
     4  H    0.088246
     5  C   -0.182749
     6  H    0.100723
     7  H    0.091187
     8  C   -0.189399
     9  H    0.093724
    10  H    0.093427
    11  C   -0.181104
    12  H    0.099211
    13  H    0.091159
    14  C   -0.280558
    15  H    0.088379
    16  H    0.086674
    17  H    0.097494
 Sum of Mulliken charges =   0.00000
 Mulliken charges with hydrogens summed into heavy atoms:
               1
     1  C   -0.008167
     5  C    0.009161
     8  C   -0.002248
    11  C    0.009265
    14  C   -0.008011
 Charge=              0.0000 electrons
 Dipole moment (field-independent basis, Debye):
    X=             -0.0015    Y=             -0.0777    Z=              0.0011  Tot=              0.0777
 N-N= 1.268069434292D+02 E-N=-2.117054785308D+02  KE=-2.067222720390D+01
 Leave Link  601 at Wed Mar 15 15:24:41 2017, MaxMem=   134217728 cpu:         0.1
 (Enter /n/sw/g09_D.01/g09/l701.exe)
 Compute integral first derivatives.
 ... and contract with generalized density number  0.
 Leave Link  701 at Wed Mar 15 15:24:41 2017, MaxMem=   134217728 cpu:         0.2
 (Enter /n/sw/g09_D.01/g09/l702.exe)
 L702 exits ... SP integral derivatives will be done elsewhere.
 Leave Link  702 at Wed Mar 15 15:24:41 2017, MaxMem=   134217728 cpu:         0.1
 (Enter /n/sw/g09_D.01/g09/l703.exe)
 Compute integral first derivatives, UseDBF=F ICtDFT=           0.
 Integral derivatives from FoFJK, PRISM(SPDF).
 Calling FoFJK, ICntrl=      2127 FMM=F ISym2X=0 I1Cent= 0 IOpClX= 0 NMat=1 NMatS=1 NMatT=0.
 FoFJK:  IHMeth=41 ICntrl=    2127 DoSepK=F KAlg= 0 I1Cent=   0 FoldK=F
 IRaf=         0 NMat=   1 IRICut=       1 DoRegI=T DoRafI=F ISym2E= 0.
 FoFCou: FMM=F IPFlag=           0 FMFlag=      100000 FMFlg1=         800
         NFxFlg=           0 DoJE=F BraDBF=F KetDBF=F FulRan=T
         wScrn=  0.000000 ICntrl=    2127 IOpCl=  0 I1Cent=           0 NGrid=           0
         NMat0=    1 NMatS0=      1 NMatT0=    0 NMatD0=    1 NMtDS0=    0 NMtDT0=    0
 Symmetry not used in FoFCou.
 Leave Link  703 at Wed Mar 15 15:24:42 2017, MaxMem=   134217728 cpu:         0.1
 (Enter /n/sw/g09_D.01/g09/l716.exe)
 Dipole        =-5.97548632D-04-3.05521745D-02 4.36816352D-04
 ***** Axes restored to original set *****
 -------------------------------------------------------------------
 Center     Atomic                   Forces (Hartrees/Bohr)
 Number     Number              X              Y              Z
 -------------------------------------------------------------------
      1        6           0.006672651    0.000278895    0.001750863
      2        1           0.000660378    0.002869186    0.000679574
      3        1           0.000055114   -0.000082995    0.000009987
      4        1          -0.000054833   -0.000019197   -0.000117469
      5        6           0.005023655   -0.005053256    0.003763631
      6        1           0.002291743    0.001167991   -0.000778277
      7        1          -0.001205106    0.000282630    0.000255139
      8        6           0.000059460   -0.001796074   -0.000085676
      9        1          -0.000475129    0.001351114   -0.000516034
     10        1           0.000460471    0.001525419    0.000484519
     11        6          -0.004494394   -0.004234006   -0.003171546
     12        1          -0.002573481    0.000473778    0.000368941
     13        1           0.001220166    0.000302620   -0.000122326
     14        6          -0.007979715    0.000317829   -0.002061929
     15        1           0.000060125    0.000012969    0.000127712
     16        1          -0.000070643   -0.000097904   -0.000007645
     17        1           0.000349540    0.002701001   -0.000579466
 -------------------------------------------------------------------
 Cartesian Forces:  Max     0.007979715 RMS     0.002307235
 Leave Link  716 at Wed Mar 15 15:24:42 2017, MaxMem=   134217728 cpu:         0.1
 (Enter /n/sw/g09_D.01/g09/l103.exe)

 GradGradGradGradGradGradGradGradGradGradGradGradGradGradGradGradGradGrad
 Berny optimization.
 FormGI is forming the generalized inverse of G from B-inverse, IUseBI=4.
 Internal  Forces:  Max     0.030577676 RMS     0.005410278
 Search for a local minimum.
 Step number   1 out of a maximum of   92
 All quantities printed in internal units (Hartrees-Bohrs-Radians)
 RMS Force = .54103D-02 SwitMx=.10000D-02 MixMth= 1
 Mixed Optimization -- RFO/linear search
 Second derivative matrix not updated -- first step.
 ITU=  0
     Eigenvalues ---    0.00478   0.00478   0.00565   0.00565   0.03804
     Eigenvalues ---    0.03846   0.03846   0.04929   0.04968   0.04968
     Eigenvalues ---    0.05543   0.05543   0.05552   0.05552   0.08017
     Eigenvalues ---    0.08036   0.08036   0.11951   0.11959   0.11959
     Eigenvalues ---    0.16000   0.16000   0.16000   0.16000   0.16000
     Eigenvalues ---    0.16000   0.21791   0.21803   0.21803   0.30200
     Eigenvalues ---    0.30200   0.30836   0.30836   0.32433   0.32434
     Eigenvalues ---    0.32604   0.32604   0.32604   0.32604   0.34059
     Eigenvalues ---    0.34059   0.34059   0.34059   0.34263   0.34263
 RFO step:  Lambda=-1.25022050D-02 EMin= 4.78380260D-03
 Linear search not attempted -- first point.
 Iteration  1 RMS(Cart)=  0.19235979 RMS(Int)=  0.00823409
 Iteration  2 RMS(Cart)=  0.01256378 RMS(Int)=  0.00062530
 Iteration  3 RMS(Cart)=  0.00008627 RMS(Int)=  0.00062359
 Iteration  4 RMS(Cart)=  0.00000001 RMS(Int)=  0.00062359
 ITry= 1 IFail=0 DXMaxC= 6.00D-01 DCOld= 1.00D+10 DXMaxT= 3.00D-01 DXLimC= 3.00D+00 Rises=F
 Variable       Old X    -DE/DX   Delta X   Delta X   Delta X     New X
                                 (Linear)    (Quad)   (Total)
    R1        2.07230   0.00122   0.00000   0.00346   0.00346   2.07576
    R2        2.06888   0.00000   0.00000  -0.00001  -0.00001   2.06888
    R3        2.07231  -0.00009   0.00000  -0.00025  -0.00025   2.07206
    R4        2.86326   0.00376   0.00000   0.01173   0.01173   2.87499
    R5        2.09752   0.00136   0.00000   0.00402   0.00402   2.10155
    R6        2.09752  -0.00116   0.00000  -0.00343  -0.00343   2.09409
    R7        2.87567   0.01069   0.00000   0.03399   0.03399   2.90966
    R8        2.10058  -0.00123   0.00000  -0.00365  -0.00365   2.09693
    R9        2.10058  -0.00131   0.00000  -0.00389  -0.00389   2.09669
   R10        2.87567   0.01075   0.00000   0.03417   0.03417   2.90984
   R11        2.09752   0.00069   0.00000   0.00203   0.00203   2.09955
   R12        2.09753  -0.00118   0.00000  -0.00347  -0.00347   2.09405
   R13        2.86326   0.00374   0.00000   0.01166   0.01166   2.87492
   R14        2.07231  -0.00011   0.00000  -0.00033  -0.00033   2.07198
   R15        2.06888   0.00000   0.00000   0.00000   0.00000   2.06889
   R16        2.07230   0.00190   0.00000   0.00538   0.00538   2.07769
    A1        1.87434  -0.00151   0.00000  -0.01160  -0.01155   1.86279
    A2        1.86720  -0.00047   0.00000   0.00349   0.00339   1.87059
    A3        1.94943   0.00287   0.00000   0.01845   0.01842   1.96785
    A4        1.87434   0.00014   0.00000  -0.00251  -0.00253   1.87181
    A5        1.94478  -0.00082   0.00000  -0.00809  -0.00807   1.93671
    A6        1.94943  -0.00034   0.00000  -0.00045  -0.00052   1.94892
    A7        1.92520  -0.00425   0.00000  -0.00082  -0.00307   1.92213
    A8        1.92520  -0.00536   0.00000  -0.03856  -0.03772   1.88747
    A9        1.92010   0.01487   0.00000   0.07128   0.07058   1.99068
   A10        1.84283   0.00205   0.00000  -0.01303  -0.01319   1.82964
   A11        1.92466  -0.00217   0.00000   0.01714   0.01563   1.94029
   A12        1.92466  -0.00592   0.00000  -0.04036  -0.03930   1.88536
   A13        1.92631  -0.00995   0.00000  -0.03938  -0.04004   1.88627
   A14        1.92629  -0.00888   0.00000  -0.03169  -0.03193   1.89436
   A15        1.91935   0.03058   0.00000   0.14288   0.14290   2.06225
   A16        1.83803   0.00541   0.00000  -0.00936  -0.01154   1.82649
   A17        1.92630  -0.00884   0.00000  -0.03100  -0.03133   1.89497
   A18        1.92630  -0.01000   0.00000  -0.04026  -0.04084   1.88546
   A19        1.92466  -0.00231   0.00000   0.01616   0.01451   1.93917
   A20        1.92466  -0.00578   0.00000  -0.03964  -0.03858   1.88609
   A21        1.92010   0.01477   0.00000   0.07129   0.07054   1.99064
   A22        1.84283   0.00190   0.00000  -0.01510  -0.01524   1.82759
   A23        1.92519  -0.00396   0.00000   0.00182  -0.00044   1.92476
   A24        1.92521  -0.00541   0.00000  -0.03894  -0.03808   1.88713
   A25        1.94943  -0.00028   0.00000  -0.00073  -0.00077   1.94867
   A26        1.94478  -0.00066   0.00000  -0.00617  -0.00616   1.93862
   A27        1.94943   0.00227   0.00000   0.01463   0.01462   1.96405
   A28        1.87434   0.00012   0.00000  -0.00200  -0.00201   1.87232
   A29        1.86720  -0.00043   0.00000   0.00187   0.00182   1.86902
   A30        1.87434  -0.00111   0.00000  -0.00816  -0.00813   1.86621
    D1        1.08182   0.00149   0.00000   0.00226   0.00225   1.08407
    D2        3.11089  -0.00172   0.00000  -0.03708  -0.03686   3.07403
    D3       -1.04524  -0.00283   0.00000  -0.06588  -0.06621  -1.11144
    D4       -1.01454   0.00202   0.00000   0.01000   0.01004  -1.00450
    D5        1.01453  -0.00119   0.00000  -0.02934  -0.02906   0.98546
    D6        3.14158  -0.00230   0.00000  -0.05815  -0.05841   3.08317
    D7       -3.11091   0.00264   0.00000   0.01906   0.01911  -3.09180
    D8       -1.08184  -0.00058   0.00000  -0.02028  -0.02000  -1.10184
    D9        1.04522  -0.00168   0.00000  -0.04908  -0.04935   0.99587
   D10       -1.07220  -0.00040   0.00000   0.04253   0.04356  -1.02864
   D11       -3.09671   0.00418   0.00000   0.09618   0.09658  -3.00013
   D12        1.05715   0.00226   0.00000   0.07263   0.07304   1.13019
   D13        3.08361  -0.00348   0.00000  -0.01491  -0.01499   3.06862
   D14        1.05909   0.00110   0.00000   0.03875   0.03804   1.09713
   D15       -1.07023  -0.00082   0.00000   0.01520   0.01450  -1.05573
   D16        1.05518  -0.00118   0.00000   0.01478   0.01507   1.07025
   D17       -0.96934   0.00340   0.00000   0.06843   0.06810  -0.90124
   D18       -3.09866   0.00148   0.00000   0.04488   0.04456  -3.05410
   D19       -1.11508  -0.00098   0.00000   0.01396   0.01327  -1.10181
   D20        3.13968   0.00151   0.00000   0.04632   0.04597  -3.09754
   D21        1.01229   0.00232   0.00000   0.07406   0.07442   1.08671
   D22        1.01427   0.00102   0.00000   0.03908   0.03841   1.05268
   D23       -1.01416   0.00351   0.00000   0.07144   0.07111  -0.94305
   D24       -3.14155   0.00432   0.00000   0.09917   0.09956  -3.04199
   D25        3.03879  -0.00356   0.00000  -0.01468  -0.01472   3.02407
   D26        1.01036  -0.00108   0.00000   0.01768   0.01798   1.02834
   D27       -1.11703  -0.00027   0.00000   0.04541   0.04643  -1.07060
   D28        1.04523  -0.00166   0.00000  -0.04406  -0.04438   1.00085
   D29       -3.14159  -0.00216   0.00000  -0.05134  -0.05166   3.08993
   D30       -1.04522  -0.00247   0.00000  -0.05598  -0.05633  -1.10156
   D31       -3.11091   0.00262   0.00000   0.02460   0.02469  -3.08621
   D32       -1.01454   0.00212   0.00000   0.01732   0.01741  -0.99713
   D33        1.08182   0.00181   0.00000   0.01268   0.01274   1.09456
   D34       -1.08184  -0.00064   0.00000  -0.01593  -0.01567  -1.09750
   D35        1.01453  -0.00113   0.00000  -0.02321  -0.02295   0.99158
   D36        3.11090  -0.00145   0.00000  -0.02785  -0.02762   3.08327
         Item               Value     Threshold  Converged?
 Maximum Force            0.030578     0.000450     NO 
 RMS     Force            0.005410     0.000300     NO 
 Maximum Displacement     0.599585     0.001800     NO 
 RMS     Displacement     0.192059     0.001200     NO 
 Predicted change in Energy=-7.047765D-03
 Lowest energy point so far.  Saving SCF results.
 GradGradGradGradGradGradGradGradGradGradGradGradGradGradGradGradGradGrad

 Leave Link  103 at Wed Mar 15 15:24:42 2017, MaxMem=   134217728 cpu:         0.0
 (Enter /n/sw/g09_D.01/g09/l202.exe)
                          Input orientation:                          
 ---------------------------------------------------------------------
 Center     Atomic      Atomic             Coordinates (Angstroms)
 Number     Number       Type             X           Y           Z
 ---------------------------------------------------------------------
      1          6           0        1.466726    1.384489    1.353966
      2          1           0        0.709956    2.176449    1.435717
      3          1           0        2.443700    1.877311    1.389134
      4          1           0        1.383543    0.763016    2.253483
      5          6           0        1.319101    0.558419    0.084947
      6          1           0        1.458635    1.203561   -0.810076
      7          1           0        2.156504   -0.166282    0.045562
      8          6           0        0.000533   -0.232152    0.000460
      9          1           0       -0.050221   -0.911627    0.876278
     10          1           0        0.050644   -0.908983   -0.877275
     11          6           0       -1.317431    0.559719   -0.082984
     12          1           0       -1.478223    1.166666    0.833616
     13          1           0       -2.154610   -0.166243   -0.090275
     14          6           0       -1.438258    1.433897   -1.322213
     15          1           0       -1.338797    0.846653   -2.242780
     16          1           0       -2.412027    1.932953   -1.358527
     17          1           0       -0.672920    2.222451   -1.357790
 ---------------------------------------------------------------------
                    Distance matrix (angstroms):
                    1          2          3          4          5
     1  C    0.000000
     2  H    1.098446   0.000000
     3  H    1.094802   1.759978   0.000000
     4  H    1.096485   1.766424   1.764281   0.000000
     5  C    1.521378   2.194005   2.169125   2.179119   0.000000
     6  H    2.171607   2.559418   2.502163   3.095983   1.112090
     7  H    2.143036   3.084384   2.462507   2.517137   1.108146
     8  C    2.568117   2.892162   3.513874   2.824745   1.539728
     9  H    2.793110   3.229096   3.776353   2.599385   2.159232
    10  H    3.499105   3.912099   4.315873   3.791285   2.165207
    11  C    3.239845   3.005090   4.248446   3.577103   2.641874
    12  H    2.998489   2.484012   4.024314   3.220040   2.958968
    13  H    4.195793   4.002824   5.244924   4.344566   3.552817
    14  C    3.950101   3.573847   4.755798   4.604154   3.217077
    15  H    4.593125   4.415551   5.344187   5.256853   3.544829
    16  H    4.764782   4.196888   5.579500   5.368586   4.230163
    17  H    3.554418   3.117394   4.168697   4.404575   2.969620
                    6          7          8          9         10
     6  H    0.000000
     7  H    1.759435   0.000000
     8  C    2.200978   2.157449   0.000000
     9  H    3.097493   2.472906   1.109648   0.000000
    10  H    2.539646   2.416170   1.109519   1.756453   0.000000
    11  C    2.941044   3.551313   1.539821   2.165840   2.158614
    12  H    3.365743   3.950826   2.199445   2.521966   3.094011
    13  H    3.930652   4.313254   2.158060   2.432751   2.456457
    14  C    2.950818   4.165777   2.568132   3.501642   2.811385
    15  H    3.163171   4.298799   2.826615   3.805325   2.622482
    16  H    3.976787   5.220128   3.514964   4.320199   3.791168
    17  H    2.425213   3.959935   2.885041   3.898880   3.249665
                   11         12         13         14         15
    11  C    0.000000
    12  H    1.111033   0.000000
    13  H    1.108126   1.757191   0.000000
    14  C    1.521340   2.172696   2.142727   0.000000
    15  H    2.178877   3.096136   2.514912   1.096445   0.000000
    16  H    2.170466   2.502934   2.466040   1.094807   1.764589
    17  H    2.192078   2.562315   3.083482   1.099466   1.766188
                   16         17
    16  H    0.000000
    17  H    1.763038   0.000000
 Stoichiometry    C5H12
 Framework group  C1[X(C5H12)]
 Deg. of freedom    45
 Full point group                 C1      NOp   1
 RotChk:  IX=0 Diff= 8.77D-03
 Largest Abelian subgroup         C1      NOp   1
 Largest concise Abelian subgroup C1      NOp   1
                         Standard orientation:                         
 ---------------------------------------------------------------------
 Center     Atomic      Atomic             Coordinates (Angstroms)
 Number     Number       Type             X           Y           Z
 ---------------------------------------------------------------------
      1          6           0        1.950912   -0.628190   -0.353201
      2          1           0        1.351541   -1.407844   -0.842566
      3          1           0        2.787568   -1.135594    0.137857
      4          1           0        2.372515    0.001388   -1.145768
      5          6           0        1.147999    0.190246    0.646843
      6          1           0        0.776028   -0.463823    1.465730
      7          1           0        1.837522    0.901746    1.143143
      8          6           0       -0.000108    1.000194    0.017085
      9          1           0        0.436473    1.687087   -0.737166
     10          1           0       -0.426476    1.669405    0.792584
     11          6           0       -1.160900    0.227931   -0.636537
     12          1           0       -0.806035   -0.369415   -1.503511
     13          1           0       -1.862852    0.966519   -1.072076
     14          6           0       -1.939947   -0.653813    0.327874
     15          1           0       -2.348726   -0.075260    1.164754
     16          1           0       -2.783148   -1.138200   -0.175101
     17          1           0       -1.322150   -1.454217    0.759736
 ---------------------------------------------------------------------
 Rotational constants (GHZ):      8.1178715      2.7077520      2.5359219
 Leave Link  202 at Wed Mar 15 15:24:42 2017, MaxMem=   134217728 cpu:         0.0
 (Enter /n/sw/g09_D.01/g09/l301.exe)
 Standard basis: VSTO-6G (5D, 7F)
 Ernie: Thresh=  0.10000D-02 Tol=  0.10000D-05 Strict=F.
  NNHCO=     0 NNPyr=     0 NCTC=     0               EPep=         0.000000000
    EC=        92.925946157  ECS=         1.790483756   EG=         0.543377725
   EHC=         0.000000000  EAt=       -26.628120368  AtH=         2.358010633
 EPDDG=         0.004638349  ECC=        95.264445987 EAtT=        28.986131002
 There are    32 symmetry adapted cartesian basis functions of A   symmetry.
 There are    32 symmetry adapted basis functions of A   symmetry.
    32 basis functions,   192 primitive gaussians,    32 cartesian basis functions
    16 alpha electrons       16 beta electrons
       nuclear repulsion energy       124.2505769889 Hartrees.
 IExCor=    0 DFT=F Ex=HF Corr=None ExCW=0 ScaHFX=  1.000000
 ScaDFX=  1.000000  1.000000  1.000000  1.000000 ScalE2=  1.000000  1.000000
 IRadAn=      0 IRanWt=     -1 IRanGd=            0 ICorTp=0 IEmpDi=  4
 Integral buffers will be    131072 words long.
 Regular integral format.
 Two-electron integral symmetry is turned off.
 Leave Link  301 at Wed Mar 15 15:24:42 2017, MaxMem=   134217728 cpu:         0.1
 (Enter /n/sw/g09_D.01/g09/l302.exe)
 Do NDO integrals.
 NPDir=0 NMtPBC=     1 NCelOv=     1 NCel=       1 NClECP=     1 NCelD=      1
         NCelK=      1 NCelE2=     1 NClLst=     1 CellRange=     0.0.
 One-electron integrals computed using PRISM.
 NBasis=    32 RedAO= F EigKep=  0.00D+00  NBF=    32
 NBsUse=    32 1.00D-04 EigRej=  0.00D+00 NBFU=    32
 Leave Link  302 at Wed Mar 15 15:24:42 2017, MaxMem=   134217728 cpu:         0.2
 (Enter /n/sw/g09_D.01/g09/l303.exe)
 DipDrv:  MaxL=1.
 Leave Link  303 at Wed Mar 15 15:24:43 2017, MaxMem=   134217728 cpu:         0.1
 (Enter /n/sw/g09_D.01/g09/l401.exe)
 Initial guess from the checkpoint file:  "/scratch/ekwan_pentane_conformation_3/Gau-21120.chk"
 B after Tr=     0.000000    0.000000    0.000000
         Rot=    0.999995   -0.001501    0.002597    0.000404 Ang=  -0.35 deg.
 Guess basis will be translated and rotated to current coordinates.
 JPrj=0 DoOrth=T DoCkMO=T.
 Leave Link  401 at Wed Mar 15 15:24:43 2017, MaxMem=   134217728 cpu:         0.2
 (Enter /n/sw/g09_D.01/g09/l502.exe)
 Closed shell SCF:
 Using DIIS extrapolation, IDIIS=  1040.
 Overlap will be assumed to be unity.
 Two-electron integral symmetry not used.
 Keep J ints in memory in canonical form, NReq=894650.
 IVT=       80931 IEndB=       80931 NGot=   134217728 MDV=   134134845
 LenX=   134134845 LenY=   134133380
 Requested convergence on RMS density matrix=1.00D-08 within 128 cycles.
 Requested convergence on MAX density matrix=1.00D-06.
 Requested convergence on             energy=1.00D-06.
 No special actions if energy rises.
 FoFCou: FMM=F IPFlag=           0 FMFlag=           0 FMFlg1=           0
         NFxFlg=           0 DoJE=F BraDBF=F KetDBF=F FulRan=T
         wScrn=  0.000000 ICntrl=     600 IOpCl=  2 I1Cent=           0 NGrid=           0
         NMat0=    1 NMatS0=     62 NMatT0=    0 NMatD0=    1 NMtDS0=    0 NMtDT0=    0
 Symmetry not used in FoFCou.

 Cycle   1  Pass 1  IDiag  1:
 E=-0.137005516041029E-01
 DIIS: error= 1.43D-02 at cycle   1 NSaved=   1.
 NSaved= 1 IEnMin= 1 EnMin=-0.137005516041029E-01 IErMin= 1 ErrMin= 1.43D-02
 ErrMax= 1.43D-02  0.00D+00 EMaxC= 1.00D-01 BMatC= 8.03D-03 BMatP= 8.03D-03
 IDIUse=3 WtCom= 8.57D-01 WtEn= 1.43D-01
 Coeff-Com:  0.100D+01
 Coeff-En:   0.100D+01
 Coeff:      0.100D+01
 GapD=    2.000 DampG=2.000 DampE=0.500 DampFc=1.0000 IDamp=-1.
 RMSDP=5.34D-03 MaxDP=3.07D-02              OVMax= 0.00D+00

 Cycle   2  Pass 1  IDiag  3:
 E=-0.435323789821922E-01 Delta-E=       -0.029831827378 Rises=F Damp=F
 DIIS: error= 6.39D-03 at cycle   2 NSaved=   2.
 NSaved= 2 IEnMin= 2 EnMin=-0.435323789821922E-01 IErMin= 2 ErrMin= 6.39D-03
 ErrMax= 6.39D-03  0.00D+00 EMaxC= 1.00D-01 BMatC= 1.29D-03 BMatP= 8.03D-03
 IDIUse=3 WtCom= 9.36D-01 WtEn= 6.39D-02
 Coeff-Com: -0.582D+00 0.158D+01
 Coeff-En:   0.000D+00 0.100D+01
 Coeff:     -0.545D+00 0.154D+01
 Gap=     0.536 Goal=   None    Shift=    0.000
 RMSDP=3.53D-03 MaxDP=2.26D-02 DE=-2.98D-02 OVMax= 2.61D-02

 Cycle   3  Pass 1  IDiag  3:
 E=-0.499875654714685E-01 Delta-E=       -0.006455186489 Rises=F Damp=F
 DIIS: error= 9.59D-04 at cycle   3 NSaved=   3.
 NSaved= 3 IEnMin= 3 EnMin=-0.499875654714685E-01 IErMin= 3 ErrMin= 9.59D-04
 ErrMax= 9.59D-04  0.00D+00 EMaxC= 1.00D-01 BMatC= 3.03D-05 BMatP= 1.29D-03
 IDIUse=3 WtCom= 9.90D-01 WtEn= 9.59D-03
 Coeff-Com:  0.153D+00-0.533D+00 0.138D+01
 Coeff-En:   0.000D+00 0.000D+00 0.100D+01
 Coeff:      0.151D+00-0.527D+00 0.138D+01
 Gap=     0.536 Goal=   None    Shift=    0.000
 RMSDP=6.16D-04 MaxDP=4.21D-03 DE=-6.46D-03 OVMax= 5.04D-03

 Cycle   4  Pass 1  IDiag  3:
 E=-0.501494418501949E-01 Delta-E=       -0.000161876379 Rises=F Damp=F
 DIIS: error= 8.26D-05 at cycle   4 NSaved=   4.
 NSaved= 4 IEnMin= 4 EnMin=-0.501494418501949E-01 IErMin= 4 ErrMin= 8.26D-05
 ErrMax= 8.26D-05  0.00D+00 EMaxC= 1.00D-01 BMatC= 5.27D-07 BMatP= 3.03D-05
 IDIUse=1 WtCom= 1.00D+00 WtEn= 0.00D+00
 Coeff-Com: -0.468D-01 0.169D+00-0.509D+00 0.139D+01
 Coeff:     -0.468D-01 0.169D+00-0.509D+00 0.139D+01
 Gap=     0.536 Goal=   None    Shift=    0.000
 RMSDP=7.35D-05 MaxDP=4.04D-04 DE=-1.62D-04 OVMax= 5.09D-04

 Cycle   5  Pass 1  IDiag  3:
 E=-0.501520569708447E-01 Delta-E=       -0.000002615121 Rises=F Damp=F
 DIIS: error= 2.05D-05 at cycle   5 NSaved=   5.
 NSaved= 5 IEnMin= 5 EnMin=-0.501520569708447E-01 IErMin= 5 ErrMin= 2.05D-05
 ErrMax= 2.05D-05  0.00D+00 EMaxC= 1.00D-01 BMatC= 1.67D-08 BMatP= 5.27D-07
 IDIUse=1 WtCom= 1.00D+00 WtEn= 0.00D+00
 Coeff-Com:  0.161D-01-0.585D-01 0.181D+00-0.579D+00 0.144D+01
 Coeff:      0.161D-01-0.585D-01 0.181D+00-0.579D+00 0.144D+01
 Gap=     0.536 Goal=   None    Shift=    0.000
 RMSDP=1.35D-05 MaxDP=7.44D-05 DE=-2.62D-06 OVMax= 7.73D-05

 Cycle   6  Pass 1  IDiag  3:
 E=-0.501521442270416E-01 Delta-E=       -0.000000087256 Rises=F Damp=F
 DIIS: error= 3.04D-06 at cycle   6 NSaved=   6.
 NSaved= 6 IEnMin= 6 EnMin=-0.501521442270416E-01 IErMin= 6 ErrMin= 3.04D-06
 ErrMax= 3.04D-06  0.00D+00 EMaxC= 1.00D-01 BMatC= 5.48D-10 BMatP= 1.67D-08
 IDIUse=1 WtCom= 1.00D+00 WtEn= 0.00D+00
 Coeff-Com: -0.499D-02 0.181D-01-0.563D-01 0.186D+00-0.567D+00 0.142D+01
 Coeff:     -0.499D-02 0.181D-01-0.563D-01 0.186D+00-0.567D+00 0.142D+01
 Gap=     0.536 Goal=   None    Shift=    0.000
 RMSDP=2.55D-06 MaxDP=1.92D-05 DE=-8.73D-08 OVMax= 1.38D-05

 Cycle   7  Pass 1  IDiag  3:
 E=-0.501521472295394E-01 Delta-E=       -0.000000003002 Rises=F Damp=F
 DIIS: error= 7.62D-07 at cycle   7 NSaved=   7.
 NSaved= 7 IEnMin= 7 EnMin=-0.501521472295394E-01 IErMin= 7 ErrMin= 7.62D-07
 ErrMax= 7.62D-07  0.00D+00 EMaxC= 1.00D-01 BMatC= 2.17D-11 BMatP= 5.48D-10
 IDIUse=1 WtCom= 1.00D+00 WtEn= 0.00D+00
 Coeff-Com:  0.906D-03-0.328D-02 0.102D-01-0.349D-01 0.118D+00-0.431D+00
 Coeff-Com:  0.134D+01
 Coeff:      0.906D-03-0.328D-02 0.102D-01-0.349D-01 0.118D+00-0.431D+00
 Coeff:      0.134D+01
 Gap=     0.536 Goal=   None    Shift=    0.000
 RMSDP=4.91D-07 MaxDP=5.25D-06 DE=-3.00D-09 OVMax= 2.64D-06

 Cycle   8  Pass 1  IDiag  3:
 E=-0.501521473512412E-01 Delta-E=       -0.000000000122 Rises=F Damp=F
 DIIS: error= 2.17D-07 at cycle   8 NSaved=   8.
 NSaved= 8 IEnMin= 8 EnMin=-0.501521473512412E-01 IErMin= 8 ErrMin= 2.17D-07
 ErrMax= 2.17D-07  0.00D+00 EMaxC= 1.00D-01 BMatC= 1.75D-12 BMatP= 2.17D-11
 IDIUse=1 WtCom= 1.00D+00 WtEn= 0.00D+00
 Coeff-Com: -0.172D-03 0.617D-03-0.194D-02 0.706D-02-0.272D-01 0.131D+00
 Coeff-Com: -0.642D+00 0.153D+01
 Coeff:     -0.172D-03 0.617D-03-0.194D-02 0.706D-02-0.272D-01 0.131D+00
 Coeff:     -0.642D+00 0.153D+01
 Gap=     0.536 Goal=   None    Shift=    0.000
 RMSDP=1.57D-07 MaxDP=1.68D-06 DE=-1.22D-10 OVMax= 9.68D-07

 Cycle   9  Pass 1  IDiag  3:
 E=-0.501521473622120E-01 Delta-E=       -0.000000000011 Rises=F Damp=F
 DIIS: error= 4.03D-08 at cycle   9 NSaved=   9.
 NSaved= 9 IEnMin= 9 EnMin=-0.501521473622120E-01 IErMin= 9 ErrMin= 4.03D-08
 ErrMax= 4.03D-08  0.00D+00 EMaxC= 1.00D-01 BMatC= 1.13D-13 BMatP= 1.75D-12
 IDIUse=1 WtCom= 1.00D+00 WtEn= 0.00D+00
 Coeff-Com:  0.265D-04-0.936D-04 0.302D-03-0.127D-02 0.595D-02-0.369D-01
 Coeff-Com:  0.233D+00-0.766D+00 0.157D+01
 Coeff:      0.265D-04-0.936D-04 0.302D-03-0.127D-02 0.595D-02-0.369D-01
 Coeff:      0.233D+00-0.766D+00 0.157D+01
 Gap=     0.536 Goal=   None    Shift=    0.000
 RMSDP=4.37D-08 MaxDP=4.00D-07 DE=-1.10D-11 OVMax= 3.01D-07

 Cycle  10  Pass 1  IDiag  3:
 E=-0.501521473628230E-01 Delta-E=       -0.000000000001 Rises=F Damp=F
 DIIS: error= 9.25D-09 at cycle  10 NSaved=  10.
 NSaved=10 IEnMin=10 EnMin=-0.501521473628230E-01 IErMin=10 ErrMin= 9.25D-09
 ErrMax= 9.25D-09  0.00D+00 EMaxC= 1.00D-01 BMatC= 6.01D-15 BMatP= 1.13D-13
 IDIUse=1 WtCom= 1.00D+00 WtEn= 0.00D+00
 Coeff-Com: -0.332D-05 0.111D-04-0.392D-04 0.235D-03-0.147D-02 0.113D-01
 Coeff-Com: -0.816D-01 0.300D+00-0.788D+00 0.156D+01
 Coeff:     -0.332D-05 0.111D-04-0.392D-04 0.235D-03-0.147D-02 0.113D-01
 Coeff:     -0.816D-01 0.300D+00-0.788D+00 0.156D+01
 Gap=     0.536 Goal=   None    Shift=    0.000
 RMSDP=1.00D-08 MaxDP=9.01D-08 DE=-6.11D-13 OVMax= 6.15D-08

 Cycle  11  Pass 1  IDiag  3:
 E=-0.501521473630504E-01 Delta-E=        0.000000000000 Rises=F Damp=F
 DIIS: error= 1.99D-09 at cycle  11 NSaved=  11.
 NSaved=11 IEnMin=11 EnMin=-0.501521473630504E-01 IErMin=11 ErrMin= 1.99D-09
 ErrMax= 1.99D-09  0.00D+00 EMaxC= 1.00D-01 BMatC= 3.24D-16 BMatP= 6.01D-15
 IDIUse=1 WtCom= 1.00D+00 WtEn= 0.00D+00
 Coeff-Com:  0.395D-06-0.997D-06 0.524D-05-0.633D-04 0.505D-03-0.440D-02
 Coeff-Com:  0.340D-01-0.130D+00 0.363D+00-0.875D+00 0.161D+01
 Coeff:      0.395D-06-0.997D-06 0.524D-05-0.633D-04 0.505D-03-0.440D-02
 Coeff:      0.340D-01-0.130D+00 0.363D+00-0.875D+00 0.161D+01
 Gap=     0.536 Goal=   None    Shift=    0.000
 RMSDP=2.34D-09 MaxDP=1.74D-08 DE=-2.27D-13 OVMax= 1.34D-08

 Cycle  12  Pass 2  IDiag  1:
 SCF Done:  E(RPDDG) = -0.501521473631E-01 A.U. after   12 cycles
            NFock= 11  Conv=0.23D-08     -V/T= 0.9976
 KE=-2.059992784855D+01 PE=-2.067175950265D+02 EE= 1.030167937388D+02
 Leave Link  502 at Wed Mar 15 15:24:43 2017, MaxMem=   134217728 cpu:         0.1
 (Enter /n/sw/g09_D.01/g09/l701.exe)
 Compute integral first derivatives.
 ... and contract with generalized density number  0.
 Leave Link  701 at Wed Mar 15 15:24:43 2017, MaxMem=   134217728 cpu:         0.1
 (Enter /n/sw/g09_D.01/g09/l702.exe)
 L702 exits ... SP integral derivatives will be done elsewhere.
 Leave Link  702 at Wed Mar 15 15:24:43 2017, MaxMem=   134217728 cpu:         0.1
 (Enter /n/sw/g09_D.01/g09/l703.exe)
 Compute integral first derivatives, UseDBF=F ICtDFT=           0.
 Integral derivatives from FoFJK, PRISM(SPDF).
 Calling FoFJK, ICntrl=      2127 FMM=F ISym2X=0 I1Cent= 0 IOpClX= 0 NMat=1 NMatS=1 NMatT=0.
 FoFJK:  IHMeth=41 ICntrl=    2127 DoSepK=F KAlg= 0 I1Cent=   0 FoldK=F
 IRaf=         0 NMat=   1 IRICut=       1 DoRegI=T DoRafI=F ISym2E= 0.
 FoFCou: FMM=F IPFlag=           0 FMFlag=      100000 FMFlg1=         800
         NFxFlg=           0 DoJE=F BraDBF=F KetDBF=F FulRan=T
         wScrn=  0.000000 ICntrl=    2127 IOpCl=  0 I1Cent=           0 NGrid=           0
         NMat0=    1 NMatS0=      1 NMatT0=    0 NMatD0=    1 NMtDS0=    0 NMtDT0=    0
 Symmetry not used in FoFCou.
 Leave Link  703 at Wed Mar 15 15:24:43 2017, MaxMem=   134217728 cpu:         0.1
 (Enter /n/sw/g09_D.01/g09/l716.exe)
 Dipole        = 7.45712799D-04 1.24634835D-02 1.50019282D-03
 ***** Axes restored to original set *****
 -------------------------------------------------------------------
 Center     Atomic                   Forces (Hartrees/Bohr)
 Number     Number              X              Y              Z
 -------------------------------------------------------------------
      1        6          -0.005601638   -0.003185642   -0.003727616
      2        1          -0.001083841   -0.002419324   -0.001206647
      3        1           0.000286395   -0.000162542   -0.000246896
      4        1          -0.000722837    0.000033651   -0.000503083
      5        6          -0.011078680    0.001344318   -0.001137659
      6        1          -0.003921075    0.000324733    0.001445906
      7        1          -0.000045846   -0.001027174   -0.000737539
      8        6           0.000085113    0.007884392    0.000052431
      9        1          -0.001122338    0.001158357    0.001263738
     10        1           0.001096179    0.001141408   -0.001360054
     11        6           0.010936880    0.000912797    0.000874436
     12        1           0.004028370    0.000968966   -0.001060914
     13        1           0.000086155   -0.001189977    0.000749069
     14        6           0.006313871   -0.003107407    0.003825215
     15        1           0.000570834    0.000019587    0.000485761
     16        1          -0.000147047   -0.000154600    0.000317306
     17        1           0.000319503   -0.002541544    0.000966546
 -------------------------------------------------------------------
 Cartesian Forces:  Max     0.011078680 RMS     0.003113651
 Leave Link  716 at Wed Mar 15 15:24:43 2017, MaxMem=   134217728 cpu:         0.1
 (Enter /n/sw/g09_D.01/g09/l103.exe)

 GradGradGradGradGradGradGradGradGradGradGradGradGradGradGradGradGradGrad
 Berny optimization.
 Using GEDIIS/GDIIS optimizer.
 FormGI is forming the generalized inverse of G from B-inverse, IUseBI=4.
 Internal  Forces:  Max     0.024913002 RMS     0.005639285
 Search for a local minimum.
 Step number   2 out of a maximum of   92
 All quantities printed in internal units (Hartrees-Bohrs-Radians)
 RMS Force = .56393D-02 SwitMx=.10000D-02 MixMth= 1
 Mixed Optimization -- RFO/linear search
 Update second derivatives using D2CorX and points    1    2
 DE= -1.16D-03 DEPred=-7.05D-03 R= 1.65D-01
 Trust test= 1.65D-01 RLast= 3.49D-01 DXMaxT set to 3.00D-01
 ITU=  0  0
 Use linear search instead of GDIIS.
     Eigenvalues ---    0.00478   0.00484   0.00565   0.00573   0.03093
     Eigenvalues ---    0.03436   0.03666   0.04839   0.04902   0.05194
     Eigenvalues ---    0.05441   0.05497   0.05592   0.05609   0.08710
     Eigenvalues ---    0.08733   0.09358   0.12474   0.12478   0.12909
     Eigenvalues ---    0.15994   0.16000   0.16000   0.16000   0.16000
     Eigenvalues ---    0.16051   0.21862   0.21874   0.24843   0.30200
     Eigenvalues ---    0.30753   0.30836   0.32424   0.32433   0.32592
     Eigenvalues ---    0.32603   0.32604   0.32604   0.34041   0.34058
     Eigenvalues ---    0.34059   0.34059   0.34263   0.34263   0.48456
 RFO step:  Lambda=-1.67388281D-03 EMin= 4.78299270D-03
 Quartic linear search produced a step of -0.44284.
 Iteration  1 RMS(Cart)=  0.09395055 RMS(Int)=  0.00338074
 Iteration  2 RMS(Cart)=  0.00456500 RMS(Int)=  0.00019163
 Iteration  3 RMS(Cart)=  0.00001034 RMS(Int)=  0.00019158
 Iteration  4 RMS(Cart)=  0.00000000 RMS(Int)=  0.00019158
 ITry= 1 IFail=0 DXMaxC= 2.43D-01 DCOld= 1.00D+10 DXMaxT= 3.00D-01 DXLimC= 3.00D+00 Rises=F
 Variable       Old X    -DE/DX   Delta X   Delta X   Delta X     New X
                                 (Linear)    (Quad)   (Total)
    R1        2.07576  -0.00109  -0.00153  -0.00007  -0.00161   2.07416
    R2        2.06888   0.00017   0.00000   0.00027   0.00028   2.06915
    R3        2.07206  -0.00038   0.00011  -0.00073  -0.00062   2.07144
    R4        2.87499  -0.00855  -0.00519  -0.00947  -0.01467   2.86032
    R5        2.10155  -0.00147  -0.00178  -0.00051  -0.00229   2.09925
    R6        2.09409   0.00066   0.00152  -0.00055   0.00097   2.09506
    R7        2.90966  -0.02193  -0.01505  -0.02321  -0.03826   2.87140
    R8        2.09693   0.00034   0.00162  -0.00120   0.00042   2.09735
    R9        2.09669   0.00043   0.00172  -0.00117   0.00056   2.09724
   R10        2.90984  -0.02188  -0.01513  -0.02302  -0.03815   2.87169
   R11        2.09955  -0.00093  -0.00090  -0.00058  -0.00147   2.09807
   R12        2.09405   0.00071   0.00154  -0.00049   0.00104   2.09510
   R13        2.87492  -0.00844  -0.00516  -0.00932  -0.01448   2.86043
   R14        2.07198  -0.00037   0.00014  -0.00075  -0.00060   2.07138
   R15        2.06889   0.00005   0.00000   0.00008   0.00008   2.06897
   R16        2.07769  -0.00163  -0.00238  -0.00002  -0.00240   2.07529
    A1        1.86279   0.00179   0.00512   0.00146   0.00656   1.86935
    A2        1.87059   0.00077  -0.00150   0.00056  -0.00094   1.86965
    A3        1.96785  -0.00314  -0.00816  -0.00257  -0.01073   1.95712
    A4        1.87181   0.00043   0.00112   0.00268   0.00381   1.87562
    A5        1.93671   0.00048   0.00357  -0.00046   0.00311   1.93982
    A6        1.94892  -0.00008   0.00023  -0.00128  -0.00104   1.94787
    A7        1.92213   0.00443   0.00136   0.00510   0.00710   1.92923
    A8        1.88747   0.00495   0.01671  -0.00154   0.01481   1.90229
    A9        1.99068  -0.01346  -0.03125  -0.00234  -0.03339   1.95729
   A10        1.82964  -0.00111   0.00584   0.00416   0.00996   1.83961
   A11        1.94029   0.00228  -0.00692   0.00336  -0.00305   1.93724
   A12        1.88536   0.00406   0.01740  -0.00868   0.00841   1.89377
   A13        1.88627   0.00814   0.01773  -0.00201   0.01578   1.90205
   A14        1.89436   0.00674   0.01414  -0.00272   0.01146   1.90582
   A15        2.06225  -0.02491  -0.06328   0.00319  -0.06020   2.00205
   A16        1.82649  -0.00258   0.00511   0.00734   0.01303   1.83953
   A17        1.89497   0.00664   0.01388  -0.00385   0.01004   1.90501
   A18        1.88546   0.00820   0.01808  -0.00123   0.01696   1.90242
   A19        1.93917   0.00222  -0.00643   0.00301  -0.00284   1.93633
   A20        1.88609   0.00380   0.01708  -0.00930   0.00746   1.89355
   A21        1.99064  -0.01292  -0.03124  -0.00101  -0.03201   1.95863
   A22        1.82759  -0.00094   0.00675   0.00350   0.01022   1.83781
   A23        1.92476   0.00413   0.00019   0.00565   0.00651   1.93127
   A24        1.88713   0.00485   0.01686  -0.00202   0.01447   1.90160
   A25        1.94867  -0.00007   0.00034  -0.00117  -0.00083   1.94784
   A26        1.93862   0.00026   0.00273  -0.00061   0.00212   1.94074
   A27        1.96405  -0.00256  -0.00647  -0.00235  -0.00883   1.95522
   A28        1.87232   0.00044   0.00089   0.00258   0.00348   1.87580
   A29        1.86902   0.00065  -0.00080   0.00005  -0.00076   1.86826
   A30        1.86621   0.00149   0.00360   0.00185   0.00545   1.87166
    D1        1.08407  -0.00173  -0.00100  -0.03090  -0.03195   1.05212
    D2        3.07403   0.00198   0.01632  -0.02416  -0.00787   3.06617
    D3       -1.11144   0.00202   0.02932  -0.03775  -0.00833  -1.11977
    D4       -1.00450  -0.00221  -0.00445  -0.03070  -0.03521  -1.03971
    D5        0.98546   0.00149   0.01287  -0.02395  -0.01113   0.97434
    D6        3.08317   0.00154   0.02587  -0.03755  -0.01159   3.07159
    D7       -3.09180  -0.00303  -0.00846  -0.03293  -0.04145  -3.13325
    D8       -1.10184   0.00068   0.00886  -0.02619  -0.01737  -1.11921
    D9        0.99587   0.00073   0.02185  -0.03978  -0.01783   0.97804
   D10       -1.02864   0.00139  -0.01929   0.10190   0.08229  -0.94634
   D11       -3.00013  -0.00304  -0.04277   0.09571   0.05281  -2.94732
   D12        1.13019  -0.00124  -0.03235   0.09733   0.06482   1.19501
   D13        3.06862   0.00417   0.00664   0.09411   0.10078  -3.11379
   D14        1.09713  -0.00026  -0.01685   0.08792   0.07129   1.16842
   D15       -1.05573   0.00154  -0.00642   0.08954   0.08330  -0.97243
   D16        1.07025   0.00195  -0.00667   0.09232   0.08560   1.15585
   D17       -0.90124  -0.00248  -0.03016   0.08613   0.05611  -0.84513
   D18       -3.05410  -0.00067  -0.01973   0.08775   0.06812  -2.98598
   D19       -1.10181   0.00180  -0.00588   0.10143   0.09572  -1.00609
   D20       -3.09754  -0.00043  -0.02036   0.10095   0.08069  -3.01685
   D21        1.08671  -0.00102  -0.03296   0.11073   0.07760   1.16431
   D22        1.05268  -0.00021  -0.01701   0.09778   0.08098   1.13366
   D23       -0.94305  -0.00244  -0.03149   0.09730   0.06596  -0.87709
   D24       -3.04199  -0.00302  -0.04409   0.10708   0.06287  -2.97912
   D25        3.02407   0.00420   0.00652   0.10380   0.11034   3.13440
   D26        1.02834   0.00197  -0.00796   0.10332   0.09531   1.12365
   D27       -1.07060   0.00139  -0.02056   0.11310   0.09222  -0.97838
   D28        1.00085   0.00081   0.01965  -0.02896  -0.00918   0.99166
   D29        3.08993   0.00149   0.02288  -0.02688  -0.00389   3.08605
   D30       -1.10156   0.00183   0.02495  -0.02653  -0.00147  -1.10303
   D31       -3.08621  -0.00289  -0.01094  -0.02108  -0.03210  -3.11831
   D32       -0.99713  -0.00220  -0.00771  -0.01900  -0.02680  -1.02393
   D33        1.09456  -0.00187  -0.00564  -0.01866  -0.02438   1.07019
   D34       -1.09750   0.00082   0.00694  -0.01509  -0.00819  -1.10569
   D35        0.99158   0.00150   0.01016  -0.01301  -0.00289   0.98869
   D36        3.08327   0.00184   0.01223  -0.01266  -0.00047   3.08280
         Item               Value     Threshold  Converged?
 Maximum Force            0.024913     0.000450     NO 
 RMS     Force            0.005639     0.000300     NO 
 Maximum Displacement     0.243446     0.001800     NO 
 RMS     Displacement     0.093425     0.001200     NO 
 Predicted change in Energy=-3.139899D-03
 Lowest energy point so far.  Saving SCF results.
 GradGradGradGradGradGradGradGradGradGradGradGradGradGradGradGradGradGrad

 Leave Link  103 at Wed Mar 15 15:24:43 2017, MaxMem=   134217728 cpu:         0.0
 (Enter /n/sw/g09_D.01/g09/l202.exe)
                          Input orientation:                          
 ---------------------------------------------------------------------
 Center     Atomic      Atomic             Coordinates (Angstroms)
 Number     Number       Type             X           Y           Z
 ---------------------------------------------------------------------
      1          6           0        1.425269    1.336754    1.375512
      2          1           0        0.635764    2.085433    1.520009
      3          1           0        2.383241    1.864172    1.430575
      4          1           0        1.378497    0.649688    2.228341
      5          6           0        1.281079    0.602544    0.059767
      6          1           0        1.339545    1.313587   -0.791729
      7          1           0        2.144058   -0.081585   -0.068129
      8          6           0        0.002887   -0.216750   -0.001879
      9          1           0       -0.034931   -0.893332    0.877106
     10          1           0        0.040322   -0.885300   -0.886935
     11          6           0       -1.275351    0.603353   -0.055032
     12          1           0       -1.349397    1.280153    0.821963
     13          1           0       -2.139264   -0.085830    0.033556
     14          6           0       -1.400534    1.385365   -1.344994
     15          1           0       -1.353051    0.728610   -2.221298
     16          1           0       -2.351969    1.925226   -1.389896
     17          1           0       -0.599310    2.128209   -1.455693
 ---------------------------------------------------------------------
                    Distance matrix (angstroms):
                    1          2          3          4          5
     1  C    0.000000
     2  H    1.097597   0.000000
     3  H    1.094949   1.763699   0.000000
     4  H    1.096158   1.764865   1.766610   0.000000
     5  C    1.513618   2.178921   2.164620   2.171272   0.000000
     6  H    2.169060   2.536768   2.516164   3.092426   1.110877
     7  H    2.147660   3.081088   2.467649   2.528758   1.108658
     8  C    2.516694   2.831382   3.471058   2.759873   1.519480
     9  H    2.711803   3.120288   3.709139   2.490889   2.153502
    10  H    3.460386   3.869520   4.291820   3.721807   2.156248
    11  C    3.142877   2.886118   4.145116   3.501264   2.559006
    12  H    2.829910   2.253133   3.826758   3.133176   2.821259
    13  H    4.065770   3.824226   5.119299   4.211023   3.489025
    14  C    3.922841   3.583971   4.716990   4.586170   3.126854
    15  H    4.585406   4.449015   5.346547   5.221769   3.486803
    16  H    4.718189   4.173699   5.511897   5.351169   4.129171
    17  H    3.569460   3.222118   4.158830   4.435070   2.856595
                    6          7          8          9         10
     6  H    0.000000
     7  H    1.765600   0.000000
     8  C    2.180011   2.146455   0.000000
     9  H    3.089448   2.510058   1.109868   0.000000
    10  H    2.555807   2.396269   1.109813   1.765664   0.000000
    11  C    2.807995   3.487358   1.519633   2.155827   2.153867
    12  H    3.136165   3.853676   2.179015   2.540649   3.088825
    13  H    3.839476   4.284530   2.146440   2.406627   2.497408
    14  C    2.796300   4.043076   2.517999   3.463388   2.727966
    15  H    3.104182   4.185968   2.767327   3.737412   2.515297
    16  H    3.789352   5.097904   3.472751   4.295606   3.724927
    17  H    2.205361   3.786105   2.824012   3.858780   3.132706
                   11         12         13         14         15
    11  C    0.000000
    12  H    1.110253   0.000000
    13  H    1.108678   1.763912   0.000000
[...]
 ! D35   D(13,11,14,16)         53.1748         -DE/DX =    0.0                 !
 ! D36   D(13,11,14,17)        173.031          -DE/DX =    0.0                 !
 --------------------------------------------------------------------------------
 GradGradGradGradGradGradGradGradGradGradGradGradGradGradGradGradGradGrad

 Leave Link  103 at Wed Mar 15 15:25:00 2017, MaxMem=   134217728 cpu:         0.0
 (Enter /n/sw/g09_D.01/g09/l9999.exe)
 1\1\GINC-HOLY2A17307\Freq\RPDDG\ZDO\C5H12\ROOT\15-Mar-2017\0\\#P Geom=
 AllCheck Guess=TCheck SCRF=Check GenChk RPDDG/ZDO Freq\\pentane confor
 mation 3\\0,1\C,1.4667306593,1.2560620021,1.4617285278\H,0.6910441365,
 1.9890729149,1.7134834781\H,2.4306979248,1.768989227,1.5440117447\H,1.
 4401346411,0.482854598,2.2391726063\C,1.2749932267,0.6685713544,0.0770
 155812\H,1.2726557114,1.4789527277,-0.6813366705\H,2.1488294185,0.0338
 484007,-0.1754755676\C,0.0047294161,-0.1674693787,-0.0064041545\H,-0.0
 476014863,-0.8551248722,0.8652051351\H,0.0533405014,-0.830087321,-0.89
 73817824\C,-1.2609882343,0.6775360604,-0.0656296941\H,-1.2545157804,1.
 4650772686,0.7164033152\H,-2.1383972489,0.0404163581,0.1678120844\C,-1
 .4490145549,1.3064407455,-1.4325325081\H,-1.4264551019,0.5561580029,-2
 .2322610724\H,-2.4101219703,1.8268446666,-1.4998810879\H,-0.6692057689
 ,2.0421547849,-1.6626873152\\Version=EM64L-G09RevD.01\State=1-A\HF=-0.
 0541711\RMSD=6.914e-10\RMSF=2.064e-05\ZeroPoint=0.1550619\Thermal=0.16
 17571\Dipole=0.0000001,0.0064287,0.0001014\DipoleDeriv=-0.2219638,-0.0
 267112,-0.0309137,-0.0148653,-0.1893227,-0.0096781,-0.0164236,-0.00456
 12,-0.1562882,0.0643644,0.0065323,-0.0016296,0.0253776,0.0561744,0.000
 4893,0.0181724,-0.0169375,0.0483971,0.0501233,-0.0087652,0.0050973,-0.
 0167019,0.0601444,-0.0058233,-0.0171401,-0.0187136,0.0438445,0.0741121
 ,0.0021725,0.0024873,-0.0042256,0.0473096,-0.0038222,0.0017265,0.01620
 87,0.0370999,-0.0777978,0.0499311,0.0387843,0.0627833,-0.0388642,0.072
 2825,0.0500069,0.0514509,-0.0205718,0.0606025,-0.0215588,0.0131792,-0.
 0076047,0.0395142,-0.0083561,-0.0109618,-0.000168,0.0360062,0.0191196,
 0.0044367,-0.0119954,-0.012355,0.0365978,-0.0120675,-0.0018326,-0.0203
 29,0.0348035,0.0257937,-0.0001512,-0.0148319,0.0003646,-0.1114785,0.00
 04413,-0.0510531,0.0005843,-0.139201,0.0186946,0.0000258,-0.0073439,0.
 0075538,0.042994,0.0275601,0.0026033,0.0045674,0.0473637,0.0186287,0.0
 003334,-0.0074862,-0.0074872,0.0439716,-0.0276124,0.0023533,-0.0046749
 ,0.0464243,-0.07844,-0.0508106,0.0369335,-0.06398,-0.0345462,-0.072868
 1,0.0478523,-0.0521737,-0.0241663,0.0607429,0.0210495,0.0138423,0.0078
 112,0.039069,0.0083693,-0.0107464,0.0003285,0.0362406,0.0191555,-0.004
 0117,-0.0120462,0.0124788,0.0355894,0.0121582,-0.0013515,0.0203636,0.0
 357409,-0.2217226,0.0277875,-0.0300872,0.0155389,-0.1899514,0.0088287,
 -0.0159609,0.0036525,-0.1559195,0.0741177,-0.0023909,0.0024459,0.00402
 22,0.0476518,0.004112,0.001772,-0.0159182,0.0367397,0.0502723,0.008656
 5,0.0053897,0.0172334,0.0592755,0.0062541,-0.0165382,0.0192649,0.04458
 08,0.0641985,-0.0065259,-0.0018221,-0.025944,0.055873,-0.0002678,0.017
 5201,0.0170553,0.0489036\Polar=36.7914984,-0.0222821,34.3607367,1.1068
 367,-0.0119837,34.9952383\HyperPolar=0.0882892,10.8324351,-0.1607247,1
 .6683523,0.1704738,3.5503393,0.462825,0.0623125,-16.0285057,-0.6791322
 \PG=C01 [X(C5H12)]\NImag=0\\0.53691164,0.01221202,0.53211411,0.0049809
 1,0.00745964,0.52884398,-0.16963673,0.12114142,0.03886376,0.18844078,0
 .12114214,-0.15287172,-0.03662647,-0.13479366,0.16651897,0.03766549,-0
 .03523314,-0.05141772,-0.04020297,0.04465285,0.05706271,-0.24125064,-0
 .10620695,-0.01403922,-0.02153684,-0.00548793,0.00101212,0.26349665,-0
 .10522172,-0.09480525,-0.00707663,0.01325585,0.00795204,-0.00045621,0.
 11909948,0.10022072,-0.01152565,-0.00586895,-0.04071906,0.00376868,0.0
 0101689,0.00235831,0.01532511,0.01076693,0.04278059,-0.04017546,-0.004
 67892,0.00450130,0.00127439,0.01556242,-0.01093534,-0.00128188,-0.0178
 8920,0.01387384,0.03852422,-0.00478640,-0.17154212,0.12766860,0.003415
 40,-0.01532146,0.01131622,-0.00428820,-0.00955723,0.00873738,0.0064075
 7,0.18589219,0.00461361,0.12558848,-0.16266911,-0.00123231,0.00034617,
 0.00316651,0.00188870,0.00281660,0.00065424,-0.00161955,-0.13959159,0.
 18394566,-0.07987278,-0.00718712,-0.01823604,0.00698898,0.00672067,0.0
 1684648,0.00034436,-0.00884630,-0.02105193,0.00366519,0.00053402,-0.00
 013529,0.53734377,-0.00729431,-0.10506229,-0.06790445,-0.00119650,-0.0
 0487899,-0.01773042,-0.00287159,-0.00236143,-0.01220192,0.00234196,0.0
 1182088,0.01417106,-0.00412780,0.52418391,-0.01912594,-0.06825246,-0.2
 4442501,0.00222979,-0.00656962,-0.00631519,-0.00359094,-0.00359044,-0.
 00098928,-0.00281866,-0.00566189,-0.01976316,-0.00646153,-0.00044932,0
 .53377896,0.00371821,0.00105049,-0.00194326,0.00003373,-0.00003025,0.0
 0035982,-0.00019175,-0.00002125,-0.00023431,0.00030580,-0.00032874,-0.
 00027125,-0.04049473,0.00387122,-0.00308222,0.05015795,-0.00083635,0.0
 1036635,-0.00551709,0.00009255,0.00023618,0.00006897,0.00000759,0.0000
 6579,0.00006051,-0.00028633,-0.00086406,-0.00156022,0.00292811,-0.1669
 1718,0.11660510,-0.00098816,0.18037499,-0.00225846,0.01339047,-0.01794
 683,0.00043694,0.00004684,-0.00027569,-0.00034148,0.00005107,-0.000308
 16,-0.00041324,-0.00152127,-0.00215625,-0.00222845,0.11438196,-0.14479
 838,0.00508538,-0.12911997,0.15965738,0.00532036,-0.00060474,0.0013054
 7,-0.00005391,-0.00017411,-0.00088023,0.00011922,-0.00019549,-0.000098
 00,-0.00002074,-0.00001137,0.00013157,-0.18299441,0.10645601,0.0400487
 1,-0.00154493,0.00526665,-0.00074771,0.20287065,0.00615325,-0.00301752
 ,-0.00555772,-0.00022831,0.00007776,-0.00102517,-0.00026792,-0.0013480
 7,-0.00120445,-0.00000290,0.00016550,0.00015093,0.10843253,-0.12002546
 ,-0.02902307,0.01526384,-0.01347520,0.00036546,-0.11554668,0.12859793,
 0.01593879,-0.01581326,-0.00566651,-0.00093425,-0.00090345,-0.00274626
 ,-0.00023976,-0.00126485,-0.00076887,0.00020797,0.00015106,0.00029691,
 0.03817826,-0.02707492,-0.05026003,-0.01012158,0.01027350,0.00319727,-
 0.04080828,0.03544317,0.05226341,-0.00760502,-0.01160060,-0.01318907,-
 0.00004252,-0.00042859,-0.00035667,0.00017456,-0.00009259,0.00016718,-
 0.00096946,-0.00048719,-0.00221381,-0.19872444,-0.08313593,-0.00451793
 ,0.00097215,-0.00503960,0.00269764,-0.01779523,-0.01057986,0.00014223,
 0.52665264,-0.01638653,-0.01132110,-0.01115357,-0.00043775,-0.00122741
 ,-0.00098550,-0.00002091,-0.00017884,-0.00113322,-0.00024502,0.0004328
 0,-0.00073468,-0.08429893,-0.13492944,-0.00192982,-0.01881476,-0.00976
 047,0.00137262,0.00833323,0.01057600,0.00001946,-0.00013362,0.53612464
 ,-0.02714359,-0.01967229,-0.00618766,-0.00027640,-0.00080804,-0.000283
 85,0.00003886,-0.00125631,-0.00310420,-0.00235575,-0.00125355,-0.00235
 890,-0.00449285,-0.00271813,-0.07691634,0.01327124,0.00867218,0.003927
 64,0.00307891,0.00172232,0.00383770,0.01371943,-0.00007176,0.54016352,
 -0.00128567,-0.00300523,-0.00094818,-0.00002511,-0.00002802,0.00000968
 ,0.00002174,0.00004837,0.00014712,-0.00111390,-0.00051929,-0.00126467,
 -0.00144906,-0.01390294,0.01566055,-0.00224292,-0.00113403,-0.00064912
 ,0.00030364,0.00012761,-0.00008185,-0.04000763,-0.00696717,0.00955757,
 0.04928226,-0.00250618,-0.00376269,-0.00137280,-0.00004008,-0.00016193
 ,-0.00002155,0.00005070,0.00004982,0.00008812,-0.00121478,-0.00103262,
 -0.00130113,-0.00591343,-0.00774446,0.01176452,-0.00143758,-0.00043171
 ,-0.00010299,0.00016658,0.00001272,-0.00003430,-0.00618161,-0.12374128
 ,0.10874411,0.00990391,0.13762957,-0.00088715,-0.00162057,0.00060318,0
 .00001329,-0.00003528,0.00000190,0.00000328,-0.00000752,-0.00003662,-0
 .00044342,0.00012333,-0.00111294,0.00206106,0.00129745,0.00510770,-0.0
 0056306,-0.00030276,-0.00000745,-0.00011879,-0.00014216,-0.00005243,0.
 00897755,0.11126551,-0.18626148,-0.00669141,-0.12251475,0.19999982,-0.
 00238996,-0.00168683,0.00028584,-0.00004159,0.00002556,0.00005354,0.00
 004436,-0.00016137,-0.00049836,-0.00001880,0.00004243,0.00013542,0.000
 46772,-0.01253425,-0.01597482,0.00010063,0.00033760,-0.00000249,-0.004
 42843,-0.00164192,-0.00172996,-0.03993494,0.00625568,0.00915463,0.0026
 5034,0.00061225,0.00152624,0.04917485,-0.00149251,-0.00059213,0.000372
 89,0.00003185,0.00004663,0.00008426,0.00001682,-0.00007396,-0.00027191
 ,0.00000712,0.00003273,0.00010438,-0.00339238,-0.00657536,-0.01263779,
 0.00027187,0.00039387,0.00002952,-0.00189862,-0.00033562,-0.00066318,0
 .00548694,-0.11755690,-0.10683667,-0.00063239,0.00687289,0.00883282,-0
 .00923544,0.13075365,0.00012058,-0.00001721,0.00008128,0.00002644,0.00
 005319,0.00001038,-0.00002920,-0.00001062,0.00008893,0.00004519,-0.000
 00671,0.00001359,-0.00241268,-0.00268760,0.00255396,0.00010573,0.00003
 880,-0.00000074,-0.00194045,-0.00074000,-0.00037623,0.00853877,-0.1093
 5590,-0.19254499,0.00146258,-0.00803813,-0.02107490,-0.00630670,0.1205
 8612,0.20699612,-0.00166372,-0.00000997,-0.00101779,-0.00018155,-0.000
 17407,-0.00011785,0.00001698,0.00005029,0.00013673,-0.00015566,0.00001
 533,-0.00002996,-0.03786270,0.00805103,-0.00151116,-0.00375745,-0.0011
 7690,0.00104184,-0.00170890,-0.00153569,-0.00042546,-0.19776820,0.0847
 0502,-0.00204463,0.00055729,0.00342010,-0.00230048,-0.00134384,0.00581
 752,0.00222205,0.53733565,-0.00063591,0.00011383,-0.00046765,-0.000763
 22,0.00000980,-0.00015148,-0.00003784,0.00006125,-0.00001991,-0.000012
 09,-0.00002301,0.00002324,-0.00772574,0.01358586,-0.00025636,-0.000888
 07,0.00028522,0.00041643,-0.00194319,-0.00149441,-0.00014388,0.0835454
 6,-0.13590849,0.00104731,0.01294564,-0.00709764,0.00242467,0.01341390,
 -0.00746331,-0.00166929,0.00426152,0.52404118,-0.00134991,-0.00037162,
 -0.00048364,-0.00087207,-0.00007928,-0.00032830,-0.00004546,0.00006532
 ,0.00004337,-0.00007698,0.00000978,-0.00005701,-0.00173581,0.00058344,
 0.00252445,0.00130606,0.00034508,0.00001660,0.00006279,0.00002046,0.00
 030367,-0.00210873,0.00026294,-0.07683022,-0.01553999,0.01244721,0.002
 98721,0.01598772,-0.01221149,0.00472002,-0.00631057,0.00019156,0.53385
 595,-0.00206857,0.00051305,-0.00046658,-0.00520671,-0.00234509,-0.0034
 5729,0.00003507,-0.00003208,-0.00000667,-0.00002767,0.00002774,-0.0000
 1759,-0.00374295,0.00086996,0.00132951,0.00004809,-0.00009036,0.000013
 97,0.00015303,0.00002664,-0.00003453,0.00109616,0.01835574,0.01376582,
 0.00009800,-0.00027283,0.00009728,-0.00222896,0.00146315,-0.00051976,-
 0.04053139,-0.00440697,-0.00380873,0.05016013,-0.00022645,0.00026719,0
 .00020791,-0.00053626,-0.00034856,-0.00058449,0.00000789,-0.00004201,0
 .00000218,0.00003652,0.00000041,0.00002530,0.00116606,0.00029658,-0.00
 034358,0.00008936,-0.00004808,-0.00002033,-0.00008856,-0.00005930,-0.0
 0001483,0.00490032,-0.00957584,-0.00913878,-0.00033527,0.00039692,-0.0
 0002750,0.00116319,-0.00045752,0.00029284,-0.00348807,-0.16002139,-0.1
 1703043,0.00148572,0.17270383,-0.00076869,0.00047265,-0.00000643,-0.00
 192268,-0.00113117,-0.00125096,0.00004523,-0.00004854,0.00000002,-0.00
 000286,0.00002170,-0.00000743,0.00107352,-0.00041321,-0.00000586,0.000
 01675,0.00001987,-0.00003542,-0.00001196,0.00002106,-0.00003756,0.0028
 3188,-0.00177707,0.00362421,-0.00001209,-0.00001793,-0.00000224,-0.000
 61550,0.00009402,0.00000429,-0.00291634,-0.11481037,-0.15165259,0.0057
 9288,0.12947310,0.16731510,0.00010312,0.00005890,0.00000891,-0.0000047
 4,-0.00000985,0.00001228,0.00001277,-0.00000109,0.00000527,-0.00002356
 ,-0.00000825,0.00000033,-0.00169016,0.00194184,0.00011812,0.00015349,0
 .00008776,-0.00000945,-0.00030836,-0.00027641,-0.00005546,-0.01778753,
 -0.00826636,0.00281833,-0.00439995,0.00197096,-0.00187883,0.00030098,-
 0.00016431,-0.00012136,-0.18417574,-0.10723626,0.03699753,-0.00165328,
 -0.00530333,-0.00090962,0.20414046,-0.00010432,0.00001730,-0.00001437,
 0.00003278,-0.00000975,0.00002214,-0.00000228,-0.00000210,0.00000862,-
 0.00000099,0.00000824,-0.00001767,0.00154900,-0.00151572,-0.00007279,-
 0.00002688,-0.00005944,-0.00002170,0.00028130,0.00031182,0.00004145,0.
 01072549,0.01061004,-0.00153563,0.00170855,-0.00039487,0.00074899,-0.0
 0012675,0.00000954,0.00014406,-0.10915825,-0.12042730,0.02668403,-0.01
 502264,-0.01303820,-0.00084781,0.11629452,0.12933727,-0.00006370,0.000
 02421,0.00000847,0.00004252,-0.00001347,0.00001555,0.00000511,0.000004
 98,0.00000016,-0.00002203,-0.00000003,0.00000672,-0.00037998,0.0000937
 0,0.00030603,-0.00003521,0.00001446,-0.00003779,-0.00004761,-0.0000314
 9,-0.00002145,0.00044925,0.00017476,0.00379186,-0.00167665,0.00067150,
 -0.00033667,-0.00008409,0.00003618,-0.00004761,0.03505945,0.02474733,-
 0.04864739,-0.01062666,-0.01070025,0.00286481,-0.03751880,-0.03288950,
 0.05022800,-0.00009025,0.00002977,-0.00017772,-0.00003653,0.00001965,-
 0.00001379,0.00001197,0.00000251,-0.00000439,0.00001023,-0.00002820,0.
 00000045,-0.00166142,0.00068441,-0.00133037,-0.00207984,0.00026158,-0.
 00076777,0.00010361,0.00010599,-0.00006087,-0.00743430,0.01714482,-0.0
 2654188,-0.00237330,0.00149890,0.00016387,-0.00125161,0.00251121,-0.00
 080451,-0.07978121,0.00767973,-0.01847920,0.00371670,0.00093771,-0.002
 29631,0.00528280,-0.00666974,0.01583668,0.53681135,-0.00002334,0.00010
 394,0.00001834,0.00005065,-0.00002286,0.00004775,-0.00000714,0.0000161
 8,0.00003139,-0.00002023,-0.00000413,-0.00000734,0.00004941,0.00008533
 ,0.00039597,-0.00048756,0.00028889,-0.00046078,-0.00005974,0.00001727,
 -0.00002362,0.01194628,-0.01237564,0.01964026,0.00168759,-0.00059849,-
 0.00000279,0.00301113,-0.00387134,0.00149381,0.00754794,-0.10927040,0.
 07233729,-0.00095197,0.01057666,-0.01253988,0.00051383,-0.00361293,0.0
 1578431,-0.01236036,0.53268095,-0.00017845,-0.00001219,-0.00007002,0.0
 0004557,0.00002623,0.00002759,-0.00000900,0.00000256,0.00001361,0.0000
 3581,0.00000552,0.00001729,-0.00101590,0.00049128,-0.00045909,-0.00048
 506,-0.00019720,-0.00002628,0.00000722,0.00001455,0.00000813,-0.012783
 10,0.01104599,-0.00529583,0.00033255,-0.00039365,0.00007078,-0.0008520
 2,0.00124655,0.00068531,-0.01759389,0.07198292,-0.24033863,-0.00193506
 ,0.00636814,-0.01816777,0.00135450,0.00560587,-0.00502956,0.00456514,-
 0.00741362,0.52841907,0.00001049,0.00001910,0.00003637,0.00001001,-0.0
 0000381,0.00001011,-0.00000354,0.00000030,0.00001037,0.00000076,0.0000
 0787,0.00000339,-0.00015573,0.00001504,-0.00007666,-0.00002803,-0.0000
 3629,-0.00000406,-0.00002353,0.00000182,-0.00002202,-0.00096366,0.0003
 2091,-0.00233806,-0.00001912,-0.00000812,0.00004501,-0.00109717,0.0012
 2082,-0.00040313,0.00365114,-0.00221105,-0.00284569,0.00030939,0.00029
 126,-0.00039564,-0.00002104,-0.00000229,0.00020814,-0.04013161,0.00387
 773,0.00394670,0.03845528,0.00002805,-0.00000443,-0.00000636,-0.000012
 20,-0.00001135,-0.00000214,0.00000450,-0.00000172,0.00000063,-0.000007
 94,0.00000468,-0.00000098,-0.00001372,-0.00002207,-0.00000831,-0.00002
 708,0.00000212,-0.00002144,0.00000841,0.00000767,0.00000017,0.00055893
 ,0.00036724,0.00134518,-0.00004604,0.00003583,0.00000704,0.00055044,-0
 .00107204,-0.00012394,-0.00048434,0.01205819,0.00661013,0.00032926,-0.
 00095938,0.00155853,0.00000834,0.00017446,-0.00015529,0.00398162,-0.16
 416997,-0.12772630,-0.00559540,0.17778848,0.00000135,0.00000670,0.0000
 1735,0.00001913,0.00000670,0.00000853,-0.00000828,0.00000485,0.0000103
 7,0.00000316,0.00000095,0.00000524,-0.00003061,-0.00002201,-0.00005796
 ,-0.00001853,-0.00002497,-0.00000882,0.00000064,0.00001769,0.00000723,
 -0.00219330,0.00082624,-0.00229760,0.00013354,-0.00010446,0.00001084,-
 0.00123520,0.00130387,-0.00107391,-0.00022028,-0.01323827,-0.01998218,
 -0.00025222,0.00159744,-0.00206451,0.00013203,-0.00015464,0.00028500,0
 .00407374,-0.12564636,-0.17006959,-0.00106335,0.13941426,0.19209305,0.
 00001199,0.00000744,-0.00000882,-0.00001466,-0.00000291,-0.00001270,0.
 00000163,-0.00000037,-0.00000243,-0.00000358,-0.00000425,-0.00000844,0
 .00001681,0.00003955,-0.00004483,0.00003522,-0.00000965,0.00004529,0.0
 0001279,0.00000204,0.00000515,0.00017505,0.00001717,0.00004736,0.00004
 533,-0.00001672,-0.00002965,0.00002114,-0.00005057,0.00000191,0.000416
 81,0.00295559,-0.00348445,-0.00019052,0.00000356,-0.00034002,0.0001217
 7,0.00026644,-0.00022505,-0.24008573,0.10737395,-0.01091896,-0.0011639
 2,0.00418713,0.00199589,0.26217334,-0.00000234,0.00001716,-0.00000240,
 -0.00000424,0.00000234,-0.00000103,0.00000045,0.00000201,0.00000314,-0
 .00000060,-0.00000152,-0.00000516,-0.00005420,0.00006289,-0.00006468,0
 .00003190,-0.00004350,0.00004709,0.00000084,-0.00000174,-0.00000507,0.
 00008463,-0.00025189,0.00133966,0.00017528,-0.00008303,0.00000579,-0.0
 0005248,0.00005265,0.00001003,0.00944010,-0.00289063,0.00355697,0.0000
 2928,0.00006875,-0.00003863,0.00018984,-0.00142458,0.00124893,0.106315
 88,-0.09631123,0.00555626,0.01743110,-0.00932977,-0.00311370,-0.120389
 03,0.10212480,-0.00000465,-0.00003128,0.00001261,-0.00001257,0.0000160
 0,-0.00001421,-0.00000244,-0.00000281,-0.00000887,0.00001035,-0.000001
 03,0.00001020,0.00013559,0.00001957,0.00004205,-0.00000574,-0.00000343
 ,0.00000138,0.00000529,-0.00000866,-0.00000024,0.00017745,0.00121613,-
 0.00303165,-0.00049203,0.00026970,0.00009696,0.00014508,-0.00008631,-0
 .00003883,-0.02071543,0.01226294,-0.00053065,-0.00023244,-0.00004873,-
 0.00030794,-0.00008582,0.00118755,-0.00069860,-0.00844221,0.00433504,-
 0.04038684,0.01434100,-0.00910467,0.00030984,0.01180739,-0.00914913,0.
 04219775,-0.00003692,-0.00005189,0.00004397,0.00003301,0.00000789,0.00
 000733,-0.00001463,0.00000470,-0.00001252,0.00001010,0.00001153,0.0000
 1945,-0.00017851,0.00079229,-0.00085149,-0.00518559,0.00061578,-0.0018
 9883,-0.00000487,-0.00003404,0.00004161,-0.00003783,0.00043849,-0.0002
 5908,-0.00004192,-0.00003212,0.00002520,-0.00002471,0.00003895,0.00001
 452,0.00695243,0.00105848,0.00230360,0.00003353,-0.00010360,0.00043145
 ,-0.00005104,0.00025606,-0.00092138,-0.17101077,-0.12214810,0.03548382
 ,0.00117028,-0.00346999,-0.00133766,-0.02157346,-0.01319644,0.00337122
 ,0.18996089,-0.00001915,-0.00002026,-0.00002790,-0.00000823,0.00001032
 ,-0.00000106,0.00000337,0.00000272,-0.00001544,0.00000340,-0.00001129,
 -0.00000739,0.00017981,-0.00000324,0.00009462,0.00247166,-0.00041382,0
 .00116701,0.00000951,-0.00000936,0.00001255,0.00043154,-0.00128340,0.0
 0078014,-0.00002662,0.00005094,-0.00005216,0.00002691,-0.00016383,0.00
 003045,-0.00728156,-0.00555897,0.00657852,0.00002136,0.00023990,-0.000
 03631,0.00019984,0.00001623,0.00098964,-0.12211543,-0.15353187,0.03339
 712,-0.01532901,-0.01486797,-0.00087431,0.00562058,0.00800720,-0.00087
 085,0.13581195,0.16753670,-0.00001464,-0.00004910,0.00002538,0.0000071
 2,0.00000188,-0.00001933,-0.00001261,0.00000160,-0.00001463,0.00001022
 ,0.00000152,0.00000838,-0.00011377,0.00016346,-0.00032306,-0.00338479,
 0.00062719,-0.00119845,0.00001243,-0.00002297,0.00001530,-0.00033860,0
 .00095787,-0.00023210,0.00005237,-0.00008340,0.00000641,0.00001064,0.0
 0001666,0.00000336,0.01674383,0.01766085,-0.00560086,0.00035802,-0.000
 05801,-0.00026973,-0.00086795,0.00111144,-0.00268752,0.03427906,0.0320
 1018,-0.04939792,-0.01145244,-0.01178650,0.00280707,0.00117237,0.00061
 196,0.00234697,-0.03646121,-0.04116463,0.05453070\\-0.00000832,0.00001
 809,-0.00000382,-0.00000541,-0.00000969,-0.00000726,0.00000121,-0.0000
 1597,0.00000222,0.00000487,-0.00000073,0.00000266,-0.00003000,-0.00000
 651,0.00000290,-0.00000788,-0.00000060,-0.00000275,-0.00000510,-0.0000
 0214,-0.00000691,0.00002055,0.00010785,0.00000132,0.00000293,-0.000039
 67,0.00000687,0.00000004,-0.00003916,0.00000388,0.00002001,0.00001608,
 -0.00002835,0.00000473,-0.00001299,0.00001788,-0.00000948,-0.00000350,
 0.00000485,0.00000733,0.00003491,0.00000871,-0.00000391,-0.00000373,-0
 .00000638,-0.00000078,-0.00002137,-0.00000102,0.00000922,-0.00002088,0
 .00000520\\\@


 Spring appears, and we are once more children.
                                  -- Anonymous
 Job cpu time:       0 days  0 hours  0 minutes  2.7 seconds.
 File lengths (MBytes):  RWF=     10 Int=      0 D2E=      0 Chk=      2 Scr=      1
 Normal termination of Gaussian 09 at Wed Mar 15 15:25:00 2017.
