 Entering Gaussian System, Link 0=g09
 Input=pentane_conformation_1.gjf
 Output=pentane_conformation_1.out
 Initial command:
 /n/sw/g09_D.01/g09/l1.exe "/scratch/ekwan_pentane_conformation_1/Gau-22997.inp" -scrdir="/scratch/ekwan_pentane_conformation_1/"
 Entering Link 1 = /n/sw/g09_D.01/g09/l1.exe PID=     22998.
  
 Copyright (c) 1988,1990,1992,1993,1995,1998,2003,2009,2013,
            Gaussian, Inc.  All Rights Reserved.
  
 This is part of the Gaussian(R) 09 program.  It is based on
 the Gaussian(R) 03 system (copyright 2003, Gaussian, Inc.),
 the Gaussian(R) 98 system (copyright 1998, Gaussian, Inc.),
 the Gaussian(R) 94 system (copyright 1995, Gaussian, Inc.),
 the Gaussian 92(TM) system (copyright 1992, Gaussian, Inc.),
 the Gaussian 90(TM) system (copyright 1990, Gaussian, Inc.),
 the Gaussian 88(TM) system (copyright 1988, Gaussian, Inc.),
 the Gaussian 86(TM) system (copyright 1986, Carnegie Mellon
 University), and the Gaussian 82(TM) system (copyright 1983,
 Carnegie Mellon University). Gaussian is a federally registered
 trademark of Gaussian, Inc.
  
 This software contains proprietary and confidential information,
 including trade secrets, belonging to Gaussian, Inc.
  
 This software is provided under written license and may be
 used, copied, transmitted, or stored only in accord with that
 written license.
  
 The following legend is applicable only to US Government
 contracts under FAR:
  
                    RESTRICTED RIGHTS LEGEND
  
 Use, reproduction and disclosure by the US Government is
 subject to restrictions as set forth in subparagraphs (a)
 and (c) of the Commercial Computer Software - Restricted
 Rights clause in FAR 52.227-19.
  
 Gaussian, Inc.
 340 Quinnipiac St., Bldg. 40, Wallingford CT 06492
  
  
 ---------------------------------------------------------------
 Warning -- This program may not be used in any manner that
 competes with the business of Gaussian, Inc. or will provide
 assistance to any competitor of Gaussian, Inc.  The licensee
 of this program is prohibited from giving any competitor of
 Gaussian, Inc. access to this program.  By using this program,
 the user acknowledges that Gaussian, Inc. is engaged in the
 business of creating and licensing software in the field of
 computational chemistry and represents and warrants to the
 licensee that it is not a competitor of Gaussian, Inc. and that
 it will not use this program in any manner prohibited above.
 ---------------------------------------------------------------
  

 Cite this work as:
 Gaussian 09, Revision D.01,
 M. J. Frisch, G. W. Trucks, H. B. Schlegel, G. E. Scuseria, 
 M. A. Robb, J. R. Cheeseman, G. Scalmani, V. Barone, B. Mennucci, 
 G. A. Petersson, H. Nakatsuji, M. Caricato, X. Li, H. P. Hratchian, 
 A. F. Izmaylov, J. Bloino, G. Zheng, J. L. Sonnenberg, M. Hada, 
 M. Ehara, K. Toyota, R. Fukuda, J. Hasegawa, M. Ishida, T. Nakajima, 
 Y. Honda, O. Kitao, H. Nakai, T. Vreven, J. A. Montgomery, Jr., 
 J. E. Peralta, F. Ogliaro, M. Bearpark, J. J. Heyd, E. Brothers, 
 K. N. Kudin, V. N. Staroverov, T. Keith, R. Kobayashi, J. Normand, 
 K. Raghavachari, A. Rendell, J. C. Burant, S. S. Iyengar, J. Tomasi, 
 M. Cossi, N. Rega, J. M. Millam, M. Klene, J. E. Knox, J. B. Cross, 
 V. Bakken, C. Adamo, J. Jaramillo, R. Gomperts, R. E. Stratmann, 
 O. Yazyev, A. J. Austin, R. Cammi, C. Pomelli, J. W. Ochterski, 
 R. L. Martin, K. Morokuma, V. G. Zakrzewski, G. A. Voth, 
 P. Salvador, J. J. Dannenberg, S. Dapprich, A. D. Daniels, 
 O. Farkas, J. B. Foresman, J. V. Ortiz, J. Cioslowski, 
 and D. J. Fox, Gaussian, Inc., Wallingford CT, 2013.
 
 ******************************************
 Gaussian 09:  EM64L-G09RevD.01 24-Apr-2013
                15-Mar-2017 
 ******************************************
 %mem=1GB
 ------------------------
 #p pddg opt freq=noraman
 ------------------------
 1/14=-1,18=20,19=15,26=1,38=1/1,3;
 2/9=110,12=2,17=6,18=5,40=1/2;
 3/5=2,16=1,25=1,41=4000000,71=1/1,2,3;
 4/35=1/1;
 5/5=2,35=1,38=5/2;
 6/7=2,8=2,9=2,10=2,28=1/1;
 7//1,2,3,16;
 1/14=-1,18=20,19=15,26=1/3(2);
 2/9=110/2;
 99//99;
 2/9=110/2;
 3/5=2,16=1,25=1,41=4000000,71=1,135=20/1,2,3;
 4/5=5,16=3,35=1/1;
 5/5=2,35=1,38=5/2;
 7//1,2,3,16;
 1/14=-1,18=20,19=15,26=1/3(-5);
 2/9=110/2;
 6/7=2,8=2,9=2,10=2,19=2,28=1/1;
 99/9=1/99;
 Leave Link    1 at Wed Mar 15 14:23:37 2017, MaxMem=   134217728 cpu:         0.0
 (Enter /n/sw/g09_D.01/g09/l101.exe)
 ----------------------
 pentane conformation 1
 ----------------------
 Symbolic Z-matrix:
 Charge =  0 Multiplicity = 1
 C                    -2.88904   0.76606  -0.11351 
 H                    -2.53239  -0.24275  -0.11351 
 H                    -2.53237   1.27046  -0.98716 
 H                    -3.95904   0.76608  -0.11351 
 C                    -2.3757    1.49202   1.14389 
 H                    -1.3057    1.49199   1.1439 
 H                    -2.73234   2.50083   1.14388 
 C                    -2.88906   0.76608   2.4013 
 H                    -2.53243  -0.24274   2.40131 
 H                    -3.95906   0.76611   2.40129 
 C                    -2.37572   1.49203   3.6587 
 H                    -2.73077   2.50141   3.65773 
 H                    -1.30572   1.49032   3.65968 
 C                    -2.89136   0.7677    4.91611 
 H                    -2.5367   -0.24181   4.91684 
 H                    -2.53428   1.27182   5.78976 
 H                    -3.96135   0.76984   4.91537 
 
 NAtoms=     17 NQM=       17 NQMF=       0 NMMI=      0 NMMIF=      0
                NMic=       0 NMicF=      0.
                    Isotopes and Nuclear Properties:
 (Nuclear quadrupole moments (NQMom) in fm**2, nuclear magnetic moments (NMagM)
  in nuclear magnetons)

  Atom         1           2           3           4           5           6           7           8           9          10
 IAtWgt=          12           1           1           1          12           1           1          12           1           1
 AtmWgt=  12.0000000   1.0078250   1.0078250   1.0078250  12.0000000   1.0078250   1.0078250  12.0000000   1.0078250   1.0078250
 NucSpn=           0           1           1           1           0           1           1           0           1           1
 AtZEff=   0.0000000   0.0000000   0.0000000   0.0000000   0.0000000   0.0000000   0.0000000   0.0000000   0.0000000   0.0000000
 NQMom=    0.0000000   0.0000000   0.0000000   0.0000000   0.0000000   0.0000000   0.0000000   0.0000000   0.0000000   0.0000000
 NMagM=    0.0000000   2.7928460   2.7928460   2.7928460   0.0000000   2.7928460   2.7928460   0.0000000   2.7928460   2.7928460
 AtZNuc=   6.0000000   1.0000000   1.0000000   1.0000000   6.0000000   1.0000000   1.0000000   6.0000000   1.0000000   1.0000000

  Atom        11          12          13          14          15          16          17
 IAtWgt=          12           1           1          12           1           1           1
 AtmWgt=  12.0000000   1.0078250   1.0078250  12.0000000   1.0078250   1.0078250   1.0078250
 NucSpn=           0           1           1           0           1           1           1
 AtZEff=   0.0000000   0.0000000   0.0000000   0.0000000   0.0000000   0.0000000   0.0000000
 NQMom=    0.0000000   0.0000000   0.0000000   0.0000000   0.0000000   0.0000000   0.0000000
 NMagM=    0.0000000   2.7928460   2.7928460   0.0000000   2.7928460   2.7928460   2.7928460
 AtZNuc=   6.0000000   1.0000000   1.0000000   6.0000000   1.0000000   1.0000000   1.0000000
 Leave Link  101 at Wed Mar 15 14:23:38 2017, MaxMem=   134217728 cpu:         0.3
 (Enter /n/sw/g09_D.01/g09/l103.exe)

 GradGradGradGradGradGradGradGradGradGradGradGradGradGradGradGradGradGrad
 Berny optimization.
 Initialization pass.
                           ----------------------------
                           !    Initial Parameters    !
                           ! (Angstroms and Degrees)  !
 --------------------------                            --------------------------
 ! Name  Definition              Value          Derivative Info.                !
 --------------------------------------------------------------------------------
 ! R1    R(1,2)                  1.07           estimate D2E/DX2                !
 ! R2    R(1,3)                  1.07           estimate D2E/DX2                !
 ! R3    R(1,4)                  1.07           estimate D2E/DX2                !
 ! R4    R(1,5)                  1.54           estimate D2E/DX2                !
 ! R5    R(5,6)                  1.07           estimate D2E/DX2                !
 ! R6    R(5,7)                  1.07           estimate D2E/DX2                !
 ! R7    R(5,8)                  1.54           estimate D2E/DX2                !
 ! R8    R(8,9)                  1.07           estimate D2E/DX2                !
 ! R9    R(8,10)                 1.07           estimate D2E/DX2                !
 ! R10   R(8,11)                 1.54           estimate D2E/DX2                !
 ! R11   R(11,12)                1.07           estimate D2E/DX2                !
 ! R12   R(11,13)                1.07           estimate D2E/DX2                !
 ! R13   R(11,14)                1.54           estimate D2E/DX2                !
 ! R14   R(14,15)                1.07           estimate D2E/DX2                !
 ! R15   R(14,16)                1.07           estimate D2E/DX2                !
 ! R16   R(14,17)                1.07           estimate D2E/DX2                !
 ! A1    A(2,1,3)              109.4712         estimate D2E/DX2                !
 ! A2    A(2,1,4)              109.4712         estimate D2E/DX2                !
 ! A3    A(2,1,5)              109.4712         estimate D2E/DX2                !
 ! A4    A(3,1,4)              109.4712         estimate D2E/DX2                !
 ! A5    A(3,1,5)              109.4713         estimate D2E/DX2                !
 ! A6    A(4,1,5)              109.4712         estimate D2E/DX2                !
 ! A7    A(1,5,6)              109.4712         estimate D2E/DX2                !
 ! A8    A(1,5,7)              109.4712         estimate D2E/DX2                !
 ! A9    A(1,5,8)              109.4712         estimate D2E/DX2                !
 ! A10   A(6,5,7)              109.4713         estimate D2E/DX2                !
 ! A11   A(6,5,8)              109.4712         estimate D2E/DX2                !
 ! A12   A(7,5,8)              109.4712         estimate D2E/DX2                !
 ! A13   A(5,8,9)              109.4712         estimate D2E/DX2                !
 ! A14   A(5,8,10)             109.4712         estimate D2E/DX2                !
 ! A15   A(5,8,11)             109.4712         estimate D2E/DX2                !
 ! A16   A(9,8,10)             109.4712         estimate D2E/DX2                !
 ! A17   A(9,8,11)             109.4713         estimate D2E/DX2                !
 ! A18   A(10,8,11)            109.4712         estimate D2E/DX2                !
 ! A19   A(8,11,12)            109.4712         estimate D2E/DX2                !
 ! A20   A(8,11,13)            109.4712         estimate D2E/DX2                !
 ! A21   A(8,11,14)            109.4712         estimate D2E/DX2                !
 ! A22   A(12,11,13)           109.4712         estimate D2E/DX2                !
 ! A23   A(12,11,14)           109.4713         estimate D2E/DX2                !
 ! A24   A(13,11,14)           109.4712         estimate D2E/DX2                !
 ! A25   A(11,14,15)           109.4712         estimate D2E/DX2                !
 ! A26   A(11,14,16)           109.4712         estimate D2E/DX2                !
 ! A27   A(11,14,17)           109.4712         estimate D2E/DX2                !
 ! A28   A(15,14,16)           109.4713         estimate D2E/DX2                !
 ! A29   A(15,14,17)           109.4712         estimate D2E/DX2                !
 ! A30   A(16,14,17)           109.4712         estimate D2E/DX2                !
 ! D1    D(2,1,5,6)             59.9989         estimate D2E/DX2                !
 ! D2    D(2,1,5,7)            179.9989         estimate D2E/DX2                !
 ! D3    D(2,1,5,8)            -60.0011         estimate D2E/DX2                !
 ! D4    D(3,1,5,6)            -60.0011         estimate D2E/DX2                !
 ! D5    D(3,1,5,7)             59.9989         estimate D2E/DX2                !
 ! D6    D(3,1,5,8)            179.9989         estimate D2E/DX2                !
 ! D7    D(4,1,5,6)            179.9989         estimate D2E/DX2                !
 ! D8    D(4,1,5,7)            -60.0011         estimate D2E/DX2                !
 ! D9    D(4,1,5,8)             59.9989         estimate D2E/DX2                !
 ! D10   D(1,5,8,9)             59.9998         estimate D2E/DX2                !
 ! D11   D(1,5,8,10)           -60.0002         estimate D2E/DX2                !
 ! D12   D(1,5,8,11)           179.9998         estimate D2E/DX2                !
 ! D13   D(6,5,8,9)            -60.0002         estimate D2E/DX2                !
 ! D14   D(6,5,8,10)           179.9998         estimate D2E/DX2                !
 ! D15   D(6,5,8,11)            59.9998         estimate D2E/DX2                !
 ! D16   D(7,5,8,9)            179.9998         estimate D2E/DX2                !
 ! D17   D(7,5,8,10)            59.9998         estimate D2E/DX2                !
 ! D18   D(7,5,8,11)           -60.0002         estimate D2E/DX2                !
 ! D19   D(5,8,11,12)           59.89           estimate D2E/DX2                !
 ! D20   D(5,8,11,13)          -60.11           estimate D2E/DX2                !
 ! D21   D(5,8,11,14)          179.89           estimate D2E/DX2                !
 ! D22   D(9,8,11,12)          179.89           estimate D2E/DX2                !
 ! D23   D(9,8,11,13)           59.89           estimate D2E/DX2                !
 ! D24   D(9,8,11,14)          -60.11           estimate D2E/DX2                !
 ! D25   D(10,8,11,12)         -60.11           estimate D2E/DX2                !
 ! D26   D(10,8,11,13)         179.89           estimate D2E/DX2                !
 ! D27   D(10,8,11,14)          59.89           estimate D2E/DX2                !
 ! D28   D(8,11,14,15)          59.9723         estimate D2E/DX2                !
 ! D29   D(8,11,14,16)         179.9723         estimate D2E/DX2                !
 ! D30   D(8,11,14,17)         -60.0277         estimate D2E/DX2                !
 ! D31   D(12,11,14,15)        179.9723         estimate D2E/DX2                !
 ! D32   D(12,11,14,16)        -60.0277         estimate D2E/DX2                !
 ! D33   D(12,11,14,17)         59.9723         estimate D2E/DX2                !
 ! D34   D(13,11,14,15)        -60.0277         estimate D2E/DX2                !
 ! D35   D(13,11,14,16)         59.9723         estimate D2E/DX2                !
 ! D36   D(13,11,14,17)        179.9723         estimate D2E/DX2                !
 --------------------------------------------------------------------------------
 Trust Radius=3.00D-01 FncErr=1.00D-07 GrdErr=1.00D-07
 Number of steps in this run=     92 maximum allowed number of steps=    102.
 GradGradGradGradGradGradGradGradGradGradGradGradGradGradGradGradGradGrad

 Leave Link  103 at Wed Mar 15 14:23:38 2017, MaxMem=   134217728 cpu:         0.0
 (Enter /n/sw/g09_D.01/g09/l202.exe)
                          Input orientation:                          
 ---------------------------------------------------------------------
 Center     Atomic      Atomic             Coordinates (Angstroms)
 Number     Number       Type             X           Y           Z
 ---------------------------------------------------------------------
      1          6           0       -2.889040    0.766063   -0.113511
      2          1           0       -2.532385   -0.242747   -0.113511
      3          1           0       -2.532367    1.270461   -0.987162
      4          1           0       -3.959040    0.766076   -0.113511
      5          6           0       -2.375697    1.492019    1.143894
      6          1           0       -1.305697    1.491989    1.143904
      7          1           0       -2.732336    2.500834    1.143885
      8          6           0       -2.889062    0.766078    2.401299
      9          1           0       -2.532426   -0.242739    2.401306
     10          1           0       -3.959062    0.766111    2.401291
     11          6           0       -2.375716    1.492032    3.658703
     12          1           0       -2.730769    2.501406    3.657727
     13          1           0       -1.305718    1.490322    3.659680
     14          6           0       -2.891355    0.767703    4.916107
     15          1           0       -2.536701   -0.241812    4.916838
     16          1           0       -2.534282    1.271817    5.789758
     17          1           0       -3.961353    0.769835    4.915374
 ---------------------------------------------------------------------
                    Distance matrix (angstroms):
                    1          2          3          4          5
     1  C    0.000000
     2  H    1.070000   0.000000
     3  H    1.070000   1.747302   0.000000
     4  H    1.070000   1.747303   1.747303   0.000000
     5  C    1.540000   2.148263   2.148263   2.148263   0.000000
     6  H    2.148263   2.468838   2.468853   3.024610   1.070000
     7  H    2.148263   3.024610   2.468839   2.468852   1.070000
     8  C    2.514810   2.732986   3.444315   2.732969   1.540000
     9  H    2.732976   2.514817   3.710996   3.062227   2.148263
    10  H    2.732980   3.062259   3.710990   2.514802   2.148263
    11  C    3.875582   4.154949   4.653784   4.154940   2.514809
    12  H    4.154359   4.668187   4.809323   4.329233   2.732086
    13  H    4.155530   4.329575   4.811045   4.669221   2.733869
    14  C    5.029618   5.142657   5.935505   5.141693   3.875580
    15  H    5.142408   5.030350   6.094604   5.323842   4.155381
    16  H    5.935505   6.094464   6.776921   6.093791   4.653782
    17  H    5.141940   5.325124   6.093649   5.028886   4.154505
                    6          7          8          9         10
     6  H    0.000000
     7  H    1.747303   0.000000
     8  C    2.148263   2.148263   0.000000
     9  H    2.468847   3.024610   1.070000   0.000000
    10  H    3.024610   2.468845   1.070000   1.747303   0.000000
    11  C    2.732976   2.732979   1.540000   2.148263   2.148263
    12  H    3.060892   2.513843   2.148263   3.024610   2.469531
    13  H    2.515777   3.063593   2.148263   2.468161   3.024610
    14  C    4.155528   4.154358   2.514809   2.733869   2.732086
    15  H    4.330873   4.668571   2.732752   2.515535   3.060555
    16  H    4.810599   4.809766   3.444314   3.711534   3.710451
    17  H    4.668833   4.327929   2.733202   3.063931   2.514086
                   11         12         13         14         15
    11  C    0.000000
    12  H    1.070000   0.000000
    13  H    1.070000   1.747303   0.000000
    14  C    1.540000   2.148263   2.148263   0.000000
    15  H    2.148263   3.024610   2.469018   1.070000   0.000000
    16  H    2.148263   2.469019   2.468673   1.070000   1.747303
    17  H    2.148263   2.468674   3.024610   1.070000   1.747303
                   16         17
    16  H    0.000000
    17  H    1.747303   0.000000
 Stoichiometry    C5H12
 Framework group  C1[X(C5H12)]
 Deg. of freedom    45
 Full point group                 C1      NOp   1
 Largest Abelian subgroup         C1      NOp   1
 Largest concise Abelian subgroup C1      NOp   1
                         Standard orientation:                         
 ---------------------------------------------------------------------
 Center     Atomic      Atomic             Coordinates (Angstroms)
 Number     Number       Type             X           Y           Z
 ---------------------------------------------------------------------
      1          6           0        2.514809   -0.338712   -0.000194
      2          1           0        2.515216   -0.955552    0.874110
      3          1           0        3.388460    0.279052   -0.001254
      4          1           0        2.514403   -0.957400   -0.873191
      5          6           0        1.257404    0.550407   -0.000549
      6          1           0        1.257801    1.169082    0.872458
      7          1           0        1.257007    1.167261   -0.874844
      8          6           0        0.000000   -0.338712    0.000948
      9          1           0        0.000399   -0.955568    0.875241
     10          1           0       -0.000399   -0.957385   -0.872060
     11          6           0       -1.257405    0.550407    0.000598
     12          1           0       -1.256835    1.168634   -0.872727
     13          1           0       -1.257975    1.167711    0.874575
     14          6           0       -2.514809   -0.338712   -0.000692
     15          1           0       -2.515134   -0.957283    0.872388
     16          1           0       -3.388460    0.279052   -0.000448
     17          1           0       -2.514483   -0.955670   -0.874913
 ---------------------------------------------------------------------
 Rotational constants (GHZ):     16.6901936      2.0020392      1.8904880
 Leave Link  202 at Wed Mar 15 14:23:38 2017, MaxMem=   134217728 cpu:         0.0
 (Enter /n/sw/g09_D.01/g09/l301.exe)
 Standard basis: VSTO-6G (5D, 7F)
 Ernie: Thresh=  0.10000D-02 Tol=  0.10000D-05 Strict=F.
  NNHCO=     0 NNPyr=     0 NCTC=     0               EPep=         0.000000000
    EC=        91.560554221  ECS=         1.924855678   EG=         0.550669397
   EHC=         0.000000000  EAt=       -26.628120368  AtH=         2.358010633
 EPDDG=         0.003131385  ECC=        94.039210681 EAtT=        28.986131002
 There are    32 symmetry adapted cartesian basis functions of A   symmetry.
 There are    32 symmetry adapted basis functions of A   symmetry.
    32 basis functions,   192 primitive gaussians,    32 cartesian basis functions
    16 alpha electrons       16 beta electrons
       nuclear repulsion energy       123.0253416826 Hartrees.
 IExCor=    0 DFT=F Ex=HF Corr=None ExCW=0 ScaHFX=  1.000000
 ScaDFX=  1.000000  1.000000  1.000000  1.000000 ScalE2=  1.000000  1.000000
 IRadAn=      0 IRanWt=     -1 IRanGd=            0 ICorTp=0 IEmpDi=  4
 Integral buffers will be    131072 words long.
 Regular integral format.
 Two-electron integral symmetry is turned off.
 Leave Link  301 at Wed Mar 15 14:23:38 2017, MaxMem=   134217728 cpu:         0.1
 (Enter /n/sw/g09_D.01/g09/l302.exe)
 Do NDO integrals.
 NPDir=0 NMtPBC=     1 NCelOv=     1 NCel=       1 NClECP=     1 NCelD=      1
         NCelK=      1 NCelE2=     1 NClLst=     1 CellRange=     0.0.
 One-electron integrals computed using PRISM.
 NBasis=    32 RedAO= F EigKep=  0.00D+00  NBF=    32
 NBsUse=    32 1.00D-04 EigRej=  0.00D+00 NBFU=    32
 Leave Link  302 at Wed Mar 15 14:23:39 2017, MaxMem=   134217728 cpu:         0.1
 (Enter /n/sw/g09_D.01/g09/l303.exe)
 DipDrv:  MaxL=1.
 Leave Link  303 at Wed Mar 15 14:23:39 2017, MaxMem=   134217728 cpu:         0.1
 (Enter /n/sw/g09_D.01/g09/l401.exe)
 Simple Huckel Guess.
 JPrj=0 DoOrth=F DoCkMO=F.
 Leave Link  401 at Wed Mar 15 14:23:39 2017, MaxMem=   134217728 cpu:         0.1
 (Enter /n/sw/g09_D.01/g09/l502.exe)
 Closed shell SCF:
 Using DIIS extrapolation, IDIIS=  1040.
 Overlap will be assumed to be unity.
 Two-electron integral symmetry not used.
 Keep J ints in memory in canonical form, NReq=894650.
 IVT=       80931 IEndB=       80931 NGot=   134217728 MDV=   134134845
 LenX=   134134845 LenY=   134133380
 Requested convergence on RMS density matrix=1.00D-08 within 128 cycles.
 Requested convergence on MAX density matrix=1.00D-06.
 Requested convergence on             energy=1.00D-06.
 No special actions if energy rises.
 FoFCou: FMM=F IPFlag=           0 FMFlag=           0 FMFlg1=           0
         NFxFlg=           0 DoJE=F BraDBF=F KetDBF=F FulRan=T
         wScrn=  0.000000 ICntrl=     600 IOpCl=  2 I1Cent=           0 NGrid=           0
         NMat0=    1 NMatS0=     62 NMatT0=    0 NMatD0=    1 NMtDS0=    0 NMtDT0=    0
 Symmetry not used in FoFCou.

 Cycle   1  Pass 1  IDiag  1:
 E= 0.123889174716382    
 DIIS: error= 3.19D-02 at cycle   1 NSaved=   1.
 NSaved= 1 IEnMin= 1 EnMin= 0.123889174716382     IErMin= 1 ErrMin= 3.19D-02
 ErrMax= 3.19D-02  0.00D+00 EMaxC= 1.00D-01 BMatC= 6.98D-02 BMatP= 6.98D-02
 IDIUse=3 WtCom= 6.81D-01 WtEn= 3.19D-01
 Coeff-Com:  0.100D+01
 Coeff-En:   0.100D+01
 Coeff:      0.100D+01
 GapD=    2.000 DampG=2.000 DampE=0.500 DampFc=1.0000 IDamp=-1.
 RMSDP=1.07D-02 MaxDP=1.02D-01              OVMax= 0.00D+00

 Cycle   2  Pass 1  IDiag  1:
 E=-0.334843322958989E-01 Delta-E=       -0.157373507012 Rises=F Damp=F
 DIIS: error= 8.31D-03 at cycle   2 NSaved=   2.
 NSaved= 2 IEnMin= 2 EnMin=-0.334843322958989E-01 IErMin= 2 ErrMin= 8.31D-03
 ErrMax= 8.31D-03  0.00D+00 EMaxC= 1.00D-01 BMatC= 4.42D-03 BMatP= 6.98D-02
 IDIUse=3 WtCom= 9.17D-01 WtEn= 8.31D-02
 Coeff-Com: -0.320D+00 0.132D+01
 Coeff-En:   0.000D+00 0.100D+01
 Coeff:     -0.293D+00 0.129D+01
 RMSDP=3.67D-03 MaxDP=3.36D-02 DE=-1.57D-01 OVMax= 0.00D+00

 Cycle   3  Pass 1  IDiag  3:
 E=-0.450484440265200E-01 Delta-E=       -0.011564111731 Rises=F Damp=F
 DIIS: error= 5.99D-04 at cycle   3 NSaved=   3.
 NSaved= 3 IEnMin= 3 EnMin=-0.450484440265200E-01 IErMin= 3 ErrMin= 5.99D-04
 ErrMax= 5.99D-04  0.00D+00 EMaxC= 1.00D-01 BMatC= 4.79D-05 BMatP= 4.42D-03
 IDIUse=3 WtCom= 9.94D-01 WtEn= 5.99D-03
 Coeff-Com:  0.113D+00-0.522D+00 0.141D+01
 Coeff-En:   0.000D+00 0.000D+00 0.100D+01
 Coeff:      0.113D+00-0.519D+00 0.141D+01
 Gap=     0.539 Goal=   None    Shift=    0.000
 RMSDP=5.81D-04 MaxDP=3.35D-03 DE=-1.16D-02 OVMax= 3.83D-03

 Cycle   4  Pass 1  IDiag  3:
 E=-0.452665313965497E-01 Delta-E=       -0.000218087370 Rises=F Damp=F
 DIIS: error= 2.20D-04 at cycle   4 NSaved=   4.
 NSaved= 4 IEnMin= 4 EnMin=-0.452665313965497E-01 IErMin= 4 ErrMin= 2.20D-04
 ErrMax= 2.20D-04  0.00D+00 EMaxC= 1.00D-01 BMatC= 3.46D-06 BMatP= 4.79D-05
 IDIUse=3 WtCom= 9.98D-01 WtEn= 2.20D-03
 Coeff-Com: -0.719D-01 0.337D+00-0.109D+01 0.183D+01
 Coeff-En:   0.000D+00 0.000D+00 0.000D+00 0.100D+01
 Coeff:     -0.717D-01 0.336D+00-0.109D+01 0.183D+01
 Gap=     0.540 Goal=   None    Shift=    0.000
 RMSDP=2.47D-04 MaxDP=1.77D-03 DE=-2.18D-04 OVMax= 1.72D-03

 Cycle   5  Pass 1  IDiag  3:
 E=-0.452879592046287E-01 Delta-E=       -0.000021427808 Rises=F Damp=F
 DIIS: error= 2.42D-05 at cycle   5 NSaved=   5.
 NSaved= 5 IEnMin= 5 EnMin=-0.452879592046287E-01 IErMin= 5 ErrMin= 2.42D-05
 ErrMax= 2.42D-05  0.00D+00 EMaxC= 1.00D-01 BMatC= 4.20D-08 BMatP= 3.46D-06
 IDIUse=1 WtCom= 1.00D+00 WtEn= 0.00D+00
 Coeff-Com:  0.149D-01-0.702D-01 0.229D+00-0.409D+00 0.124D+01
 Coeff:      0.149D-01-0.702D-01 0.229D+00-0.409D+00 0.124D+01
 Gap=     0.540 Goal=   None    Shift=    0.000
 RMSDP=1.68D-05 MaxDP=1.34D-04 DE=-2.14D-05 OVMax= 1.10D-04

 Cycle   6  Pass 1  IDiag  3:
 E=-0.452881604368969E-01 Delta-E=       -0.000000201232 Rises=F Damp=F
 DIIS: error= 8.60D-06 at cycle   6 NSaved=   6.
 NSaved= 6 IEnMin= 6 EnMin=-0.452881604368969E-01 IErMin= 6 ErrMin= 8.60D-06
 ErrMax= 8.60D-06  0.00D+00 EMaxC= 1.00D-01 BMatC= 6.29D-09 BMatP= 4.20D-08
 IDIUse=1 WtCom= 1.00D+00 WtEn= 0.00D+00
 Coeff-Com: -0.511D-02 0.238D-01-0.747D-01 0.128D+00-0.671D+00 0.160D+01
 Coeff:     -0.511D-02 0.238D-01-0.747D-01 0.128D+00-0.671D+00 0.160D+01
 Gap=     0.540 Goal=   None    Shift=    0.000
 RMSDP=9.36D-06 MaxDP=7.18D-05 DE=-2.01D-07 OVMax= 7.17D-05

 Cycle   7  Pass 1  IDiag  3:
 E=-0.452882008276276E-01 Delta-E=       -0.000000040391 Rises=F Damp=F
 DIIS: error= 3.22D-06 at cycle   7 NSaved=   7.
 NSaved= 7 IEnMin= 7 EnMin=-0.452882008276276E-01 IErMin= 7 ErrMin= 3.22D-06
 ErrMax= 3.22D-06  0.00D+00 EMaxC= 1.00D-01 BMatC= 5.04D-10 BMatP= 6.29D-09
 IDIUse=1 WtCom= 1.00D+00 WtEn= 0.00D+00
 Coeff-Com:  0.863D-03-0.394D-02 0.110D-01-0.142D-01 0.192D+00-0.791D+00
 Coeff-Com:  0.161D+01
 Coeff:      0.863D-03-0.394D-02 0.110D-01-0.142D-01 0.192D+00-0.791D+00
 Coeff:      0.161D+01
 Gap=     0.540 Goal=   None    Shift=    0.000
 RMSDP=3.26D-06 MaxDP=2.70D-05 DE=-4.04D-08 OVMax= 2.59D-05

 Cycle   8  Pass 1  IDiag  3:
 E=-0.452882042683456E-01 Delta-E=       -0.000000003441 Rises=F Damp=F
 DIIS: error= 3.80D-07 at cycle   8 NSaved=   8.
 NSaved= 8 IEnMin= 8 EnMin=-0.452882042683456E-01 IErMin= 8 ErrMin= 3.80D-07
 ErrMax= 3.80D-07  0.00D+00 EMaxC= 1.00D-01 BMatC= 1.20D-11 BMatP= 5.04D-10
 IDIUse=1 WtCom= 1.00D+00 WtEn= 0.00D+00
 Coeff-Com:  0.331D-05-0.510D-04 0.767D-03-0.342D-02-0.356D-01 0.217D+00
 Coeff-Com: -0.565D+00 0.139D+01
 Coeff:      0.331D-05-0.510D-04 0.767D-03-0.342D-02-0.356D-01 0.217D+00
 Coeff:     -0.565D+00 0.139D+01
 Gap=     0.540 Goal=   None    Shift=    0.000
 RMSDP=3.71D-07 MaxDP=2.84D-06 DE=-3.44D-09 OVMax= 2.88D-06

 Cycle   9  Pass 1  IDiag  3:
 E=-0.452882043340139E-01 Delta-E=       -0.000000000066 Rises=F Damp=F
 DIIS: error= 1.92D-07 at cycle   9 NSaved=   9.
 NSaved= 9 IEnMin= 9 EnMin=-0.452882043340139E-01 IErMin= 9 ErrMin= 1.92D-07
 ErrMax= 1.92D-07  0.00D+00 EMaxC= 1.00D-01 BMatC= 9.88D-13 BMatP= 1.20D-11
 IDIUse=1 WtCom= 1.00D+00 WtEn= 0.00D+00
 Coeff-Com: -0.844D-05 0.586D-04-0.512D-03 0.204D-02 0.171D-01-0.110D+00
 Coeff-Com:  0.294D+00-0.864D+00 0.166D+01
 Coeff:     -0.844D-05 0.586D-04-0.512D-03 0.204D-02 0.171D-01-0.110D+00
 Coeff:      0.294D+00-0.864D+00 0.166D+01
 Gap=     0.540 Goal=   None    Shift=    0.000
 RMSDP=1.18D-07 MaxDP=1.28D-06 DE=-6.57D-11 OVMax= 1.13D-06

 Cycle  10  Pass 1  IDiag  3:
 E=-0.452882043402099E-01 Delta-E=       -0.000000000006 Rises=F Damp=F
 DIIS: error= 5.12D-08 at cycle  10 NSaved=  10.
 NSaved=10 IEnMin=10 EnMin=-0.452882043402099E-01 IErMin=10 ErrMin= 5.12D-08
 ErrMax= 5.12D-08  0.00D+00 EMaxC= 1.00D-01 BMatC= 6.23D-14 BMatP= 9.88D-13
 IDIUse=1 WtCom= 1.00D+00 WtEn= 0.00D+00
 Coeff-Com: -0.297D-05 0.593D-05 0.117D-03-0.685D-03-0.751D-02 0.459D-01
 Coeff-Com: -0.122D+00 0.364D+00-0.898D+00 0.162D+01
 Coeff:     -0.297D-05 0.593D-05 0.117D-03-0.685D-03-0.751D-02 0.459D-01
 Coeff:     -0.122D+00 0.364D+00-0.898D+00 0.162D+01
 Gap=     0.540 Goal=   None    Shift=    0.000
 RMSDP=3.50D-08 MaxDP=4.35D-07 DE=-6.20D-12 OVMax= 2.86D-07

 Cycle  11  Pass 1  IDiag  3:
 E=-0.452882043406362E-01 Delta-E=        0.000000000000 Rises=F Damp=F
 DIIS: error= 4.26D-09 at cycle  11 NSaved=  11.
 NSaved=11 IEnMin=11 EnMin=-0.452882043406362E-01 IErMin=11 ErrMin= 4.26D-09
 ErrMax= 4.26D-09  0.00D+00 EMaxC= 1.00D-01 BMatC= 7.81D-16 BMatP= 6.23D-14
 IDIUse=1 WtCom= 1.00D+00 WtEn= 0.00D+00
 Coeff-Com: -0.173D-06 0.290D-05-0.447D-04 0.204D-03 0.187D-02-0.118D-01
 Coeff-Com:  0.317D-01-0.959D-01 0.249D+00-0.512D+00 0.134D+01
 Coeff:     -0.173D-06 0.290D-05-0.447D-04 0.204D-03 0.187D-02-0.118D-01
 Coeff:      0.317D-01-0.959D-01 0.249D+00-0.512D+00 0.134D+01
 Gap=     0.540 Goal=   None    Shift=    0.000
 RMSDP=2.85D-09 MaxDP=2.97D-08 DE=-4.26D-13 OVMax= 2.13D-08

 Cycle  12  Pass 2  IDiag  1:
 SCF Done:  E(RPDDG) = -0.452882043406E-01 A.U. after   12 cycles
            NFock= 11  Conv=0.29D-08     -V/T= 0.9978
 KE=-2.066289985168D+01 PE=-2.039155147142D+02 EE= 1.015077846789D+02
 Leave Link  502 at Wed Mar 15 14:23:39 2017, MaxMem=   134217728 cpu:         0.1
 (Enter /n/sw/g09_D.01/g09/l601.exe)
 Copying SCF densities to generalized density rwf, IOpCl= 0 IROHF=0.

 **********************************************************************

            Population analysis using the SCF density.

 **********************************************************************

 Orbital symmetries:
       Occupied  (A) (A) (A) (A) (A) (A) (A) (A) (A) (A) (A) (A)
                 (A) (A) (A) (A)
       Virtual   (A) (A) (A) (A) (A) (A) (A) (A) (A) (A) (A) (A)
                 (A) (A) (A) (A)
 The electronic state is 1-A.
 Alpha  occ. eigenvalues --   -1.46335  -1.24338  -0.99190  -0.81012  -0.79444
 Alpha  occ. eigenvalues --   -0.62681  -0.56778  -0.55470  -0.53023  -0.50574
 Alpha  occ. eigenvalues --   -0.48070  -0.47263  -0.44767  -0.43639  -0.43555
 Alpha  occ. eigenvalues --   -0.42002
 Alpha virt. eigenvalues --    0.11983   0.14326   0.14924   0.14943   0.16103
 Alpha virt. eigenvalues --    0.16194   0.16645   0.16877   0.17443   0.17934
 Alpha virt. eigenvalues --    0.18868   0.18928   0.19609   0.19929   0.19938
 Alpha virt. eigenvalues --    0.20824
          Condensed to atoms (all electrons):
               1          2          3          4          5          6
     1  C    4.271682   0.000000   0.000000   0.000000   0.000000   0.000000
     2  H    0.000000   0.909352   0.000000   0.000000   0.000000   0.000000
     3  H    0.000000   0.000000   0.909988   0.000000   0.000000   0.000000
     4  H    0.000000   0.000000   0.000000   0.909351   0.000000   0.000000
     5  C    0.000000   0.000000   0.000000   0.000000   4.188510   0.000000
     6  H    0.000000   0.000000   0.000000   0.000000   0.000000   0.904645
     7  H    0.000000   0.000000   0.000000   0.000000   0.000000   0.000000
     8  C    0.000000   0.000000   0.000000   0.000000   0.000000   0.000000
     9  H    0.000000   0.000000   0.000000   0.000000   0.000000   0.000000
    10  H    0.000000   0.000000   0.000000   0.000000   0.000000   0.000000
    11  C    0.000000   0.000000   0.000000   0.000000   0.000000   0.000000
    12  H    0.000000   0.000000   0.000000   0.000000   0.000000   0.000000
    13  H    0.000000   0.000000   0.000000   0.000000   0.000000   0.000000
    14  C    0.000000   0.000000   0.000000   0.000000   0.000000   0.000000
    15  H    0.000000   0.000000   0.000000   0.000000   0.000000   0.000000
    16  H    0.000000   0.000000   0.000000   0.000000   0.000000   0.000000
    17  H    0.000000   0.000000   0.000000   0.000000   0.000000   0.000000
               7          8          9         10         11         12
     1  C    0.000000   0.000000   0.000000   0.000000   0.000000   0.000000
     2  H    0.000000   0.000000   0.000000   0.000000   0.000000   0.000000
     3  H    0.000000   0.000000   0.000000   0.000000   0.000000   0.000000
     4  H    0.000000   0.000000   0.000000   0.000000   0.000000   0.000000
     5  C    0.000000   0.000000   0.000000   0.000000   0.000000   0.000000
     6  H    0.000000   0.000000   0.000000   0.000000   0.000000   0.000000
     7  H    0.904640   0.000000   0.000000   0.000000   0.000000   0.000000
     8  C    0.000000   4.200782   0.000000   0.000000   0.000000   0.000000
     9  H    0.000000   0.000000   0.901449   0.000000   0.000000   0.000000
    10  H    0.000000   0.000000   0.000000   0.901433   0.000000   0.000000
    11  C    0.000000   0.000000   0.000000   0.000000   4.188510   0.000000
    12  H    0.000000   0.000000   0.000000   0.000000   0.000000   0.904636
    13  H    0.000000   0.000000   0.000000   0.000000   0.000000   0.000000
    14  C    0.000000   0.000000   0.000000   0.000000   0.000000   0.000000
    15  H    0.000000   0.000000   0.000000   0.000000   0.000000   0.000000
    16  H    0.000000   0.000000   0.000000   0.000000   0.000000   0.000000
    17  H    0.000000   0.000000   0.000000   0.000000   0.000000   0.000000
              13         14         15         16         17
     1  C    0.000000   0.000000   0.000000   0.000000   0.000000
     2  H    0.000000   0.000000   0.000000   0.000000   0.000000
     3  H    0.000000   0.000000   0.000000   0.000000   0.000000
     4  H    0.000000   0.000000   0.000000   0.000000   0.000000
     5  C    0.000000   0.000000   0.000000   0.000000   0.000000
     6  H    0.000000   0.000000   0.000000   0.000000   0.000000
     7  H    0.000000   0.000000   0.000000   0.000000   0.000000
     8  C    0.000000   0.000000   0.000000   0.000000   0.000000
     9  H    0.000000   0.000000   0.000000   0.000000   0.000000
    10  H    0.000000   0.000000   0.000000   0.000000   0.000000
    11  C    0.000000   0.000000   0.000000   0.000000   0.000000
    12  H    0.000000   0.000000   0.000000   0.000000   0.000000
    13  H    0.904649   0.000000   0.000000   0.000000   0.000000
    14  C    0.000000   4.271682   0.000000   0.000000   0.000000
    15  H    0.000000   0.000000   0.909351   0.000000   0.000000
    16  H    0.000000   0.000000   0.000000   0.909988   0.000000
    17  H    0.000000   0.000000   0.000000   0.000000   0.909351
 Mulliken charges:
               1
     1  C   -0.271682
     2  H    0.090648
     3  H    0.090012
     4  H    0.090649
     5  C   -0.188510
     6  H    0.095355
     7  H    0.095360
     8  C   -0.200782
     9  H    0.098551
    10  H    0.098567
    11  C   -0.188510
    12  H    0.095364
    13  H    0.095351
    14  C   -0.271682
    15  H    0.090649
    16  H    0.090012
    17  H    0.090649
 Sum of Mulliken charges =   0.00000
 Mulliken charges with hydrogens summed into heavy atoms:
               1
     1  C   -0.000373
     5  C    0.002205
     8  C   -0.003663
    11  C    0.002205
    14  C   -0.000373
 Charge=              0.0000 electrons
 Dipole moment (field-independent basis, Debye):
    X=              0.0000    Y=             -0.0206    Z=             -0.0001  Tot=              0.0206
 N-N= 1.230253416826D+02 E-N=-2.039155147381D+02  KE=-2.066289985168D+01
 Leave Link  601 at Wed Mar 15 14:23:40 2017, MaxMem=   134217728 cpu:         0.1
 (Enter /n/sw/g09_D.01/g09/l701.exe)
 Compute integral first derivatives.
 ... and contract with generalized density number  0.
 Leave Link  701 at Wed Mar 15 14:23:40 2017, MaxMem=   134217728 cpu:         0.1
 (Enter /n/sw/g09_D.01/g09/l702.exe)
 L702 exits ... SP integral derivatives will be done elsewhere.
 Leave Link  702 at Wed Mar 15 14:23:40 2017, MaxMem=   134217728 cpu:         0.1
 (Enter /n/sw/g09_D.01/g09/l703.exe)
 Compute integral first derivatives, UseDBF=F ICtDFT=           0.
 Integral derivatives from FoFJK, PRISM(SPDF).
 Calling FoFJK, ICntrl=      2127 FMM=F ISym2X=0 I1Cent= 0 IOpClX= 0 NMat=1 NMatS=1 NMatT=0.
 FoFJK:  IHMeth=41 ICntrl=    2127 DoSepK=F KAlg= 0 I1Cent=   0 FoldK=F
 IRaf=         0 NMat=   1 IRICut=       1 DoRegI=T DoRafI=F ISym2E= 0.
 FoFCou: FMM=F IPFlag=           0 FMFlag=      100000 FMFlg1=         800
         NFxFlg=           0 DoJE=F BraDBF=F KetDBF=F FulRan=T
         wScrn=  0.000000 ICntrl=    2127 IOpCl=  0 I1Cent=           0 NGrid=           0
         NMat0=    1 NMatS0=      1 NMatT0=    0 NMatD0=    1 NMtDS0=    0 NMtDT0=    0
 Symmetry not used in FoFCou.
 Leave Link  703 at Wed Mar 15 14:23:40 2017, MaxMem=   134217728 cpu:         0.1
 (Enter /n/sw/g09_D.01/g09/l716.exe)
 Dipole        = 4.20669322D-08-8.12159748D-03-2.93292763D-05
 ***** Axes restored to original set *****
 -------------------------------------------------------------------
 Center     Atomic                   Forces (Hartrees/Bohr)
 Number     Number              X              Y              Z
 -------------------------------------------------------------------
      1        6           0.012029841    0.017011742    0.029535361
      2        1           0.003820245   -0.016692492   -0.003037919
      3        1           0.003966758    0.005609640   -0.014748326
      4        1          -0.017011373   -0.001961848   -0.003037917
      5        6          -0.023991278   -0.033939445   -0.000892262
      6        1           0.024051540    0.003196904    0.000012679
      7        1          -0.005001472    0.023744172    0.000013438
      8        6           0.024193141    0.034209680   -0.000000094
      9        1           0.005041743   -0.024684405    0.000005617
     10        1          -0.024960397   -0.003464791   -0.000005671
     11        6          -0.024049375   -0.033898349    0.000892131
     12        1          -0.004968524    0.023753255   -0.000026907
     13        1           0.024053921    0.003162774    0.000000913
     14        6           0.012088764    0.016970136   -0.029535260
     15        1           0.003786734   -0.016697901    0.003050601
     16        1           0.003967083    0.005609331    0.014748367
     17        1          -0.017017352   -0.001928403    0.003025252
 -------------------------------------------------------------------
 Cartesian Forces:  Max     0.034209680 RMS     0.016081348
 Leave Link  716 at Wed Mar 15 14:23:41 2017, MaxMem=   134217728 cpu:         0.0
 (Enter /n/sw/g09_D.01/g09/l103.exe)

 GradGradGradGradGradGradGradGradGradGradGradGradGradGradGradGradGradGrad
 Berny optimization.
 FormGI is forming the generalized inverse of G from B-inverse, IUseBI=4.
 Internal  Forces:  Max     0.024960291 RMS     0.008388772
 Search for a local minimum.
 Step number   1 out of a maximum of   92
 All quantities printed in internal units (Hartrees-Bohrs-Radians)
 RMS Force = .83888D-02 SwitMx=.10000D-02 MixMth= 1
 Mixed Optimization -- RFO/linear search
 Second derivative matrix not updated -- first step.
 ITU=  0
     Eigenvalues ---    0.00237   0.00237   0.00237   0.00237   0.03840
     Eigenvalues ---    0.03840   0.03840   0.04896   0.04896   0.04896
     Eigenvalues ---    0.05720   0.05720   0.05720   0.05720   0.07655
     Eigenvalues ---    0.07655   0.07655   0.11701   0.11701   0.11701
     Eigenvalues ---    0.16000   0.16000   0.16000   0.16000   0.16000
     Eigenvalues ---    0.16000   0.21948   0.21948   0.21948   0.28519
     Eigenvalues ---    0.28519   0.28519   0.28519   0.37230   0.37230
     Eigenvalues ---    0.37230   0.37230   0.37230   0.37230   0.37230
     Eigenvalues ---    0.37230   0.37230   0.37230   0.37230   0.37230
 RFO step:  Lambda=-1.59344257D-02 EMin= 2.36824021D-03
 Linear search not attempted -- first point.
 Iteration  1 RMS(Cart)=  0.02303610 RMS(Int)=  0.00031431
 Iteration  2 RMS(Cart)=  0.00026074 RMS(Int)=  0.00007530
 Iteration  3 RMS(Cart)=  0.00000008 RMS(Int)=  0.00007530
 ITry= 1 IFail=0 DXMaxC= 6.59D-02 DCOld= 1.00D+10 DXMaxT= 3.00D-01 DXLimC= 3.00D+00 Rises=F
 Variable       Old X    -DE/DX   Delta X   Delta X   Delta X     New X
                                 (Linear)    (Quad)   (Total)
    R1        2.02201   0.01701   0.00000   0.04382   0.04382   2.06582
    R2        2.02201   0.01601   0.00000   0.04123   0.04123   2.06324
    R3        2.02201   0.01701   0.00000   0.04382   0.04382   2.06582
    R4        2.91018  -0.00992   0.00000  -0.03294  -0.03294   2.87724
    R5        2.02201   0.02405   0.00000   0.06195   0.06195   2.08396
    R6        2.02201   0.02405   0.00000   0.06196   0.06196   2.08396
    R7        2.91018  -0.00855   0.00000  -0.02838  -0.02838   2.88180
    R8        2.02201   0.02495   0.00000   0.06427   0.06427   2.08628
    R9        2.02201   0.02496   0.00000   0.06429   0.06429   2.08630
   R10        2.91018  -0.00855   0.00000  -0.02838  -0.02838   2.88180
   R11        2.02201   0.02406   0.00000   0.06196   0.06196   2.08397
   R12        2.02201   0.02405   0.00000   0.06194   0.06194   2.08395
   R13        2.91018  -0.00992   0.00000  -0.03294  -0.03294   2.87724
   R14        2.02201   0.01701   0.00000   0.04382   0.04382   2.06582
   R15        2.02201   0.01601   0.00000   0.04123   0.04123   2.06324
   R16        2.02201   0.01701   0.00000   0.04382   0.04382   2.06582
    A1        1.91063  -0.00324   0.00000  -0.01856  -0.01872   1.89192
    A2        1.91063  -0.00376   0.00000  -0.02109  -0.02134   1.88930
    A3        1.91063   0.00380   0.00000   0.02169   0.02148   1.93211
    A4        1.91063  -0.00324   0.00000  -0.01856  -0.01872   1.89192
    A5        1.91063   0.00263   0.00000   0.01483   0.01467   1.92530
    A6        1.91063   0.00380   0.00000   0.02169   0.02148   1.93211
    A7        1.91063   0.00101   0.00000   0.00698   0.00697   1.91761
    A8        1.91063   0.00101   0.00000   0.00699   0.00698   1.91762
    A9        1.91063  -0.00200   0.00000  -0.00373  -0.00374   1.90689
   A10        1.91063  -0.00202   0.00000  -0.02389  -0.02387   1.88677
   A11        1.91063   0.00100   0.00000   0.00683   0.00682   1.91746
   A12        1.91063   0.00100   0.00000   0.00683   0.00682   1.91746
   A13        1.91063   0.00119   0.00000   0.00785   0.00785   1.91849
   A14        1.91063   0.00119   0.00000   0.00787   0.00787   1.91850
   A15        1.91063  -0.00252   0.00000  -0.00569  -0.00570   1.90494
   A16        1.91063  -0.00225   0.00000  -0.02574  -0.02572   1.88491
   A17        1.91063   0.00119   0.00000   0.00783   0.00783   1.91847
   A18        1.91063   0.00120   0.00000   0.00788   0.00789   1.91852
   A19        1.91063   0.00100   0.00000   0.00685   0.00685   1.91748
   A20        1.91063   0.00100   0.00000   0.00680   0.00680   1.91743
   A21        1.91063  -0.00200   0.00000  -0.00373  -0.00374   1.90689
   A22        1.91063  -0.00202   0.00000  -0.02389  -0.02387   1.88677
   A23        1.91063   0.00101   0.00000   0.00699   0.00698   1.91762
   A24        1.91063   0.00101   0.00000   0.00698   0.00697   1.91760
   A25        1.91063   0.00380   0.00000   0.02169   0.02148   1.93212
   A26        1.91063   0.00263   0.00000   0.01483   0.01467   1.92530
   A27        1.91063   0.00380   0.00000   0.02168   0.02147   1.93210
   A28        1.91063  -0.00324   0.00000  -0.01857  -0.01872   1.89191
   A29        1.91063  -0.00376   0.00000  -0.02109  -0.02134   1.88930
   A30        1.91063  -0.00324   0.00000  -0.01855  -0.01871   1.89192
    D1        1.04718   0.00059   0.00000   0.00999   0.00997   1.05715
    D2        3.14157  -0.00065   0.00000  -0.01072  -0.01074   3.13083
    D3       -1.04722  -0.00003   0.00000  -0.00036  -0.00039  -1.04760
    D4       -1.04722   0.00062   0.00000   0.01035   0.01036  -1.03686
    D5        1.04718  -0.00062   0.00000  -0.01035  -0.01036   1.03682
    D6        3.14157   0.00000   0.00000   0.00000   0.00000   3.14158
    D7        3.14157   0.00065   0.00000   0.01072   0.01075  -3.13087
    D8       -1.04722  -0.00059   0.00000  -0.00999  -0.00997  -1.05718
    D9        1.04718   0.00003   0.00000   0.00037   0.00039   1.04757
   D10        1.04719  -0.00065   0.00000  -0.01093  -0.01093   1.03626
   D11       -1.04720   0.00065   0.00000   0.01097   0.01098  -1.03622
   D12        3.14159   0.00000   0.00000  -0.00001  -0.00001   3.14158
   D13       -1.04720  -0.00127   0.00000  -0.02137  -0.02138  -1.06858
   D14        3.14159   0.00002   0.00000   0.00053   0.00053  -3.14106
   D15        1.04719  -0.00063   0.00000  -0.01046  -0.01046   1.03673
   D16        3.14159  -0.00002   0.00000  -0.00048  -0.00047   3.14111
   D17        1.04719   0.00128   0.00000   0.02143   0.02143   1.06863
   D18       -1.04720   0.00063   0.00000   0.01044   0.01044  -1.03676
   D19        1.04528  -0.00062   0.00000  -0.01018  -0.01018   1.03510
   D20       -1.04912   0.00063   0.00000   0.01072   0.01072  -1.03840
   D21        3.13967   0.00001   0.00000   0.00029   0.00029   3.13997
   D22        3.13967   0.00002   0.00000   0.00075   0.00075   3.14042
   D23        1.04528   0.00128   0.00000   0.02164   0.02165   1.06693
   D24       -1.04912   0.00065   0.00000   0.01122   0.01122  -1.03790
   D25       -1.04912  -0.00127   0.00000  -0.02115  -0.02116  -1.07028
   D26        3.13967  -0.00002   0.00000  -0.00026  -0.00026   3.13942
   D27        1.04528  -0.00064   0.00000  -0.01068  -0.01069   1.03459
   D28        1.04671   0.00003   0.00000   0.00041   0.00043   1.04715
   D29        3.14111   0.00000   0.00000   0.00004   0.00004   3.14115
   D30       -1.04768  -0.00003   0.00000  -0.00032  -0.00034  -1.04802
   D31        3.14111   0.00065   0.00000   0.01080   0.01082  -3.13125
   D32       -1.04768   0.00062   0.00000   0.01043   0.01043  -1.03725
   D33        1.04671   0.00059   0.00000   0.01006   0.01005   1.05676
   D34       -1.04768  -0.00059   0.00000  -0.00991  -0.00989  -1.05757
   D35        1.04671  -0.00062   0.00000  -0.01028  -0.01028   1.03643
   D36        3.14111  -0.00064   0.00000  -0.01064  -0.01067   3.13044
         Item               Value     Threshold  Converged?
 Maximum Force            0.024960     0.000450     NO 
 RMS     Force            0.008389     0.000300     NO 
 Maximum Displacement     0.065917     0.001800     NO 
 RMS     Displacement     0.022999     0.001200     NO 
 Predicted change in Energy=-8.362549D-03
 Lowest energy point so far.  Saving SCF results.
 GradGradGradGradGradGradGradGradGradGradGradGradGradGradGradGradGradGrad

 Leave Link  103 at Wed Mar 15 14:23:41 2017, MaxMem=   134217728 cpu:         0.0
 (Enter /n/sw/g09_D.01/g09/l202.exe)
                          Input orientation:                          
 ---------------------------------------------------------------------
 Center     Atomic      Atomic             Coordinates (Angstroms)
 Number     Number       Type             X           Y           Z
 ---------------------------------------------------------------------
      1          6           0       -2.885549    0.770940   -0.083718
      2          1           0       -2.532116   -0.263346   -0.103608
      3          1           0       -2.529544    1.274158   -0.984886
      4          1           0       -3.978494    0.759666   -0.103740
      5          6           0       -2.377370    1.489586    1.158669
      6          1           0       -1.274665    1.502592    1.159473
      7          1           0       -2.732386    2.533664    1.159328
      8          6           0       -2.887927    0.767940    2.401298
      9          1           0       -2.533460   -0.277620    2.401377
     10          1           0       -3.991859    0.753871    2.401219
     11          6           0       -2.377522    1.489693    3.643928
     12          1           0       -2.731113    2.534258    3.642299
     13          1           0       -1.274803    1.501194    3.644096
     14          6           0       -2.887779    0.772520    4.886314
     15          1           0       -2.536133   -0.262360    4.906953
     16          1           0       -2.531529    1.275564    5.787482
     17          1           0       -3.980756    0.763127    4.905587
 ---------------------------------------------------------------------
                    Distance matrix (angstroms):
                    1          2          3          4          5
     1  C    0.000000
     2  H    1.093187   0.000000
     3  H    1.091820   1.772167   0.000000
     4  H    1.093187   1.771599   1.772167   0.000000
     5  C    1.522571   2.165655   2.159721   2.165654   0.000000
     6  H    2.162356   2.509002   2.495031   3.075442   1.102783
     7  H    2.162364   3.075448   2.495026   2.509023   1.102786
     8  C    2.485019   2.732162   3.442519   2.732147   1.524981
     9  H    2.720136   2.505026   3.724890   3.072409   2.166034
    10  H    2.720133   3.072416   3.724885   2.505002   2.166052
    11  C    3.830148   4.140178   4.636322   4.140177   2.485259
    12  H    4.125086   4.679530   4.799929   4.328735   2.717515
    13  H    4.126060   4.328940   4.801395   4.680394   2.719032
    14  C    4.970032   5.108702   5.903470   5.107883   3.830148
    15  H    5.108483   5.010563   6.088900   5.313379   4.140550
    16  H    5.903470   6.088776   6.772368   6.088215   4.636322
    17  H    5.108101   5.314531   6.088090   5.009329   4.139804
                    6          7          8          9         10
     6  H    0.000000
     7  H    1.785515   0.000000
     8  C    2.164361   2.164363   0.000000
     9  H    2.509192   3.079866   1.104012   0.000000
    10  H    3.079880   2.509229   1.104022   1.786309   0.000000
    11  C    2.718268   2.718279   1.524981   2.166021   2.166066
    12  H    3.057777   2.482971   2.164382   3.079872   2.509888
    13  H    2.484624   3.060166   2.164342   2.508535   3.079875
    14  C    4.126074   4.125070   2.485020   2.720891   2.719381
    15  H    4.330123   4.679846   2.731956   2.505624   3.070923
    16  H    4.801012   4.800309   3.442520   3.725331   3.724447
    17  H    4.680076   4.327550   2.732354   3.073904   2.504409
                   11         12         13         14         15
    11  C    0.000000
    12  H    1.102789   0.000000
    13  H    1.102779   1.785515   0.000000
    14  C    1.522571   2.162369   2.162351   0.000000
    15  H    2.165659   3.075457   2.509159   1.093187   0.000000
    16  H    2.159721   2.495187   2.494869   1.091820   1.772162
    17  H    2.165650   2.508867   3.075432   1.093187   1.771598
                   16         17
    16  H    0.000000
    17  H    1.772171   0.000000
 Stoichiometry    C5H12
 Framework group  C1[X(C5H12)]
 Deg. of freedom    45
 Full point group                 C1      NOp   1
 RotChk:  IX=0 Diff= 7.71D-05
 Largest Abelian subgroup         C1      NOp   1
 Largest concise Abelian subgroup C1      NOp   1
                         Standard orientation:                         
 ---------------------------------------------------------------------
 Center     Atomic      Atomic             Coordinates (Angstroms)
 Number     Number       Type             X           Y           Z
 ---------------------------------------------------------------------
      1          6           0        2.485016   -0.333698   -0.000164
      2          1           0        2.505320   -0.973235    0.886198
      3          1           0        3.386184    0.282717   -0.001067
      4          1           0        2.504626   -0.974815   -0.885400
      5          6           0        1.242629    0.546470   -0.000463
      6          1           0        1.242241    1.194643    0.891726
      7          1           0        1.241554    1.193081   -0.893788
      8          6           0        0.000000   -0.337520    0.000788
      9          1           0        0.000338   -0.985658    0.894522
     10          1           0       -0.000336   -0.987270   -0.891786
     11          6           0       -1.242629    0.546470    0.000508
     12          1           0       -1.241416    1.194302   -0.891936
     13          1           0       -1.242382    1.193423    0.893579
     14          6           0       -2.485016   -0.333698   -0.000582
     15          1           0       -2.505243   -0.974752    0.884685
     16          1           0       -3.386184    0.282717   -0.000343
     17          1           0       -2.504702   -0.973299   -0.886912
 ---------------------------------------------------------------------
 Rotational constants (GHZ):     16.3659297      2.0388390      1.9231460
 Leave Link  202 at Wed Mar 15 14:23:41 2017, MaxMem=   134217728 cpu:         0.0
 (Enter /n/sw/g09_D.01/g09/l301.exe)
 Standard basis: VSTO-6G (5D, 7F)
 Ernie: Thresh=  0.10000D-02 Tol=  0.10000D-05 Strict=F.
  NNHCO=     0 NNPyr=     0 NCTC=     0               EPep=         0.000000000
    EC=        91.509467935  ECS=         1.829724427   EG=         0.547355758
   EHC=         0.000000000  EAt=       -26.628120368  AtH=         2.358010633
 EPDDG=         0.003323650  ECC=        93.889871770 EAtT=        28.986131002
 There are    32 symmetry adapted cartesian basis functions of A   symmetry.
 There are    32 symmetry adapted basis functions of A   symmetry.
    32 basis functions,   192 primitive gaussians,    32 cartesian basis functions
    16 alpha electrons       16 beta electrons
       nuclear repulsion energy       122.8760027722 Hartrees.
 IExCor=    0 DFT=F Ex=HF Corr=None ExCW=0 ScaHFX=  1.000000
 ScaDFX=  1.000000  1.000000  1.000000  1.000000 ScalE2=  1.000000  1.000000
 IRadAn=      0 IRanWt=     -1 IRanGd=            0 ICorTp=0 IEmpDi=  4
 Integral buffers will be    131072 words long.
 Regular integral format.
 Two-electron integral symmetry is turned off.
 Leave Link  301 at Wed Mar 15 14:23:41 2017, MaxMem=   134217728 cpu:         0.1
 (Enter /n/sw/g09_D.01/g09/l302.exe)
 Do NDO integrals.
 NPDir=0 NMtPBC=     1 NCelOv=     1 NCel=       1 NClECP=     1 NCelD=      1
         NCelK=      1 NCelE2=     1 NClLst=     1 CellRange=     0.0.
 One-electron integrals computed using PRISM.
 NBasis=    32 RedAO= F EigKep=  0.00D+00  NBF=    32
 NBsUse=    32 1.00D-04 EigRej=  0.00D+00 NBFU=    32
 Leave Link  302 at Wed Mar 15 14:23:41 2017, MaxMem=   134217728 cpu:         0.1
 (Enter /n/sw/g09_D.01/g09/l303.exe)
 DipDrv:  MaxL=1.
 Leave Link  303 at Wed Mar 15 14:23:41 2017, MaxMem=   134217728 cpu:         0.1
 (Enter /n/sw/g09_D.01/g09/l401.exe)
 Initial guess from the checkpoint file:  "/scratch/ekwan_pentane_conformation_1/Gau-22998.chk"
 B after Tr=     0.000000    0.000000    0.000000
         Rot=    1.000000   -0.000023    0.000000    0.000000 Ang=   0.00 deg.
 Guess basis will be translated and rotated to current coordinates.
 JPrj=0 DoOrth=T DoCkMO=T.
 Leave Link  401 at Wed Mar 15 14:23:41 2017, MaxMem=   134217728 cpu:         0.2
 (Enter /n/sw/g09_D.01/g09/l502.exe)
 Closed shell SCF:
 Using DIIS extrapolation, IDIIS=  1040.
 Overlap will be assumed to be unity.
 Two-electron integral symmetry not used.
 Keep J ints in memory in canonical form, NReq=894650.
 IVT=       80931 IEndB=       80931 NGot=   134217728 MDV=   134134845
 LenX=   134134845 LenY=   134133380
 Requested convergence on RMS density matrix=1.00D-08 within 128 cycles.
 Requested convergence on MAX density matrix=1.00D-06.
 Requested convergence on             energy=1.00D-06.
 No special actions if energy rises.
 FoFCou: FMM=F IPFlag=           0 FMFlag=           0 FMFlg1=           0
         NFxFlg=           0 DoJE=F BraDBF=F KetDBF=F FulRan=T
         wScrn=  0.000000 ICntrl=     600 IOpCl=  2 I1Cent=           0 NGrid=           0
         NMat0=    1 NMatS0=     62 NMatT0=    0 NMatD0=    1 NMtDS0=    0 NMtDT0=    0
 Symmetry not used in FoFCou.

 Cycle   1  Pass 1  IDiag  1:
 E=-0.536116883870079E-01
 DIIS: error= 2.12D-03 at cycle   1 NSaved=   1.
 NSaved= 1 IEnMin= 1 EnMin=-0.536116883870079E-01 IErMin= 1 ErrMin= 2.12D-03
 ErrMax= 2.12D-03  0.00D+00 EMaxC= 1.00D-01 BMatC= 3.11D-04 BMatP= 3.11D-04
 IDIUse=3 WtCom= 9.79D-01 WtEn= 2.12D-02
 Coeff-Com:  0.100D+01
 Coeff-En:   0.100D+01
 Coeff:      0.100D+01
 GapD=    2.000 DampG=2.000 DampE=1.000 DampFc=2.0000 IDamp=-1.
 RMSDP=7.58D-04 MaxDP=3.21D-03              OVMax= 0.00D+00

 Cycle   2  Pass 1  IDiag  3:
 E=-0.543340782693207E-01 Delta-E=       -0.000722389882 Rises=F Damp=F
 DIIS: error= 5.73D-04 at cycle   2 NSaved=   2.
 NSaved= 2 IEnMin= 2 EnMin=-0.543340782693207E-01 IErMin= 2 ErrMin= 5.73D-04
 ErrMax= 5.73D-04  0.00D+00 EMaxC= 1.00D-01 BMatC= 2.13D-05 BMatP= 3.11D-04
 IDIUse=3 WtCom= 9.94D-01 WtEn= 5.73D-03
 Coeff-Com: -0.319D+00 0.132D+01
 Coeff-En:   0.000D+00 0.100D+01
 Coeff:     -0.317D+00 0.132D+01
 Gap=     0.535 Goal=   None    Shift=    0.000
 RMSDP=3.21D-04 MaxDP=1.33D-03 DE=-7.22D-04 OVMax= 2.38D-03

 Cycle   3  Pass 1  IDiag  3:
 E=-0.544047437374928E-01 Delta-E=       -0.000070665468 Rises=F Damp=F
 DIIS: error= 6.29D-05 at cycle   3 NSaved=   3.
 NSaved= 3 IEnMin= 3 EnMin=-0.544047437374928E-01 IErMin= 3 ErrMin= 6.29D-05
 ErrMax= 6.29D-05  0.00D+00 EMaxC= 1.00D-01 BMatC= 4.42D-07 BMatP= 2.13D-05
 IDIUse=1 WtCom= 1.00D+00 WtEn= 0.00D+00
 Coeff-Com:  0.131D+00-0.593D+00 0.146D+01
 Coeff:      0.131D+00-0.593D+00 0.146D+01
 Gap=     0.535 Goal=   None    Shift=    0.000
 RMSDP=6.83D-05 MaxDP=3.22D-04 DE=-7.07D-05 OVMax= 5.12D-04

 Cycle   4  Pass 1  IDiag  3:
 E=-0.544070238572374E-01 Delta-E=       -0.000002280120 Rises=F Damp=F
 DIIS: error= 1.49D-05 at cycle   4 NSaved=   4.
 NSaved= 4 IEnMin= 4 EnMin=-0.544070238572374E-01 IErMin= 4 ErrMin= 1.49D-05
 ErrMax= 1.49D-05  0.00D+00 EMaxC= 1.00D-01 BMatC= 1.75D-08 BMatP= 4.42D-07
 IDIUse=1 WtCom= 1.00D+00 WtEn= 0.00D+00
 Coeff-Com: -0.644D-01 0.297D+00-0.826D+00 0.159D+01
 Coeff:     -0.644D-01 0.297D+00-0.826D+00 0.159D+01
 Gap=     0.535 Goal=   None    Shift=    0.000
 RMSDP=1.44D-05 MaxDP=8.63D-05 DE=-2.28D-06 OVMax= 1.23D-04

 Cycle   5  Pass 1  IDiag  3:
 E=-0.544071162106547E-01 Delta-E=       -0.000000092353 Rises=F Damp=F
 DIIS: error= 3.25D-06 at cycle   5 NSaved=   5.
 NSaved= 5 IEnMin= 5 EnMin=-0.544071162106547E-01 IErMin= 5 ErrMin= 3.25D-06
 ErrMax= 3.25D-06  0.00D+00 EMaxC= 1.00D-01 BMatC= 4.30D-10 BMatP= 1.75D-08
 IDIUse=1 WtCom= 1.00D+00 WtEn= 0.00D+00
 Coeff-Com:  0.240D-01-0.111D+00 0.312D+00-0.687D+00 0.146D+01
 Coeff:      0.240D-01-0.111D+00 0.312D+00-0.687D+00 0.146D+01
 Gap=     0.535 Goal=   None    Shift=    0.000
 RMSDP=2.30D-06 MaxDP=2.10D-05 DE=-9.24D-08 OVMax= 1.83D-05

 Cycle   6  Pass 1  IDiag  3:
 E=-0.544071186221942E-01 Delta-E=       -0.000000002412 Rises=F Damp=F
 DIIS: error= 5.95D-07 at cycle   6 NSaved=   6.
 NSaved= 6 IEnMin= 6 EnMin=-0.544071186221942E-01 IErMin= 6 ErrMin= 5.95D-07
 ErrMax= 5.95D-07  0.00D+00 EMaxC= 1.00D-01 BMatC= 2.15D-11 BMatP= 4.30D-10
 IDIUse=1 WtCom= 1.00D+00 WtEn= 0.00D+00
 Coeff-Com: -0.112D-01 0.518D-01-0.146D+00 0.327D+00-0.810D+00 0.159D+01
 Coeff:     -0.112D-01 0.518D-01-0.146D+00 0.327D+00-0.810D+00 0.159D+01
 Gap=     0.535 Goal=   None    Shift=    0.000
 RMSDP=5.48D-07 MaxDP=5.30D-06 DE=-2.41D-09 OVMax= 5.38D-06

 Cycle   7  Pass 1  IDiag  3:
 E=-0.544071187564867E-01 Delta-E=       -0.000000000134 Rises=F Damp=F
 DIIS: error= 2.37D-07 at cycle   7 NSaved=   7.
 NSaved= 7 IEnMin= 7 EnMin=-0.544071187564867E-01 IErMin= 7 ErrMin= 2.37D-07
 ErrMax= 2.37D-07  0.00D+00 EMaxC= 1.00D-01 BMatC= 1.66D-12 BMatP= 2.15D-11
 IDIUse=1 WtCom= 1.00D+00 WtEn= 0.00D+00
 Coeff-Com:  0.461D-02-0.212D-01 0.602D-01-0.135D+00 0.359D+00-0.919D+00
 Coeff-Com:  0.165D+01
 Coeff:      0.461D-02-0.212D-01 0.602D-01-0.135D+00 0.359D+00-0.919D+00
 Coeff:      0.165D+01
 Gap=     0.535 Goal=   None    Shift=    0.000
 RMSDP=1.71D-07 MaxDP=1.98D-06 DE=-1.34D-10 OVMax= 1.47D-06

 Cycle   8  Pass 1  IDiag  3:
 E=-0.544071187675996E-01 Delta-E=       -0.000000000011 Rises=F Damp=F
 DIIS: error= 4.02D-08 at cycle   8 NSaved=   8.
 NSaved= 8 IEnMin= 8 EnMin=-0.544071187675996E-01 IErMin= 8 ErrMin= 4.02D-08
 ErrMax= 4.02D-08  0.00D+00 EMaxC= 1.00D-01 BMatC= 7.05D-14 BMatP= 1.66D-12
 IDIUse=1 WtCom= 1.00D+00 WtEn= 0.00D+00
 Coeff-Com: -0.106D-02 0.486D-02-0.138D-01 0.311D-01-0.883D-01 0.253D+00
 Coeff-Com: -0.603D+00 0.142D+01
 Coeff:     -0.106D-02 0.486D-02-0.138D-01 0.311D-01-0.883D-01 0.253D+00
 Coeff:     -0.603D+00 0.142D+01
 Gap=     0.535 Goal=   None    Shift=    0.000
 RMSDP=3.21D-08 MaxDP=3.26D-07 DE=-1.11D-11 OVMax= 2.49D-07

 Cycle   9  Pass 1  IDiag  3:
 E=-0.544071187680260E-01 Delta-E=        0.000000000000 Rises=F Damp=F
 DIIS: error= 7.84D-09 at cycle   9 NSaved=   9.
 NSaved= 9 IEnMin= 9 EnMin=-0.544071187680260E-01 IErMin= 9 ErrMin= 7.84D-09
 ErrMax= 7.84D-09  0.00D+00 EMaxC= 1.00D-01 BMatC= 4.95D-15 BMatP= 7.05D-14
 IDIUse=1 WtCom= 1.00D+00 WtEn= 0.00D+00
 Coeff-Com:  0.141D-03-0.643D-03 0.183D-02-0.415D-02 0.140D-01-0.480D-01
 Coeff-Com:  0.146D+00-0.573D+00 0.146D+01
 Coeff:      0.141D-03-0.643D-03 0.183D-02-0.415D-02 0.140D-01-0.480D-01
 Coeff:      0.146D+00-0.573D+00 0.146D+01
 Gap=     0.535 Goal=   None    Shift=    0.000
 RMSDP=8.32D-09 MaxDP=6.80D-08 DE=-4.26D-13 OVMax= 6.51D-08

 Cycle  10  Pass 2  IDiag  1:
 SCF Done:  E(RPDDG) = -0.544071187680E-01 A.U. after   10 cycles
            NFock=  9  Conv=0.83D-08     -V/T= 0.9974
 KE=-2.059524216541D+01 PE=-2.038707852204D+02 EE= 1.015356174948D+02
 Leave Link  502 at Wed Mar 15 14:23:41 2017, MaxMem=   134217728 cpu:         0.1
 (Enter /n/sw/g09_D.01/g09/l701.exe)
 Compute integral first derivatives.
 ... and contract with generalized density number  0.
 Leave Link  701 at Wed Mar 15 14:23:42 2017, MaxMem=   134217728 cpu:         0.1
 (Enter /n/sw/g09_D.01/g09/l702.exe)
 L702 exits ... SP integral derivatives will be done elsewhere.
 Leave Link  702 at Wed Mar 15 14:23:42 2017, MaxMem=   134217728 cpu:         0.1
 (Enter /n/sw/g09_D.01/g09/l703.exe)
 Compute integral first derivatives, UseDBF=F ICtDFT=           0.
 Integral derivatives from FoFJK, PRISM(SPDF).
 Calling FoFJK, ICntrl=      2127 FMM=F ISym2X=0 I1Cent= 0 IOpClX= 0 NMat=1 NMatS=1 NMatT=0.
 FoFJK:  IHMeth=41 ICntrl=    2127 DoSepK=F KAlg= 0 I1Cent=   0 FoldK=F
 IRaf=         0 NMat=   1 IRICut=       1 DoRegI=T DoRafI=F ISym2E= 0.
 FoFCou: FMM=F IPFlag=           0 FMFlag=      100000 FMFlg1=         800
         NFxFlg=           0 DoJE=F BraDBF=F KetDBF=F FulRan=T
         wScrn=  0.000000 ICntrl=    2127 IOpCl=  0 I1Cent=           0 NGrid=           0
         NMat0=    1 NMatS0=      1 NMatT0=    0 NMatD0=    1 NMtDS0=    0 NMtDT0=    0
 Symmetry not used in FoFCou.
 Leave Link  703 at Wed Mar 15 14:23:42 2017, MaxMem=   134217728 cpu:         0.1
 (Enter /n/sw/g09_D.01/g09/l716.exe)
 Dipole        = 6.27264125D-08-1.13250274D-02-1.51190280D-05
 ***** Axes restored to original set *****
 -------------------------------------------------------------------
 Center     Atomic                   Forces (Hartrees/Bohr)
 Number     Number              X              Y              Z
 -------------------------------------------------------------------
      1        6           0.003732757    0.005278523    0.006495580
      2        1          -0.000503259   -0.001889054   -0.001667829
      3        1          -0.000452800   -0.000640521   -0.002280142
      4        1          -0.001613391   -0.001103866   -0.001668001
      5        6          -0.006598143   -0.009337747   -0.002549498
      6        1           0.003405698    0.002519356   -0.000107947
      7        1           0.001241732    0.004050839   -0.000109881
      8        6           0.006573312    0.009290704    0.000000102
      9        1          -0.001340018   -0.004346308    0.000005288
     10        1          -0.003653446   -0.002702940   -0.000005251
     11        6          -0.006614887   -0.009325975    0.002549436
     12        1           0.001243427    0.004048762    0.000114376
     13        1           0.003408221    0.002518406    0.000103466
     14        6           0.003749563    0.005266648   -0.006495678
     15        1          -0.000506236   -0.001887150    0.001669548
     16        1          -0.000456362   -0.000638007    0.002280155
     17        1          -0.001616168   -0.001101670    0.001666276
 -------------------------------------------------------------------
 Cartesian Forces:  Max     0.009337747 RMS     0.003765656
 Leave Link  716 at Wed Mar 15 14:23:42 2017, MaxMem=   134217728 cpu:         0.1
 (Enter /n/sw/g09_D.01/g09/l103.exe)

 GradGradGradGradGradGradGradGradGradGradGradGradGradGradGradGradGradGrad
 Berny optimization.
 Using GEDIIS/GDIIS optimizer.
 FormGI is forming the generalized inverse of G from B-inverse, IUseBI=4.
 Internal  Forces:  Max     0.003687596 RMS     0.001474090
 Search for a local minimum.
 Step number   2 out of a maximum of   92
 All quantities printed in internal units (Hartrees-Bohrs-Radians)
 RMS Force = .14741D-02 SwitMx=.10000D-02 MixMth= 1
 Mixed Optimization -- RFO/linear search
 Update second derivatives using D2CorX and points    1    2
 DE= -9.12D-03 DEPred=-8.36D-03 R= 1.09D+00
 TightC=F SS=  1.41D+00  RLast= 2.23D-01 DXNew= 5.0454D-01 6.6810D-01
 Trust test= 1.09D+00 RLast= 2.23D-01 DXMaxT set to 5.05D-01
 ITU=  1  0
 Use linear search instead of GDIIS.
     Eigenvalues ---    0.00237   0.00237   0.00237   0.00237   0.03801
     Eigenvalues ---    0.03801   0.03807   0.04626   0.04856   0.04857
     Eigenvalues ---    0.05497   0.05498   0.05534   0.05534   0.07658
     Eigenvalues ---    0.07671   0.07671   0.11703   0.11714   0.11714
     Eigenvalues ---    0.15087   0.16000   0.16000   0.16000   0.16000
     Eigenvalues ---    0.16004   0.21880   0.21884   0.22017   0.28235
     Eigenvalues ---    0.28519   0.28519   0.28897   0.35677   0.37230
     Eigenvalues ---    0.37230   0.37230   0.37230   0.37230   0.37230
     Eigenvalues ---    0.37230   0.37230   0.37230   0.37230   0.37652
 RFO step:  Lambda=-1.04754893D-03 EMin= 2.36824020D-03
 Quartic linear search produced a step of  0.21553.
 Iteration  1 RMS(Cart)=  0.01755788 RMS(Int)=  0.00019134
 Iteration  2 RMS(Cart)=  0.00023598 RMS(Int)=  0.00009251
 Iteration  3 RMS(Cart)=  0.00000002 RMS(Int)=  0.00009251
 ITry= 1 IFail=0 DXMaxC= 5.74D-02 DCOld= 1.00D+10 DXMaxT= 5.05D-01 DXLimC= 3.00D+00 Rises=F
 Variable       Old X    -DE/DX   Delta X   Delta X   Delta X     New X
                                 (Linear)    (Quad)   (Total)
    R1        2.06582   0.00165   0.00944  -0.00153   0.00792   2.07374
    R2        2.06324   0.00144   0.00889  -0.00182   0.00707   2.07031
    R3        2.06582   0.00165   0.00944  -0.00153   0.00792   2.07374
    R4        2.87724  -0.00188  -0.00710  -0.00284  -0.00994   2.86730
    R5        2.08396   0.00344   0.01335   0.00140   0.01476   2.09871
    R6        2.08396   0.00344   0.01335   0.00140   0.01476   2.09872
    R7        2.88180   0.00074  -0.00612   0.00759   0.00147   2.88327
    R8        2.08628   0.00369   0.01385   0.00185   0.01571   2.10199
    R9        2.08630   0.00369   0.01386   0.00186   0.01571   2.10201
   R10        2.88180   0.00074  -0.00612   0.00759   0.00147   2.88327
   R11        2.08397   0.00344   0.01335   0.00141   0.01476   2.09873
   R12        2.08395   0.00343   0.01335   0.00140   0.01475   2.09870
   R13        2.87724  -0.00188  -0.00710  -0.00284  -0.00994   2.86730
   R14        2.06582   0.00166   0.00944  -0.00153   0.00792   2.07374
   R15        2.06324   0.00144   0.00889  -0.00182   0.00707   2.07031
   R16        2.06582   0.00165   0.00944  -0.00153   0.00792   2.07374
    A1        1.89192  -0.00197  -0.00403  -0.01160  -0.01579   1.87613
    A2        1.88930  -0.00210  -0.00460  -0.01339  -0.01814   1.87116
    A3        1.93211   0.00194   0.00463   0.01117   0.01563   1.94774
    A4        1.89192  -0.00197  -0.00403  -0.01160  -0.01579   1.87613
    A5        1.92530   0.00194   0.00316   0.01286   0.01585   1.94115
    A6        1.93211   0.00194   0.00463   0.01117   0.01563   1.94774
    A7        1.91761  -0.00017   0.00150   0.00195   0.00331   1.92092
    A8        1.91762  -0.00017   0.00150   0.00195   0.00331   1.92092
    A9        1.90689   0.00152  -0.00081   0.01754   0.01654   1.92343
   A10        1.88677  -0.00112  -0.00514  -0.02982  -0.03492   1.85185
   A11        1.91746  -0.00005   0.00147   0.00397   0.00532   1.92278
   A12        1.91746  -0.00004   0.00147   0.00399   0.00535   1.92281
   A13        1.91849  -0.00016   0.00169   0.00291   0.00445   1.92294
   A14        1.91850  -0.00016   0.00170   0.00294   0.00448   1.92298
   A15        1.90494   0.00178  -0.00123   0.02002   0.01857   1.92350
   A16        1.88491  -0.00118  -0.00554  -0.03217  -0.03767   1.84725
   A17        1.91847  -0.00016   0.00169   0.00288   0.00442   1.92289
   A18        1.91852  -0.00016   0.00170   0.00296   0.00451   1.92303
   A19        1.91748  -0.00004   0.00148   0.00402   0.00538   1.92286
   A20        1.91743  -0.00005   0.00147   0.00394   0.00529   1.92272
   A21        1.90689   0.00152  -0.00081   0.01754   0.01654   1.92343
   A22        1.88677  -0.00112  -0.00514  -0.02982  -0.03492   1.85185
   A23        1.91762  -0.00017   0.00151   0.00195   0.00331   1.92093
   A24        1.91760  -0.00017   0.00150   0.00195   0.00331   1.92092
   A25        1.93212   0.00194   0.00463   0.01117   0.01563   1.94775
   A26        1.92530   0.00194   0.00316   0.01286   0.01585   1.94115
   A27        1.93210   0.00194   0.00463   0.01117   0.01563   1.94773
   A28        1.89191  -0.00197  -0.00404  -0.01160  -0.01579   1.87611
   A29        1.88930  -0.00210  -0.00460  -0.01339  -0.01814   1.87116
   A30        1.89192  -0.00197  -0.00403  -0.01160  -0.01579   1.87614
    D1        1.05715   0.00084   0.00215   0.01817   0.02035   1.07749
    D2        3.13083  -0.00074  -0.00232  -0.01601  -0.01835   3.11248
    D3       -1.04760   0.00005  -0.00008   0.00110   0.00101  -1.04659
    D4       -1.03686   0.00079   0.00223   0.01710   0.01935  -1.01751
    D5        1.03682  -0.00079  -0.00223  -0.01709  -0.01934   1.01748
    D6        3.14158   0.00000   0.00000   0.00002   0.00002  -3.14159
    D7       -3.13087   0.00074   0.00232   0.01602   0.01835  -3.11251
    D8       -1.05718  -0.00084  -0.00215  -0.01817  -0.02034  -1.07752
    D9        1.04757  -0.00005   0.00008  -0.00106  -0.00098   1.04659
   D10        1.03626  -0.00082  -0.00236  -0.01793  -0.02032   1.01594
   D11       -1.03622   0.00082   0.00237   0.01797   0.02037  -1.01586
   D12        3.14158   0.00000   0.00000  -0.00004  -0.00004   3.14153
   D13       -1.06858  -0.00153  -0.00461  -0.03378  -0.03846  -1.10704
   D14       -3.14106   0.00011   0.00011   0.00212   0.00223  -3.13883
   D15        1.03673  -0.00071  -0.00225  -0.01589  -0.01818   1.01856
   D16        3.14111  -0.00011  -0.00010  -0.00208  -0.00218   3.13894
   D17        1.06863   0.00153   0.00462   0.03382   0.03851   1.10714
   D18       -1.03676   0.00071   0.00225   0.01581   0.01810  -1.01865
   D19        1.03510  -0.00071  -0.00219  -0.01410  -0.01634   1.01876
   D20       -1.03840   0.00072   0.00231   0.01760   0.01995  -1.01845
   D21        3.13997   0.00001   0.00006   0.00177   0.00183  -3.14139
   D22        3.14042   0.00011   0.00016   0.00380   0.00396  -3.13880
   D23        1.06693   0.00154   0.00467   0.03550   0.04024   1.10717
   D24       -1.03790   0.00082   0.00242   0.01968   0.02213  -1.01576
   D25       -1.07028  -0.00153  -0.00456  -0.03210  -0.03673  -1.10701
   D26        3.13942  -0.00010  -0.00006  -0.00040  -0.00045   3.13897
   D27        1.03459  -0.00082  -0.00230  -0.01622  -0.01856   1.01603
   D28        1.04715  -0.00005   0.00009  -0.00074  -0.00065   1.04650
   D29        3.14115   0.00000   0.00001   0.00033   0.00034   3.14149
   D30       -1.04802   0.00005  -0.00007   0.00142   0.00134  -1.04668
   D31       -3.13125   0.00075   0.00233   0.01640   0.01876  -3.11250
   D32       -1.03725   0.00079   0.00225   0.01748   0.01975  -1.01750
   D33        1.05676   0.00084   0.00217   0.01856   0.02075   1.07751
   D34       -1.05757  -0.00084  -0.00213  -0.01778  -0.01994  -1.07751
   D35        1.03643  -0.00079  -0.00222  -0.01671  -0.01894   1.01749
   D36        3.13044  -0.00074  -0.00230  -0.01563  -0.01795   3.11250
         Item               Value     Threshold  Converged?
 Maximum Force            0.003688     0.000450     NO 
 RMS     Force            0.001474     0.000300     NO 
 Maximum Displacement     0.057405     0.001800     NO 
 RMS     Displacement     0.017416     0.001200     NO 
 Predicted change in Energy=-7.355108D-04
 Lowest energy point so far.  Saving SCF results.
 GradGradGradGradGradGradGradGradGradGradGradGradGradGradGradGradGradGrad

 Leave Link  103 at Wed Mar 15 14:23:42 2017, MaxMem=   134217728 cpu:         0.0
 (Enter /n/sw/g09_D.01/g09/l202.exe)
                          Input orientation:                          
 ---------------------------------------------------------------------
 Center     Atomic      Atomic             Coordinates (Angstroms)
 Number     Number       Type             X           Y           Z
 ---------------------------------------------------------------------
      1          6           0       -2.882356    0.774999   -0.094555
      2          1           0       -2.537234   -0.265978   -0.133165
      3          1           0       -2.528929    1.273083   -1.004089
      4          1           0       -3.978840    0.755209   -0.134118
      5          6           0       -2.381102    1.483779    1.149877
      6          1           0       -1.270963    1.515471    1.149149
      7          1           0       -2.719465    2.541574    1.148180
      8          6           0       -2.886196    0.771901    2.401298
      9          1           0       -2.549681   -0.288298    2.401777
     10          1           0       -3.998002    0.737534    2.400820
     11          6           0       -2.382130    1.484507    3.652720
     12          1           0       -2.720558    2.542287    3.653631
     13          1           0       -1.271999    1.516265    3.654234
     14          6           0       -2.884236    0.776330    4.897152
     15          1           0       -2.539096   -0.264613    4.936540
     16          1           0       -2.531473    1.274885    5.806685
     17          1           0       -3.980747    0.756511    4.935936
 ---------------------------------------------------------------------
                    Distance matrix (angstroms):
                    1          2          3          4          5
     1  C    0.000000
     2  H    1.097376   0.000000
     3  H    1.095559   1.768414   0.000000
     4  H    1.097376   1.766650   1.768414   0.000000
     5  C    1.517312   2.175368   2.169288   2.175368   0.000000
     6  H    2.166030   2.534035   2.505526   3.091500   1.110591
     7  H    2.166035   3.091504   2.505520   2.534051   1.110595
     8  C    2.495858   2.760882   3.460561   2.760885   1.525762
     9  H    2.733669   2.535071   3.746767   3.092275   2.176220
    10  H    2.733673   3.092242   3.746784   2.535072   2.176260
    11  C    3.846518   4.173869   4.663917   4.173907   2.502844
    12  H    4.147094   4.718028   4.831351   4.373096   2.739426
    13  H    4.146824   4.372826   4.831043   4.717818   2.739155
    14  C    4.991708   5.148874   5.932760   5.149008   3.846518
    15  H    5.148839   5.069706   6.136423   5.368843   4.173806
    16  H    5.932760   6.136458   6.810775   6.136618   4.663916
    17  H    5.149043   5.368892   6.136653   5.070054   4.173970
                    6          7          8          9         10
     6  H    0.000000
     7  H    1.775118   0.000000
     8  C    2.174800   2.174821   0.000000
     9  H    2.541216   3.099759   1.112324   0.000000
    10  H    3.099775   2.541323   1.112337   1.774814   0.000000
    11  C    2.739255   2.739326   1.525761   2.176183   2.176296
    12  H    3.070522   2.505452   2.174866   3.099767   2.541365
    13  H    2.505086   3.070297   2.174755   2.541175   3.099768
    14  C    4.146867   4.147050   2.495858   2.733543   2.733799
    15  H    4.372779   4.717933   2.760850   2.534897   3.092343
    16  H    4.831088   4.831306   3.460561   3.746635   3.746915
    17  H    4.717913   4.373142   2.760917   3.092174   2.535246
                   11         12         13         14         15
    11  C    0.000000
    12  H    1.110600   0.000000
    13  H    1.110586   1.775118   0.000000
    14  C    1.517312   2.166042   2.166023   0.000000
    15  H    2.175374   3.091516   2.534042   1.097376   0.000000
    16  H    2.169288   2.505535   2.505511   1.095559   1.768407
    17  H    2.175361   2.534044   3.091488   1.097376   1.766650
                   16         17
    16  H    0.000000
    17  H    1.768421   0.000000
 Stoichiometry    C5H12
 Framework group  C1[X(C5H12)]
 Deg. of freedom    45
 Full point group                 C1      NOp   1
 RotChk:  IX=2 Diff= 3.80D-04
 Largest Abelian subgroup         C1      NOp   1
 Largest concise Abelian subgroup C1      NOp   1
                         Standard orientation:                         
 ---------------------------------------------------------------------
 Center     Atomic      Atomic             Coordinates (Angstroms)
 Number     Number       Type             X           Y           Z
 ---------------------------------------------------------------------
      1          6           0        2.495854   -0.328630    0.000041
      2          1           0        2.534877   -0.978669    0.883308
      3          1           0        3.405387    0.282105    0.000162
      4          1           0        2.535003   -0.978505   -0.883342
      5          6           0        1.251422    0.539485    0.000033
      6          1           0        1.252565    1.206963    0.887661
      7          1           0        1.252703    1.207154   -0.887457
      8          6           0        0.000000   -0.333379   -0.000134
[...]
 ! D36   D(13,11,14,17)        178.2412         -DE/DX =    0.0                 !
 --------------------------------------------------------------------------------
 GradGradGradGradGradGradGradGradGradGradGradGradGradGradGradGradGradGrad

 Leave Link  103 at Wed Mar 15 14:23:49 2017, MaxMem=   134217728 cpu:         0.0
 (Enter /n/sw/g09_D.01/g09/l9999.exe)
 1\1\GINC-HOLY2A13208\Freq\RPDDG\ZDO\C5H12\ROOT\15-Mar-2017\0\\#P Geom=
 AllCheck Guess=TCheck SCRF=Check GenChk RPDDG/ZDO Freq\\pentane confor
 mation 1\\0,1\C,-2.8822203776,0.7753082066,-0.0866025102\H,-2.53934544
 13,-0.2656055044,-0.1253771567\H,-2.5316994868,1.2694882286,-0.9984809
 799\H,-3.9779025966,0.753312723,-0.1261615128\C,-2.3807149943,1.484313
 145,1.1549888124\H,-1.2713616874,1.5210523794,1.1559844244\H,-2.714179
 0969,2.5429991082,1.1551892481\C,-2.8858567418,0.7721095102,2.40129833
 89\H,-2.5544490674,-0.2889178739,2.4017077049\H,-3.9967340196,0.732645
 5389,2.400888843\C,-2.3816507446,1.4849757095,3.647607983\H,-2.7151061
 255,2.5436631962,3.6465879978\H,-1.2722959925,1.521706266,3.647432127\
 C,-2.8841110047,0.7766469267,4.8891991984\H,-2.5412885305,-0.264253701
 3,4.9287922919\H,-2.5342680481,1.2713069998,5.8010777294\H,-3.97982295
 42,0.7546965515,4.9279396374\\Version=EM64L-G09RevD.01\State=1-A\HF=-0
 .0552411\RMSD=1.173e-09\RMSF=7.625e-05\ZeroPoint=0.1536086\Thermal=0.1
 607126\Dipole=-0.0079411,-0.0112041,0.\DipoleDeriv=-0.1687273,0.010314
 1,0.0298064,0.0102994,-0.1614414,0.0420405,0.0118798,0.0167299,-0.2285
 256,0.0619218,-0.0007886,-0.0166555,0.0088947,0.0382619,0.0009521,-0.0
 041045,-0.0151279,0.0595357,0.0657274,-0.0088772,-0.0127223,-0.0088633
 ,0.05948,-0.017994,0.0049714,0.0069864,0.0303508,0.0383343,0.0006054,0
 .0064095,-0.009083,0.0618415,-0.0154035,-0.0129194,-0.0088926,0.059543
 9,-0.0687975,0.0040993,-0.0158011,0.0041151,-0.0659221,-0.0222394,0.00
 27092,0.0038938,0.0185704,0.0302297,0.0033613,-0.0037432,-0.0134195,0.
 0458658,0.0029297,-0.002304,-0.0017699,0.029092,0.0472902,-0.0074132,0
 .004023,0.0093651,0.0288003,-0.002552,-0.0008966,-0.0027658,0.0290976,
 -0.0923744,0.0004489,-0.0000084,0.0004477,-0.0920528,0.0000059,-0.0000
 087,0.0000062,-0.0703548,0.0501724,-0.0053621,0.0000062,0.009311,0.029
 1775,0.0000057,0.0000022,0.,0.0375134,0.0302512,0.0023046,-0.0000034,-
 0.0123693,0.0490951,-0.0000077,0.0000007,-0.0000021,0.0375151,-0.06880
 61,0.0041116,0.0157325,0.0040967,-0.0659135,0.0222879,-0.0027773,-0.00
 38455,0.0185704,0.0472918,-0.0074177,-0.0040051,0.0093636,0.0288021,0.
 0025592,0.0009056,0.0027607,0.0290926,0.0302261,0.0033621,0.0037424,-0
 .0134157,0.0458661,-0.0029489,0.0023118,0.001763,0.029097,-0.1686965,0
 .0103101,-0.0297674,0.0103251,-0.1614721,-0.0420681,-0.0118405,-0.0167
 577,-0.2285256,0.0619062,-0.0007913,0.0166577,0.0088973,0.0382689,-0.0
 009342,0.0041018,0.0151385,0.0595439,0.065721,-0.0088652,0.0127544,-0.
 0088798,0.0594864,0.0179713,-0.00494,-0.0070086,0.0303508,0.0383298,0.
 0005957,-0.0064257,-0.0090873,0.0618547,0.0153955,0.0129085,0.0088917,
 0.0595356\Polar=34.3276098,0.6851999,34.8096664,-0.0012539,0.0008878,3
 7.1961086\HyperPolar=-14.5103218,-0.5865025,6.1719458,-11.186627,-0.01
 26246,-0.0044412,0.0126228,9.645826,13.618012,0.0000059\PG=C01 [X(C5H1
 2)]\NImag=0\\0.52351192,0.00313097,0.52571033,-0.00268283,-0.00376000,
 0.55644267,-0.06679629,0.07860576,0.00172726,0.06736662,0.07713426,-0.
 26776486,-0.00524322,-0.08700008,0.29535193,0.00100984,-0.00371122,-0.
 04034383,-0.00072223,0.00953852,0.04287557,-0.06789667,-0.03968777,0.0
 7080344,0.00512779,0.00367940,-0.00553017,0.06826667,-0.03968910,-0.09
 570563,0.09982949,-0.00683514,-0.01457992,0.01905298,0.04522242,0.0999
 5798,0.06907384,0.09738756,-0.21405364,0.00034253,0.00429125,-0.000679
 91,-0.07681361,-0.10829450,0.23690420,-0.29437984,-0.00292974,-0.00570
 226,-0.01179319,0.00489629,0.00013693,-0.01143905,-0.00214116,0.003927
 69,0.32470131,-0.00145752,-0.04017443,-0.00011171,0.02387736,-0.001671
 83,-0.00083709,-0.01264800,0.00197116,0.00173660,0.00353236,0.03800601
 ,-0.00401981,-0.00028116,-0.04035052,-0.00085788,-0.00014282,0.0026700
 1,0.01980716,0.00110290,-0.00066413,0.00944061,0.00248906,0.04288739,-
 0.10089597,-0.03297749,-0.05578232,0.00641093,0.00152816,0.00567232,0.
 00632169,0.00410744,0.00476539,-0.00669536,-0.01297102,-0.02277657,0.5
 2703924,-0.03297700,-0.12418788,-0.07885537,-0.00834313,-0.01073744,-0
 .02215099,0.00409841,0.00920648,0.00671111,-0.00309074,0.00238711,-0.0
 0200307,0.01067340,0.53456012,-0.05513023,-0.07793478,-0.20658861,-0.0
 0020281,-0.00561599,0.00034202,-0.00698920,-0.00988458,-0.01853042,-0.
 00523399,-0.00206540,0.00032375,0.00644257,0.00911848,0.54722162,-0.00
 653843,-0.00257142,-0.00443653,0.00001924,-0.00017909,0.00005569,-0.00
 021246,0.00005809,-0.00047189,0.00009087,-0.00028168,-0.00041278,-0.27
 236544,-0.00370074,-0.00021735,0.29813520,-0.01264031,0.00281072,-0.00
 240261,-0.00019874,-0.00008935,0.00011374,0.00002881,0.00012187,0.0000
 6331,-0.00034104,-0.00049424,-0.00148507,-0.00038157,-0.04110404,0.000
 09445,0.00538526,0.03870793,-0.02067283,-0.00170484,-0.00041200,0.0000
 6795,0.00003723,0.00037112,-0.00039139,0.00015659,-0.00054400,-0.00040
 425,-0.00156727,-0.00230608,0.00074609,0.00033954,-0.03981797,-0.00220
 789,-0.00023433,0.04612301,0.00653975,-0.00802440,-0.00078501,-0.00023
 298,-0.00045561,-0.00126219,0.00005750,0.00012426,0.00021670,0.0000408
 1,-0.00019111,0.00008869,-0.06529132,0.07245977,0.00010488,-0.01142968
 ,0.02150047,0.00004996,0.06390208,0.00203657,-0.01028365,-0.00497575,-
 0.00039632,-0.00016942,-0.00088360,0.00015364,-0.00014886,-0.00042431,
 -0.00017152,-0.00011088,0.00009043,0.06914131,-0.24817857,-0.00001462,
 0.00453514,-0.00227118,0.00001262,-0.07700798,0.27293848,0.00525573,-0
 .02006789,-0.00039571,-0.00134260,-0.00090287,-0.00230706,0.00027797,-
 0.00031743,-0.00054337,0.00001244,0.00007658,0.00037111,0.00001810,0.0
 0097807,-0.03981802,-0.00001757,0.00006979,0.00294279,0.00056462,-0.00
 233519,0.04612786,0.00655256,0.00475719,-0.00529089,0.00020964,0.00034
 173,0.00080106,-0.00033402,-0.00095031,-0.00111327,-0.00004267,0.00017
 527,-0.00192474,-0.10001661,-0.03248181,0.05264951,-0.00715292,-0.0128
 6624,0.02104721,0.00668093,0.00187282,-0.00526374,0.52254909,0.0047649
 8,0.00990168,-0.00750645,0.00026607,0.00013700,-0.00176090,-0.00095017
 ,-0.00100424,-0.00157330,0.00025110,0.00039211,0.00016957,-0.03248181,
 -0.12278187,0.07424393,-0.00298559,0.00281297,0.00181954,-0.00801570,-
 0.01100415,0.02045819,0.01099965,0.53028702,0.00474352,0.00666050,-0.0
 4383447,0.00070997,-0.00146075,-0.00333240,-0.00094326,-0.00133330,-0.
 00165098,-0.00161136,0.00018319,-0.00333534,0.05255565,0.07411123,-0.1
 9021385,0.00482377,0.00264086,-0.00012417,0.00089968,0.00543377,-0.000
 14084,-0.00001881,0.00001333,0.56549923,0.00015786,0.00019757,-0.00061
 713,-0.00019024,0.00007272,-0.00021700,-0.00002776,-0.00003094,-0.0000
 2080,-0.00004709,0.00001657,-0.00006908,0.00659437,-0.00803502,0.00083
 321,0.00007901,-0.00016675,-0.00010996,-0.00023817,-0.00046588,0.00120
 087,-0.06469237,0.07133943,-0.00002830,0.06360046,0.00036083,0.0000156
 3,0.00173454,0.00005922,-0.00040648,0.00062012,-0.00002301,-0.00004943
 ,-0.00007586,0.00001598,-0.00004711,0.00004001,0.00185677,-0.01109449,
 0.00546732,-0.00012951,-0.00002189,-0.00012372,-0.00046010,-0.00026979
 ,0.00077950,0.06806174,-0.24607505,0.00008085,-0.07606065,0.27219804,-
 0.00082749,0.00188953,-0.00383876,0.00021006,-0.00062203,0.00038471,0.
 00000285,-0.00000295,0.00007554,-0.00004265,0.00006709,-0.00008164,-0.
 00518009,0.02056945,-0.00019519,-0.00007573,-0.00015033,0.00040230,0.0
 0120331,0.00082007,-0.00225754,-0.00002744,0.00008205,-0.04011807,0.00
 002623,-0.00008879,0.04810937,-0.00014642,0.00025590,0.00184388,-0.000
 05740,0.00001243,0.00006068,-0.00003010,-0.00002389,-0.00006473,-0.000
 42400,-0.00002265,0.00065646,-0.00723167,-0.00299890,0.00487701,0.0000
 2302,-0.00036893,0.00033875,0.00008206,-0.00012847,-0.00008036,-0.2697
 4218,-0.00406877,-0.00008569,-0.01156112,0.00462965,-0.00000674,0.2968
 4937,0.00009264,0.00031697,-0.00000865,0.00001306,-0.00003694,-0.00005
 190,-0.00003175,-0.00004706,-0.00004476,-0.00000984,-0.00017276,0.0000
 0137,-0.01288254,0.00271493,0.00258902,-0.00037463,-0.00053004,0.00139
 030,-0.00016572,-0.00002507,-0.00014463,-0.00079111,-0.04102769,-0.000
 00013,0.02152823,-0.00235944,0.00000954,0.00598985,0.03895072,0.002060
 00,-0.00015556,-0.00383631,0.00007745,-0.00001799,-0.00008151,-0.00000
 378,0.00000176,0.00007551,-0.00065713,-0.00000798,0.00038408,0.0211240
 8,0.00193552,-0.00017786,0.00037619,0.00140609,-0.00225848,-0.00011679
 ,-0.00012114,0.00040224,-0.00008653,-0.00000134,-0.04011721,-0.0000112
 4,0.00000319,0.00301036,0.00009249,0.00000472,0.04811105,-0.00025482,-
 0.00088713,0.00102382,-0.00005165,-0.00003876,-0.00002315,0.00017806,0
 .00016778,0.00018434,-0.00002487,-0.00002856,0.00002655,0.00621533,0.0
 0474388,0.00491602,-0.00014218,0.00006770,0.00228868,0.00020655,0.0003
 6955,-0.00078917,-0.09993775,-0.03245397,-0.05247060,0.00659109,0.0018
 6365,0.00518416,-0.00721218,-0.01289193,-0.02112265,0.52704937,-0.0008
 8723,-0.00087742,0.00144342,-0.00003799,-0.00004847,0.00002004,0.00016
 751,0.00029601,0.00025998,-0.00002926,-0.00007531,-0.00001515,0.004736
 04,0.00955014,0.00690472,0.00024907,0.00035981,-0.00003450,0.00018800,
 0.00001439,0.00214584,-0.03245415,-0.12286071,-0.07417146,-0.00801993,
 -0.01110825,-0.02056954,-0.00300009,0.00271249,-0.00193933,0.01067697,
 0.53454997,0.00087757,0.00123690,-0.00225241,0.00001749,0.00008740,0.0
 0003419,-0.00016796,-0.00023740,-0.00028914,0.00007662,0.00004554,0.00
 003426,-0.00488215,-0.00692870,-0.04218369,0.00197866,-0.00007533,-0.0
 0394256,-0.00072469,0.00183989,-0.00394620,-0.05256443,-0.07430418,-0.
 19021387,-0.00082388,-0.00546001,-0.00017795,-0.00488082,-0.00260025,-
 0.00019510,-0.00646425,-0.00910310,0.54722161,-0.00004703,-0.00000828,
 -0.00000910,-0.00001121,0.00000431,-0.00000080,0.00000017,0.00000284,-
 0.00000067,0.00000770,-0.00001856,-0.00001272,0.00020543,0.00019001,0.
 00072772,-0.00005076,0.00000277,0.00005340,-0.00021637,0.00006463,0.00
 020913,0.00667758,-0.00800085,-0.00089025,-0.00023636,-0.00046016,-0.0
 0120154,0.00008193,-0.00016573,0.00011666,-0.06528999,0.07245930,-0.00
 016310,0.06390163,-0.00003284,-0.00003109,0.00011781,0.00000469,-0.000
 00843,0.00001607,0.00001151,0.00002268,0.00001620,-0.00000356,-0.00000
 018,-0.00000434,0.00037136,0.00001225,-0.00184179,0.00001660,-0.000043
 94,-0.00002238,0.00006503,-0.00043026,-0.00068109,0.00187961,-0.011017
 91,-0.00542646,-0.00046590,-0.00027065,-0.00082148,-0.00012848,-0.0000
 2488,0.00012130,0.06914012,-0.24818107,0.00017860,-0.07700856,0.272942
 79,-0.00000051,0.00009272,0.00000351,-0.00000377,0.00001784,0.00003224
 ,0.00000779,0.00000984,-0.00000839,0.00000302,-0.00001855,0.00002442,0
 .00079210,-0.00214786,-0.00394307,0.00003884,-0.00004295,-0.00005572,-
 0.00020901,0.00068113,-0.00043130,0.00526769,-0.02045846,-0.00012362,-
 0.00119910,-0.00078092,-0.00225850,0.00008021,0.00014477,0.00040226,-0
 .00007451,-0.00081153,-0.03981744,-0.00050996,0.00215539,0.04612446,-0
 .00002013,-0.00002329,0.00011414,0.00000762,-0.00000359,0.00000012,0.0
 0001569,0.00001697,0.00001551,-0.00001158,0.00000458,0.00001539,-0.000
 13896,0.00024800,-0.00197587,-0.00044727,-0.00001660,-0.00071180,-0.00
 005069,0.00001656,-0.00003884,-0.00713353,-0.00298673,-0.00482753,0.00
 007884,-0.00012960,0.00007553,0.00002356,-0.00037378,-0.00037427,-0.27
 236386,-0.00369854,0.00004331,-0.01142944,0.00453523,0.00000426,0.2981
 3103,0.00000127,-0.00005811,0.00003052,-0.00001859,-0.00000010,-0.0000
 1344,0.00000830,0.00000715,0.00000474,0.00000419,-0.00000808,0.0000046
 0,0.00006643,0.00035985,0.00007310,-0.00001620,-0.00019933,-0.00002884
 ,0.00000271,-0.00004391,0.00004294,-0.01287544,0.00281070,-0.00265219,
 -0.00016684,-0.00002179,0.00015040,-0.00036805,-0.00053154,-0.00140729
 ,-0.00038009,-0.04110443,-0.00009394,0.02150056,-0.00227142,-0.0000506
 9,0.00538423,0.03870821,0.00008762,0.00003030,0.00000362,-0.00001851,-
 0.00000329,0.00002441,0.00000671,0.00001062,-0.00000838,0.00001805,0.0
 0000239,0.00003226,-0.00228581,0.00003240,-0.00394570,0.00071180,0.000
 02871,-0.00042994,-0.00005340,0.00002239,-0.00005583,-0.02104565,-0.00
 182317,-0.00014139,0.00010979,0.00012382,0.00040228,-0.00033683,-0.001
 39150,-0.00225752,-0.00092195,-0.00034159,-0.03981856,-0.00007239,-0.0
 0000640,0.00294279,0.00239569,0.00024242,0.04612642,0.00024701,0.00017
 165,-0.00024913,-0.00001739,0.00000983,0.00002058,-0.00003357,-0.00003
 306,-0.00004573,0.00001751,0.00001382,0.00004916,-0.00025339,-0.000886
 63,-0.00087561,-0.00001997,0.00000125,-0.00008764,-0.00004704,-0.00003
 275,0.00000049,0.00655221,0.00475680,-0.00470788,0.00015675,0.00036260
 ,0.00083031,-0.00014346,0.00009153,-0.00205728,-0.10098144,-0.03300760
 ,0.05522939,0.00654307,0.00202982,-0.00525130,-0.00655783,-0.01263102,
 0.02067515,0.52350912,0.00017205,0.00036792,-0.00035226,0.00000149,0.0
 0002589,0.00005938,-0.00003308,-0.00005693,-0.00006463,0.00002212,-0.0
 0000906,0.00003917,-0.00088674,-0.00087884,-0.00123829,-0.00002333,-0.
 00005814,-0.00003029,-0.00000820,-0.00003120,-0.00009271,0.00476513,0.
 00990202,-0.00668573,0.00019933,0.00001368,-0.00189143,0.00025478,0.00
 031707,0.00015353,-0.03300702,-0.12410243,0.07786452,-0.00803934,-0.01
 026989,0.02006698,-0.00257032,0.00281304,0.00170096,0.00312999,0.52571
 311,0.00024963,0.00035191,-0.00054362,-0.00001759,0.00003501,0.0000421
 3,-0.00006396,-0.00009036,-0.00008429,0.00003883,-0.00000494,0.0000421
 8,-0.00102183,-0.00144483,-0.00225241,-0.00011415,-0.00003049,0.000003
 51,0.00000907,-0.00011781,0.00000363,0.00532665,0.00748113,-0.04383446
 ,0.00062004,-0.00173631,-0.00383564,-0.00184125,0.00000649,-0.00383942
 ,0.05588150,0.07878510,-0.20658855,0.00079470,0.00498243,-0.00041244,0
 .00443344,0.00239124,-0.00039526,0.00265672,0.00377850,0.55644263,-0.0
 0001738,0.00000155,0.00001754,0.00000788,-0.00000017,-0.00000396,0.000
 00280,0.00000075,0.00000080,-0.00000212,0.00000171,-0.00000950,-0.0000
 5166,-0.00003798,-0.00001754,0.00000761,-0.00001859,0.00001850,-0.0000
 1121,0.00000471,0.00000373,0.00021081,0.00026435,-0.00070739,-0.000190
 25,0.00005958,-0.00021052,-0.00005730,0.00001298,-0.00007743,0.0064149
 3,-0.00836016,0.00021197,-0.00023496,-0.00039627,0.00134440,0.00001938
 ,-0.00019860,-0.00006817,-0.06679077,0.07859722,-0.00178930,0.06736158
 ,0.00000985,0.00002584,-0.00003499,-0.00000017,0.00000573,0.00000216,-
 0.00000385,-0.00000651,-0.00000565,0.00000199,-0.00000082,0.00000175,-
 0.00003868,-0.00004853,-0.00008738,-0.00000359,-0.00000009,0.00000330,
 0.00000433,-0.00000845,-0.00001782,0.00034019,0.00013871,0.00145917,0.
 00007236,-0.00040648,0.00062251,0.00001239,-0.00003690,0.00001798,0.00
 152050,-0.01072245,0.00562311,-0.00045562,-0.00016845,0.00090135,-0.00
 017901,-0.00008931,-0.00003720,0.07712497,-0.26776273,0.00542372,-0.08
 698717,0.29534490,-0.00002064,-0.00005938,0.00004218,0.00000398,-0.000
 00218,-0.00002458,0.00000252,0.00000550,0.00000769,-0.00000480,0.00000
 838,-0.00001482,0.00002310,-0.00002002,0.00003425,-0.00000013,0.000013
 44,0.00002442,0.00000077,-0.00001604,0.00003226,-0.00079853,0.00175925
 ,-0.00333530,0.00021652,-0.00061964,0.00038475,-0.00006067,0.00005188,
 -0.00008165,-0.00566805,0.02215075,0.00032297,0.00126403,0.00088215,-0
 .00230605,-0.00005593,-0.00011373,0.00037115,-0.00107115,0.00389280,-0
 .04035092,0.00078732,-0.00973976,0.04288717,-0.00003365,-0.00003310,0.
 00006402,0.00000280,-0.00000386,-0.00000253,0.00000779,0.00000948,0.00
 000947,-0.00000452,-0.00000182,-0.00000436,0.00017807,0.00016780,0.000
 16823,0.00001571,0.00000830,-0.00000669,0.00000018,0.00001152,-0.00000
 779,-0.00033561,-0.00095088,0.00094480,-0.00002777,-0.00002307,-0.0000
 0292,-0.00003015,-0.00003179,0.00000372,0.00632017,0.00410731,0.007006
 03,0.00005787,0.00015317,-0.00027759,-0.00021310,0.00002908,0.00039160
 ,-0.06779288,-0.03965263,-0.07067392,0.00512379,0.00368517,0.00553214,
 0.06815255,-0.00003311,-0.00005685,0.00009032,0.00000075,-0.00000651,-
 0.00000550,0.00000946,0.00001445,0.00001336,-0.00000643,0.00000080,-0.
 00000421,0.00016750,0.00029599,0.00023721,0.00001697,0.00000714,-0.000
 01061,0.00000284,0.00002266,-0.00000985,-0.00095072,-0.00100265,0.0013
 3221,-0.00003093,-0.00004938,0.00000299,-0.00002385,-0.00004704,-0.000
 00171,0.00409747,0.00920799,0.00987267,0.00012389,-0.00014848,0.000317
 34,0.00005847,0.00012176,-0.00015691,-0.03965119,-0.09580939,-0.099921
 21,-0.00682134,-0.01459256,-0.01905090,0.04518226,0.10007207,0.0000457
 9,0.00006459,-0.00008429,-0.00000080,0.00000566,0.00000769,-0.00000946
 ,-0.00001337,-0.00001398,0.00000560,0.00000112,0.00000769,-0.00018407,
 -0.00026017,-0.00028914,-0.00001550,-0.00000474,-0.00000839,0.00000068
 ,-0.00001621,-0.00000838,0.00111479,0.00157222,-0.00165098,0.00002073,
 0.00007591,0.00007551,0.00006466,0.00004480,0.00007554,-0.00474894,-0.
 00672276,-0.01853042,-0.00021631,0.00042423,-0.00054418,0.00047210,-0.
 00006366,-0.00054320,-0.06894428,-0.09747931,-0.21405367,-0.00033460,-
 0.00428110,-0.00066353,0.07666426,0.10840026,0.23690422,0.00001758,0.0
 0002213,-0.00003887,-0.00000213,0.00000199,0.00000481,-0.00000452,-0.0
 0000643,-0.00000560,0.00000607,-0.00000080,0.00000338,-0.00002480,-0.0
 0002931,-0.00007665,-0.00001156,0.00000419,-0.00001808,0.00000769,-0.0
 0000356,-0.00000303,-0.00004534,0.00025211,0.00161370,-0.00004718,0.00
 001603,0.00004266,-0.00042400,-0.00000948,0.00065652,-0.00671687,-0.00
 308924,0.00523031,0.00004083,-0.00017155,-0.00001253,0.00009024,-0.000
 34195,0.00040628,-0.29438790,-0.00292136,0.00551137,-0.01179308,0.0048
 9634,-0.00015050,-0.01142124,-0.00214207,-0.00393463,0.32471619,0.0000
 1379,-0.00000908,0.00000498,0.00000172,-0.00000083,-0.00000838,-0.0000
 0182,0.00000080,-0.00000112,-0.00000080,0.00000754,-0.00000304,-0.0000
 2854,-0.00007532,-0.00004550,0.00000457,-0.00000808,-0.00000236,-0.000
 01856,-0.00000017,0.00001855,0.00017646,0.00039191,-0.00018510,0.00001
 666,-0.00004717,-0.00006709,-0.00002301,-0.00017276,0.00000826,-0.0129
 6015,0.00238962,0.00205439,-0.00019119,-0.00011108,-0.00007638,-0.0002
 8265,-0.00049259,0.00156607,-0.00144990,-0.04017399,0.00011035,0.02387
 740,-0.00167194,0.00085750,-0.01265695,0.00196999,-0.00174746,0.003522
 93,0.03800319,-0.00004919,-0.00003912,0.00004213,0.00000950,-0.0000017
 6,-0.00001480,0.00000435,0.00000421,0.00000769,-0.00000335,0.00000302,
 -0.00002458,-0.00002659,0.00001519,0.00003420,-0.00001543,-0.00000457,
 0.00003224,0.00001272,0.00000435,0.00002441,0.00192713,-0.00017141,-0.
 00333244,0.00006910,-0.00004001,-0.00008150,-0.00065707,-0.00000107,0.
 00038405,0.02277821,0.00199912,0.00034281,-0.00008878,-0.00009022,0.00
 037108,0.00041476,0.00148383,-0.00230710,0.00382814,0.00027873,-0.0403
 4345,0.00083412,0.00014884,0.00267001,-0.01980847,-0.00110544,-0.00068
 051,-0.00922914,-0.00248369,0.04287579\\0.00005043,0.00007160,0.000150
 53,0.00000664,-0.00005646,-0.00002428,0.00001779,0.00002508,-0.0000733
 9,-0.00005544,-0.00001251,-0.00002430,-0.00009484,-0.00013234,-0.00000
 993,0.00013030,-0.00005537,-0.00000194,-0.00009537,0.00010411,-0.00000
 203,0.00011511,0.00016263,0.,0.00008728,-0.00010025,0.00000025,-0.0001
 2194,0.00004978,-0.00000025,-0.00009422,-0.00013278,0.00000992,-0.0000
 9552,0.00010351,0.00000206,0.00013082,-0.00005503,0.00000191,0.0000496
 5,0.00007215,-0.00015052,0.00000669,-0.00005664,0.00002439,0.00001786,
 0.00002503,0.00007339,-0.00005525,-0.00001250,0.00002418\\\@


 IF AT FIRST YOU DON'T SUCCEED, TRY, TRY AGAIN.
 THEN GIVE UP;
 THERE'S NO USE BEING A DAMN FOOL ABOUT IT.

                                 -- W. C. FIELDS
 Job cpu time:       0 days  0 hours  0 minutes  2.0 seconds.
 File lengths (MBytes):  RWF=     10 Int=      0 D2E=      0 Chk=      2 Scr=      1
 Normal termination of Gaussian 09 at Wed Mar 15 14:23:49 2017.
