 Entering Gaussian System, Link 0=g09
 Input=pentane_conformation_4.gjf
 Output=pentane_conformation_4.out
 Initial command:
 /n/sw/g09_D.01/g09/l1.exe "/scratch/ekwan_pentane_conformation_4/Gau-62737.inp" -scrdir="/scratch/ekwan_pentane_conformation_4/"
 Entering Link 1 = /n/sw/g09_D.01/g09/l1.exe PID=     62740.
  
 Copyright (c) 1988,1990,1992,1993,1995,1998,2003,2009,2013,
            Gaussian, Inc.  All Rights Reserved.
  
 This is part of the Gaussian(R) 09 program.  It is based on
 the Gaussian(R) 03 system (copyright 2003, Gaussian, Inc.),
 the Gaussian(R) 98 system (copyright 1998, Gaussian, Inc.),
 the Gaussian(R) 94 system (copyright 1995, Gaussian, Inc.),
 the Gaussian 92(TM) system (copyright 1992, Gaussian, Inc.),
 the Gaussian 90(TM) system (copyright 1990, Gaussian, Inc.),
 the Gaussian 88(TM) system (copyright 1988, Gaussian, Inc.),
 the Gaussian 86(TM) system (copyright 1986, Carnegie Mellon
 University), and the Gaussian 82(TM) system (copyright 1983,
 Carnegie Mellon University). Gaussian is a federally registered
 trademark of Gaussian, Inc.
  
 This software contains proprietary and confidential information,
 including trade secrets, belonging to Gaussian, Inc.
  
 This software is provided under written license and may be
 used, copied, transmitted, or stored only in accord with that
 written license.
  
 The following legend is applicable only to US Government
 contracts under FAR:
  
                    RESTRICTED RIGHTS LEGEND
  
 Use, reproduction and disclosure by the US Government is
 subject to restrictions as set forth in subparagraphs (a)
 and (c) of the Commercial Computer Software - Restricted
 Rights clause in FAR 52.227-19.
  
 Gaussian, Inc.
 340 Quinnipiac St., Bldg. 40, Wallingford CT 06492
  
  
 ---------------------------------------------------------------
 Warning -- This program may not be used in any manner that
 competes with the business of Gaussian, Inc. or will provide
 assistance to any competitor of Gaussian, Inc.  The licensee
 of this program is prohibited from giving any competitor of
 Gaussian, Inc. access to this program.  By using this program,
 the user acknowledges that Gaussian, Inc. is engaged in the
 business of creating and licensing software in the field of
 computational chemistry and represents and warrants to the
 licensee that it is not a competitor of Gaussian, Inc. and that
 it will not use this program in any manner prohibited above.
 ---------------------------------------------------------------
  

 Cite this work as:
 Gaussian 09, Revision D.01,
 M. J. Frisch, G. W. Trucks, H. B. Schlegel, G. E. Scuseria, 
 M. A. Robb, J. R. Cheeseman, G. Scalmani, V. Barone, B. Mennucci, 
 G. A. Petersson, H. Nakatsuji, M. Caricato, X. Li, H. P. Hratchian, 
 A. F. Izmaylov, J. Bloino, G. Zheng, J. L. Sonnenberg, M. Hada, 
 M. Ehara, K. Toyota, R. Fukuda, J. Hasegawa, M. Ishida, T. Nakajima, 
 Y. Honda, O. Kitao, H. Nakai, T. Vreven, J. A. Montgomery, Jr., 
 J. E. Peralta, F. Ogliaro, M. Bearpark, J. J. Heyd, E. Brothers, 
 K. N. Kudin, V. N. Staroverov, T. Keith, R. Kobayashi, J. Normand, 
 K. Raghavachari, A. Rendell, J. C. Burant, S. S. Iyengar, J. Tomasi, 
 M. Cossi, N. Rega, J. M. Millam, M. Klene, J. E. Knox, J. B. Cross, 
 V. Bakken, C. Adamo, J. Jaramillo, R. Gomperts, R. E. Stratmann, 
 O. Yazyev, A. J. Austin, R. Cammi, C. Pomelli, J. W. Ochterski, 
 R. L. Martin, K. Morokuma, V. G. Zakrzewski, G. A. Voth, 
 P. Salvador, J. J. Dannenberg, S. Dapprich, A. D. Daniels, 
 O. Farkas, J. B. Foresman, J. V. Ortiz, J. Cioslowski, 
 and D. J. Fox, Gaussian, Inc., Wallingford CT, 2013.
 
 ******************************************
 Gaussian 09:  EM64L-G09RevD.01 24-Apr-2013
                15-Mar-2017 
 ******************************************
 %mem=1GB
 ------------------------
 #p opt freq=noraman pddg
 ------------------------
 1/14=-1,18=20,19=15,26=1,38=1/1,3;
 2/9=110,12=2,17=6,18=5,40=1/2;
 3/5=2,16=1,25=1,41=4000000,71=1/1,2,3;
 4/35=1/1;
 5/5=2,35=1,38=5/2;
 6/7=2,8=2,9=2,10=2,28=1/1;
 7//1,2,3,16;
 1/14=-1,18=20,19=15,26=1/3(2);
 2/9=110/2;
 99//99;
 2/9=110/2;
 3/5=2,16=1,25=1,41=4000000,71=1,135=20/1,2,3;
 4/5=5,16=3,35=1/1;
 5/5=2,35=1,38=5/2;
 7//1,2,3,16;
 1/14=-1,18=20,19=15,26=1/3(-5);
 2/9=110/2;
 6/7=2,8=2,9=2,10=2,19=2,28=1/1;
 99/9=1/99;
 Leave Link    1 at Wed Mar 15 15:24:41 2017, MaxMem=   134217728 cpu:         0.0
 (Enter /n/sw/g09_D.01/g09/l101.exe)
 ----------------------
 pentane conformation 4
 ----------------------
 Symbolic Z-matrix:
 Charge =  0 Multiplicity = 1
 C                     1.26964   1.41037   1.23993 
 H                     0.39267   2.06679   1.29093 
 H                     2.1584    2.04923   1.26344 
 H                     1.27364   0.80934   2.15716 
 C                     1.24631   0.53987  0. 
 H                     1.2746    1.16978  -0.91347 
 H                     2.15819  -0.09139  -0.04467 
 C                     0.       -0.33329   0.00003 
 H                     0.       -1.00756   0.88375 
 H                    0.        -1.0076   -0.88367 
 C                    -1.24631   0.53987   0.00001 
 H                    -2.13243  -0.05463  -0.30559 
 H                    -1.15168   1.34525  -0.7579 
 C                    -1.46206   1.13569   1.3763 
 H                    -0.61179   1.75402   1.68818 
 H                    -2.35448   1.76935   1.4024 
 H                    -1.58963   0.35827   2.13913 
 
 NAtoms=     17 NQM=       17 NQMF=       0 NMMI=      0 NMMIF=      0
                NMic=       0 NMicF=      0.
                    Isotopes and Nuclear Properties:
 (Nuclear quadrupole moments (NQMom) in fm**2, nuclear magnetic moments (NMagM)
  in nuclear magnetons)

  Atom         1           2           3           4           5           6           7           8           9          10
 IAtWgt=          12           1           1           1          12           1           1          12           1           1
 AtmWgt=  12.0000000   1.0078250   1.0078250   1.0078250  12.0000000   1.0078250   1.0078250  12.0000000   1.0078250   1.0078250
 NucSpn=           0           1           1           1           0           1           1           0           1           1
 AtZEff=   0.0000000   0.0000000   0.0000000   0.0000000   0.0000000   0.0000000   0.0000000   0.0000000   0.0000000   0.0000000
 NQMom=    0.0000000   0.0000000   0.0000000   0.0000000   0.0000000   0.0000000   0.0000000   0.0000000   0.0000000   0.0000000
 NMagM=    0.0000000   2.7928460   2.7928460   2.7928460   0.0000000   2.7928460   2.7928460   0.0000000   2.7928460   2.7928460
 AtZNuc=   6.0000000   1.0000000   1.0000000   1.0000000   6.0000000   1.0000000   1.0000000   6.0000000   1.0000000   1.0000000

  Atom        11          12          13          14          15          16          17
 IAtWgt=          12           1           1          12           1           1           1
 AtmWgt=  12.0000000   1.0078250   1.0078250  12.0000000   1.0078250   1.0078250   1.0078250
 NucSpn=           0           1           1           0           1           1           1
 AtZEff=   0.0000000   0.0000000   0.0000000   0.0000000   0.0000000   0.0000000   0.0000000
 NQMom=    0.0000000   0.0000000   0.0000000   0.0000000   0.0000000   0.0000000   0.0000000
 NMagM=    0.0000000   2.7928460   2.7928460   0.0000000   2.7928460   2.7928460   2.7928460
 AtZNuc=   6.0000000   1.0000000   1.0000000   6.0000000   1.0000000   1.0000000   1.0000000
 Leave Link  101 at Wed Mar 15 15:24:41 2017, MaxMem=   134217728 cpu:         0.2
 (Enter /n/sw/g09_D.01/g09/l103.exe)

 GradGradGradGradGradGradGradGradGradGradGradGradGradGradGradGradGradGrad
 Berny optimization.
 Initialization pass.
                           ----------------------------
                           !    Initial Parameters    !
                           ! (Angstroms and Degrees)  !
 --------------------------                            --------------------------
 ! Name  Definition              Value          Derivative Info.                !
 --------------------------------------------------------------------------------
 ! R1    R(1,2)                  1.0966         estimate D2E/DX2                !
 ! R2    R(1,3)                  1.0948         estimate D2E/DX2                !
 ! R3    R(1,4)                  1.0966         estimate D2E/DX2                !
 ! R4    R(1,5)                  1.5152         estimate D2E/DX2                !
 ! R5    R(5,6)                  1.11           estimate D2E/DX2                !
 ! R6    R(5,7)                  1.11           estimate D2E/DX2                !
 ! R7    R(5,8)                  1.5217         estimate D2E/DX2                !
 ! R8    R(8,9)                  1.1116         estimate D2E/DX2                !
 ! R9    R(8,10)                 1.1116         estimate D2E/DX2                !
 ! R10   R(8,11)                 1.5217         estimate D2E/DX2                !
 ! R11   R(11,12)                1.11           estimate D2E/DX2                !
 ! R12   R(11,13)                1.11           estimate D2E/DX2                !
 ! R13   R(11,14)                1.5152         estimate D2E/DX2                !
 ! R14   R(14,15)                1.0966         estimate D2E/DX2                !
 ! R15   R(14,16)                1.0948         estimate D2E/DX2                !
 ! R16   R(14,17)                1.0966         estimate D2E/DX2                !
 ! A1    A(2,1,3)              107.3917         estimate D2E/DX2                !
 ! A2    A(2,1,4)              106.9828         estimate D2E/DX2                !
 ! A3    A(2,1,5)              111.6942         estimate D2E/DX2                !
 ! A4    A(3,1,4)              107.3916         estimate D2E/DX2                !
 ! A5    A(3,1,5)              111.4279         estimate D2E/DX2                !
 ! A6    A(4,1,5)              111.6943         estimate D2E/DX2                !
 ! A7    A(1,5,6)              110.3059         estimate D2E/DX2                !
 ! A8    A(1,5,7)              110.3057         estimate D2E/DX2                !
 ! A9    A(1,5,8)              110.0139         estimate D2E/DX2                !
 ! A10   A(6,5,7)              105.5865         estimate D2E/DX2                !
 ! A11   A(6,5,8)              110.2749         estimate D2E/DX2                !
 ! A12   A(7,5,8)              110.2748         estimate D2E/DX2                !
 ! A13   A(5,8,9)              110.3692         estimate D2E/DX2                !
 ! A14   A(5,8,10)             110.3684         estimate D2E/DX2                !
 ! A15   A(5,8,11)             109.9704         estimate D2E/DX2                !
 ! A16   A(9,8,10)             105.3114         estimate D2E/DX2                !
 ! A17   A(9,8,11)             110.3689         estimate D2E/DX2                !
 ! A18   A(10,8,11)            110.3687         estimate D2E/DX2                !
 ! A19   A(8,11,12)            110.2747         estimate D2E/DX2                !
 ! A20   A(8,11,13)            110.275          estimate D2E/DX2                !
 ! A21   A(8,11,14)            110.0139         estimate D2E/DX2                !
 ! A22   A(12,11,13)           105.5865         estimate D2E/DX2                !
 ! A23   A(12,11,14)           110.3054         estimate D2E/DX2                !
 ! A24   A(13,11,14)           110.3063         estimate D2E/DX2                !
 ! A25   A(11,14,15)           111.6943         estimate D2E/DX2                !
 ! A26   A(11,14,16)           111.4279         estimate D2E/DX2                !
 ! A27   A(11,14,17)           111.6942         estimate D2E/DX2                !
 ! A28   A(15,14,16)           107.3915         estimate D2E/DX2                !
 ! A29   A(15,14,17)           106.9828         estimate D2E/DX2                !
 ! A30   A(16,14,17)           107.3918         estimate D2E/DX2                !
 ! D1    D(2,1,5,6)             61.9839         estimate D2E/DX2                !
 ! D2    D(2,1,5,7)            178.2411         estimate D2E/DX2                !
 ! D3    D(2,1,5,8)            -59.8876         estimate D2E/DX2                !
 ! D4    D(3,1,5,6)            -58.129          estimate D2E/DX2                !
 ! D5    D(3,1,5,7)             58.1282         estimate D2E/DX2                !
 ! D6    D(3,1,5,8)            179.9995         estimate D2E/DX2                !
 ! D7    D(4,1,5,6)           -178.2419         estimate D2E/DX2                !
 ! D8    D(4,1,5,7)            -61.9847         estimate D2E/DX2                !
 ! D9    D(4,1,5,8)             59.8866         estimate D2E/DX2                !
 ! D10   D(1,5,8,9)            -61.4323         estimate D2E/DX2                !
 ! D11   D(1,5,8,10)          -177.4285         estimate D2E/DX2                !
 ! D12   D(1,5,8,11)            60.57           estimate D2E/DX2                !
 ! D13   D(6,5,8,9)            176.6779         estimate D2E/DX2                !
 ! D14   D(6,5,8,10)            60.6816         estimate D2E/DX2                !
 ! D15   D(6,5,8,11)           -61.3199         estimate D2E/DX2                !
 ! D16   D(7,5,8,9)             60.4574         estimate D2E/DX2                !
 ! D17   D(7,5,8,10)           -55.5388         estimate D2E/DX2                !
 ! D18   D(7,5,8,11)          -177.5403         estimate D2E/DX2                !
 ! D19   D(5,8,11,12)          162.9309         estimate D2E/DX2                !
 ! D20   D(5,8,11,13)           46.7105         estimate D2E/DX2                !
 ! D21   D(5,8,11,14)          -75.18           estimate D2E/DX2                !
 ! D22   D(9,8,11,12)          -75.0667         estimate D2E/DX2                !
 ! D23   D(9,8,11,13)          168.7129         estimate D2E/DX2                !
 ! D24   D(9,8,11,14)           46.8224         estimate D2E/DX2                !
 ! D25   D(10,8,11,12)          40.9296         estimate D2E/DX2                !
 ! D26   D(10,8,11,13)         -75.2909         estimate D2E/DX2                !
 ! D27   D(10,8,11,14)         162.8187         estimate D2E/DX2                !
 ! D28   D(8,11,14,15)          59.8872         estimate D2E/DX2                !
 ! D29   D(8,11,14,16)        -180.0            estimate D2E/DX2                !
 ! D30   D(8,11,14,17)         -59.887          estimate D2E/DX2                !
 ! D31   D(12,11,14,15)       -178.2419         estimate D2E/DX2                !
 ! D32   D(12,11,14,16)        -58.1291         estimate D2E/DX2                !
 ! D33   D(12,11,14,17)         61.9839         estimate D2E/DX2                !
 ! D34   D(13,11,14,15)        -61.9846         estimate D2E/DX2                !
 ! D35   D(13,11,14,16)         58.1281         estimate D2E/DX2                !
 ! D36   D(13,11,14,17)        178.2412         estimate D2E/DX2                !
 --------------------------------------------------------------------------------
 Trust Radius=3.00D-01 FncErr=1.00D-07 GrdErr=1.00D-07
 Number of steps in this run=     92 maximum allowed number of steps=    102.
 GradGradGradGradGradGradGradGradGradGradGradGradGradGradGradGradGradGrad

 Leave Link  103 at Wed Mar 15 15:24:42 2017, MaxMem=   134217728 cpu:         0.0
 (Enter /n/sw/g09_D.01/g09/l202.exe)
                          Input orientation:                          
 ---------------------------------------------------------------------
 Center     Atomic      Atomic             Coordinates (Angstroms)
 Number     Number       Type             X           Y           Z
 ---------------------------------------------------------------------
      1          6           0        1.269638    1.410368    1.239925
      2          1           0        0.392669    2.066791    1.290929
      3          1           0        2.158404    2.049230    1.263436
      4          1           0        1.273635    0.809340    2.157159
      5          6           0        1.246310    0.539865   -0.000004
      6          1           0        1.274604    1.169780   -0.913471
      7          1           0        2.158193   -0.091394   -0.044674
      8          6           0        0.000000   -0.333291    0.000027
      9          1           0        0.000001   -1.007562    0.883752
     10          1           0       -0.000001   -1.007595   -0.883669
     11          6           0       -1.246310    0.539865    0.000008
     12          1           0       -2.132428   -0.054627   -0.305586
     13          1           0       -1.151684    1.345251   -0.757896
     14          6           0       -1.462064    1.135691    1.376302
     15          1           0       -0.611786    1.754016    1.688183
     16          1           0       -2.354477    1.769348    1.402405
     17          1           0       -1.589634    0.358274    2.139135
 ---------------------------------------------------------------------
                    Distance matrix (angstroms):
                    1          2          3          4          5
     1  C    0.000000
     2  H    1.096616   0.000000
     3  H    1.094807   1.766036   0.000000
     4  H    1.096617   1.762850   1.766036   0.000000
     5  C    1.515171   2.174101   2.169419   2.174101   0.000000
     6  H    2.166800   2.538073   2.508676   3.091713   1.109962
     7  H    2.166798   3.091710   2.508669   2.538077   1.109961
     8  C    2.487905   2.753363   3.454173   2.753357   1.521739
     9  H    2.754128   3.125960   3.761228   2.558289   2.174590
    10  H    3.459506   3.786148   4.314273   3.764311   2.174578
    11  C    2.936863   2.585388   3.932748   3.328069   2.492620
    12  H    4.013586   3.664068   5.029839   4.291017   3.444223
    13  H    3.139798   2.665207   3.941833   3.829741   2.640724
    14  C    2.748862   2.077083   3.735650   2.863616   3.095887
    15  H    1.964379   1.124531   2.818069   2.160362   2.788666
    16  H    3.645473   2.765450   4.523686   3.828116   4.055126
    17  H    3.176620   2.751002   4.204042   2.898637   3.556890
                    6          7          8          9         10
     6  H    0.000000
     7  H    1.768077   0.000000
     8  C    2.172169   2.172167   0.000000
     9  H    3.097651   2.521732   1.111581   0.000000
    10  H    2.523186   2.490208   1.111577   1.767421   0.000000
    11  C    2.754314   3.462820   1.521739   2.174586   2.174581
    12  H    3.671044   4.298704   2.172166   2.621043   2.406153
    13  H    2.437595   3.678032   2.172171   3.091458   2.622609
    14  C    3.568413   4.078134   2.487905   2.640791   3.440752
    15  H    3.266252   3.752481   2.753362   2.940698   3.822983
    16  H    4.346607   5.091226   3.454173   3.677471   4.298965
    17  H    4.263895   4.360898   2.753358   2.443037   3.678298
                   11         12         13         14         15
    11  C    0.000000
    12  H    1.109961   0.000000
    13  H    1.109963   1.768078   0.000000
    14  C    1.515171   2.166793   2.166806   0.000000
    15  H    2.174102   3.091708   2.538086   1.096617   0.000000
    16  H    2.169419   2.508669   2.508678   1.094807   1.766034
    17  H    2.174100   2.538065   3.091716   1.096616   1.762850
                   16         17
    16  H    0.000000
    17  H    1.766037   0.000000
 Stoichiometry    C5H12
 Framework group  C1[X(C5H12)]
 Deg. of freedom    45
 Full point group                 C1      NOp   1
 Largest Abelian subgroup         C1      NOp   1
 Largest concise Abelian subgroup C1      NOp   1
                         Standard orientation:                         
 ---------------------------------------------------------------------
 Center     Atomic      Atomic             Coordinates (Angstroms)
 Number     Number       Type             X           Y           Z
 ---------------------------------------------------------------------
      1          6           0        1.284408    1.024330    0.006698
      2          1           0        0.426082    1.477878   -0.503340
      3          1           0        2.188447    1.496639   -0.391095
      4          1           0        1.209722    1.299362    1.065635
      5          6           0        1.316984   -0.478867   -0.180605
      6          1           0        1.424494   -0.730769   -1.256246
      7          1           0        2.210468   -0.909812    0.317376
      8          6           0        0.047756   -1.101498    0.382494
      9          1           0       -0.030900   -0.900595    1.472936
     10          1           0        0.085936   -2.208562    0.289995
     11          6           0       -1.169059   -0.550721   -0.346681
     12          1           0       -2.050479   -1.201890   -0.170349
     13          1           0       -1.000410   -0.567681   -1.443626
     14          6           0       -1.457345    0.861926    0.119218
     15          1           0       -0.611370    1.532728   -0.072929
     16          1           0       -2.330111    1.281303   -0.391667
     17          1           0       -1.658338    0.900377    1.196572
 ---------------------------------------------------------------------
 Rotational constants (GHZ):      6.7095086      4.1133965      2.9354076
 Leave Link  202 at Wed Mar 15 15:24:42 2017, MaxMem=   134217728 cpu:         0.0
 (Enter /n/sw/g09_D.01/g09/l301.exe)
 Standard basis: VSTO-6G (5D, 7F)
 Ernie: Thresh=  0.10000D-02 Tol=  0.10000D-05 Strict=F.
  NNHCO=     0 NNPyr=     0 NCTC=     0               EPep=         0.000000000
    EC=        96.722970617  ECS=         1.847989400   EG=         0.568861457
   EHC=         0.000000000  EAt=       -26.628120368  AtH=         2.358010633
 EPDDG=         0.005473682  ECC=        99.145295155 EAtT=        28.986131002
 There are    32 symmetry adapted cartesian basis functions of A   symmetry.
 There are    32 symmetry adapted basis functions of A   symmetry.
    32 basis functions,   192 primitive gaussians,    32 cartesian basis functions
    16 alpha electrons       16 beta electrons
       nuclear repulsion energy       128.1314261563 Hartrees.
 IExCor=    0 DFT=F Ex=HF Corr=None ExCW=0 ScaHFX=  1.000000
 ScaDFX=  1.000000  1.000000  1.000000  1.000000 ScalE2=  1.000000  1.000000
 IRadAn=      0 IRanWt=     -1 IRanGd=            0 ICorTp=0 IEmpDi=  4
 Integral buffers will be    131072 words long.
 Regular integral format.
 Two-electron integral symmetry is turned off.
 Leave Link  301 at Wed Mar 15 15:24:43 2017, MaxMem=   134217728 cpu:         0.1
 (Enter /n/sw/g09_D.01/g09/l302.exe)
 Do NDO integrals.
 NPDir=0 NMtPBC=     1 NCelOv=     1 NCel=       1 NClECP=     1 NCelD=      1
         NCelK=      1 NCelE2=     1 NClLst=     1 CellRange=     0.0.
 One-electron integrals computed using PRISM.
 NBasis=    32 RedAO= F EigKep=  0.00D+00  NBF=    32
 NBsUse=    32 1.00D-04 EigRej=  0.00D+00 NBFU=    32
 Leave Link  302 at Wed Mar 15 15:24:44 2017, MaxMem=   134217728 cpu:         0.1
 (Enter /n/sw/g09_D.01/g09/l303.exe)
 DipDrv:  MaxL=1.
 Leave Link  303 at Wed Mar 15 15:24:44 2017, MaxMem=   134217728 cpu:         0.0
 (Enter /n/sw/g09_D.01/g09/l401.exe)
 Simple Huckel Guess.
 JPrj=0 DoOrth=F DoCkMO=F.
 Leave Link  401 at Wed Mar 15 15:24:44 2017, MaxMem=   134217728 cpu:         0.1
 (Enter /n/sw/g09_D.01/g09/l502.exe)
 Closed shell SCF:
 Using DIIS extrapolation, IDIIS=  1040.
 Overlap will be assumed to be unity.
 Two-electron integral symmetry not used.
 Keep J ints in memory in canonical form, NReq=894650.
 IVT=       80931 IEndB=       80931 NGot=   134217728 MDV=   134134845
 LenX=   134134845 LenY=   134133380
 Requested convergence on RMS density matrix=1.00D-08 within 128 cycles.
 Requested convergence on MAX density matrix=1.00D-06.
 Requested convergence on             energy=1.00D-06.
 No special actions if energy rises.
 FoFCou: FMM=F IPFlag=           0 FMFlag=           0 FMFlg1=           0
         NFxFlg=           0 DoJE=F BraDBF=F KetDBF=F FulRan=T
         wScrn=  0.000000 ICntrl=     600 IOpCl=  2 I1Cent=           0 NGrid=           0
         NMat0=    1 NMatS0=     62 NMatT0=    0 NMatD0=    1 NMtDS0=    0 NMtDT0=    0
 Symmetry not used in FoFCou.

 Cycle   1  Pass 1  IDiag  1:
 E= 0.150703127366214    
 DIIS: error= 3.15D-02 at cycle   1 NSaved=   1.
 NSaved= 1 IEnMin= 1 EnMin= 0.150703127366214     IErMin= 1 ErrMin= 3.15D-02
 ErrMax= 3.15D-02  0.00D+00 EMaxC= 1.00D-01 BMatC= 6.97D-02 BMatP= 6.97D-02
 IDIUse=3 WtCom= 6.85D-01 WtEn= 3.15D-01
 Coeff-Com:  0.100D+01
 Coeff-En:   0.100D+01
 Coeff:      0.100D+01
 GapD=    2.000 DampG=2.000 DampE=0.500 DampFc=1.0000 IDamp=-1.
 RMSDP=1.11D-02 MaxDP=1.02D-01              OVMax= 0.00D+00

 Cycle   2  Pass 1  IDiag  1:
 E=-0.115506811220598E-01 Delta-E=       -0.162253808488 Rises=F Damp=F
 DIIS: error= 8.21D-03 at cycle   2 NSaved=   2.
 NSaved= 2 IEnMin= 2 EnMin=-0.115506811220598E-01 IErMin= 2 ErrMin= 8.21D-03
 ErrMax= 8.21D-03  0.00D+00 EMaxC= 1.00D-01 BMatC= 4.49D-03 BMatP= 6.97D-02
 IDIUse=3 WtCom= 9.18D-01 WtEn= 8.21D-02
 Coeff-Com: -0.320D+00 0.132D+01
 Coeff-En:   0.000D+00 0.100D+01
 Coeff:     -0.294D+00 0.129D+01
 RMSDP=3.91D-03 MaxDP=3.35D-02 DE=-1.62D-01 OVMax= 0.00D+00

 Cycle   3  Pass 1  IDiag  3:
 E=-0.239174841684644E-01 Delta-E=       -0.012366803046 Rises=F Damp=F
 DIIS: error= 7.12D-04 at cycle   3 NSaved=   3.
 NSaved= 3 IEnMin= 3 EnMin=-0.239174841684644E-01 IErMin= 3 ErrMin= 7.12D-04
 ErrMax= 7.12D-04  0.00D+00 EMaxC= 1.00D-01 BMatC= 5.05D-05 BMatP= 4.49D-03
 IDIUse=3 WtCom= 9.93D-01 WtEn= 7.12D-03
 Coeff-Com:  0.111D+00-0.515D+00 0.140D+01
 Coeff-En:   0.000D+00 0.000D+00 0.100D+01
 Coeff:      0.111D+00-0.511D+00 0.140D+01
 Gap=     0.511 Goal=   None    Shift=    0.000
 RMSDP=6.21D-04 MaxDP=3.17D-03 DE=-1.24D-02 OVMax= 4.17D-03

 Cycle   4  Pass 1  IDiag  3:
 E=-0.241444980579217E-01 Delta-E=       -0.000227013889 Rises=F Damp=F
 DIIS: error= 2.02D-04 at cycle   4 NSaved=   4.
 NSaved= 4 IEnMin= 4 EnMin=-0.241444980579217E-01 IErMin= 4 ErrMin= 2.02D-04
 ErrMax= 2.02D-04  0.00D+00 EMaxC= 1.00D-01 BMatC= 2.30D-06 BMatP= 5.05D-05
 IDIUse=3 WtCom= 9.98D-01 WtEn= 2.02D-03
 Coeff-Com: -0.580D-01 0.272D+00-0.868D+00 0.165D+01
 Coeff-En:   0.000D+00 0.000D+00 0.000D+00 0.100D+01
 Coeff:     -0.579D-01 0.271D+00-0.867D+00 0.165D+01
 Gap=     0.512 Goal=   None    Shift=    0.000
 RMSDP=1.87D-04 MaxDP=1.22D-03 DE=-2.27D-04 OVMax= 9.51D-04

 Cycle   5  Pass 1  IDiag  3:
 E=-0.241583720975598E-01 Delta-E=       -0.000013874040 Rises=F Damp=F
 DIIS: error= 3.37D-05 at cycle   5 NSaved=   5.
 NSaved= 5 IEnMin= 5 EnMin=-0.241583720975598E-01 IErMin= 5 ErrMin= 3.37D-05
 ErrMax= 3.37D-05  0.00D+00 EMaxC= 1.00D-01 BMatC= 5.71D-08 BMatP= 2.30D-06
 IDIUse=1 WtCom= 1.00D+00 WtEn= 0.00D+00
 Coeff-Com:  0.109D-01-0.506D-01 0.166D+00-0.386D+00 0.126D+01
 Coeff:      0.109D-01-0.506D-01 0.166D+00-0.386D+00 0.126D+01
 Gap=     0.512 Goal=   None    Shift=    0.000
 RMSDP=2.35D-05 MaxDP=2.05D-04 DE=-1.39D-05 OVMax= 1.69D-04

 Cycle   6  Pass 1  IDiag  3:
 E=-0.241586807368890E-01 Delta-E=       -0.000000308639 Rises=F Damp=F
 DIIS: error= 1.18D-05 at cycle   6 NSaved=   6.
 NSaved= 6 IEnMin= 6 EnMin=-0.241586807368890E-01 IErMin= 6 ErrMin= 1.18D-05
 ErrMax= 1.18D-05  0.00D+00 EMaxC= 1.00D-01 BMatC= 5.60D-09 BMatP= 5.71D-08
 IDIUse=1 WtCom= 1.00D+00 WtEn= 0.00D+00
 Coeff-Com: -0.259D-02 0.118D-01-0.374D-01 0.898D-01-0.555D+00 0.149D+01
 Coeff:     -0.259D-02 0.118D-01-0.374D-01 0.898D-01-0.555D+00 0.149D+01
 Gap=     0.512 Goal=   None    Shift=    0.000
 RMSDP=8.97D-06 MaxDP=8.75D-05 DE=-3.09D-07 OVMax= 6.24D-05

 Cycle   7  Pass 1  IDiag  3:
 E=-0.241587154897616E-01 Delta-E=       -0.000000034753 Rises=F Damp=F
 DIIS: error= 3.11D-06 at cycle   7 NSaved=   7.
 NSaved= 7 IEnMin= 7 EnMin=-0.241587154897616E-01 IErMin= 7 ErrMin= 3.11D-06
 ErrMax= 3.11D-06  0.00D+00 EMaxC= 1.00D-01 BMatC= 4.21D-10 BMatP= 5.60D-09
 IDIUse=1 WtCom= 1.00D+00 WtEn= 0.00D+00
 Coeff-Com:  0.559D-03-0.241D-02 0.724D-02-0.177D-01 0.229D+00-0.867D+00
 Coeff-Com:  0.165D+01
 Coeff:      0.559D-03-0.241D-02 0.724D-02-0.177D-01 0.229D+00-0.867D+00
 Coeff:      0.165D+01
 Gap=     0.512 Goal=   None    Shift=    0.000
 RMSDP=2.70D-06 MaxDP=2.05D-05 DE=-3.48D-08 OVMax= 2.03D-05

 Cycle   8  Pass 1  IDiag  3:
 E=-0.241587183302840E-01 Delta-E=       -0.000000002841 Rises=F Damp=F
 DIIS: error= 6.76D-07 at cycle   8 NSaved=   8.
 NSaved= 8 IEnMin= 8 EnMin=-0.241587183302840E-01 IErMin= 8 ErrMin= 6.76D-07
 ErrMax= 6.76D-07  0.00D+00 EMaxC= 1.00D-01 BMatC= 2.37D-11 BMatP= 4.21D-10
 IDIUse=1 WtCom= 1.00D+00 WtEn= 0.00D+00
 Coeff-Com: -0.178D-04 0.607D-05 0.251D-03-0.784D-03-0.609D-01 0.291D+00
 Coeff-Com: -0.766D+00 0.154D+01
 Coeff:     -0.178D-04 0.607D-05 0.251D-03-0.784D-03-0.609D-01 0.291D+00
 Coeff:     -0.766D+00 0.154D+01
 Gap=     0.512 Goal=   None    Shift=    0.000
 RMSDP=6.29D-07 MaxDP=5.04D-06 DE=-2.84D-09 OVMax= 3.80D-06

 Cycle   9  Pass 1  IDiag  3:
 E=-0.241587184766843E-01 Delta-E=       -0.000000000146 Rises=F Damp=F
 DIIS: error= 1.06D-07 at cycle   9 NSaved=   9.
 NSaved= 9 IEnMin= 9 EnMin=-0.241587184766843E-01 IErMin= 9 ErrMin= 1.06D-07
 ErrMax= 1.06D-07  0.00D+00 EMaxC= 1.00D-01 BMatC= 8.29D-13 BMatP= 2.37D-11
 IDIUse=1 WtCom= 1.00D+00 WtEn= 0.00D+00
 Coeff-Com: -0.820D-05 0.680D-04-0.327D-03 0.922D-03 0.208D-01-0.107D+00
 Coeff-Com:  0.301D+00-0.720D+00 0.150D+01
 Coeff:     -0.820D-05 0.680D-04-0.327D-03 0.922D-03 0.208D-01-0.107D+00
 Coeff:      0.301D+00-0.720D+00 0.150D+01
 Gap=     0.512 Goal=   None    Shift=    0.000
 RMSDP=1.06D-07 MaxDP=9.10D-07 DE=-1.46D-10 OVMax= 5.85D-07

 Cycle  10  Pass 1  IDiag  3:
 E=-0.241587184816012E-01 Delta-E=       -0.000000000005 Rises=F Damp=F
 DIIS: error= 4.96D-08 at cycle  10 NSaved=  10.
 NSaved=10 IEnMin=10 EnMin=-0.241587184816012E-01 IErMin=10 ErrMin= 4.96D-08
 ErrMax= 4.96D-08  0.00D+00 EMaxC= 1.00D-01 BMatC= 5.37D-14 BMatP= 8.29D-13
 IDIUse=1 WtCom= 1.00D+00 WtEn= 0.00D+00
 Coeff-Com:  0.317D-05-0.307D-04 0.158D-03-0.465D-03-0.111D-01 0.568D-01
 Coeff-Com: -0.161D+00 0.395D+00-0.971D+00 0.169D+01
 Coeff:      0.317D-05-0.307D-04 0.158D-03-0.465D-03-0.111D-01 0.568D-01
 Coeff:     -0.161D+00 0.395D+00-0.971D+00 0.169D+01
 Gap=     0.512 Goal=   None    Shift=    0.000
 RMSDP=3.05D-08 MaxDP=3.22D-07 DE=-4.92D-12 OVMax= 1.89D-07

 Cycle  11  Pass 1  IDiag  3:
 E=-0.241587184817149E-01 Delta-E=        0.000000000000 Rises=F Damp=F
 DIIS: error= 9.91D-09 at cycle  11 NSaved=  11.
 NSaved=11 IEnMin=11 EnMin=-0.241587184817149E-01 IErMin=11 ErrMin= 9.91D-09
 ErrMax= 9.91D-09  0.00D+00 EMaxC= 1.00D-01 BMatC= 2.28D-15 BMatP= 5.37D-14
 IDIUse=1 WtCom= 1.00D+00 WtEn= 0.00D+00
 Coeff-Com: -0.871D-06 0.106D-04-0.587D-04 0.177D-03 0.460D-02-0.234D-01
 Coeff-Com:  0.663D-01-0.162D+00 0.411D+00-0.856D+00 0.156D+01
 Coeff:     -0.871D-06 0.106D-04-0.587D-04 0.177D-03 0.460D-02-0.234D-01
 Coeff:      0.663D-01-0.162D+00 0.411D+00-0.856D+00 0.156D+01
 Gap=     0.512 Goal=   None    Shift=    0.000
 RMSDP=6.16D-09 MaxDP=6.80D-08 DE=-1.14D-13 OVMax= 3.35D-08

 Cycle  12  Pass 2  IDiag  1:
 SCF Done:  E(RPDDG) = -0.241587184817E-01 A.U. after   12 cycles
            NFock= 11  Conv=0.62D-08     -V/T= 0.9988
 KE=-2.070626043514D+01 PE=-2.142401653871D+02 EE= 1.067908409474D+02
 Leave Link  502 at Wed Mar 15 15:24:45 2017, MaxMem=   134217728 cpu:         0.1
 (Enter /n/sw/g09_D.01/g09/l601.exe)
 Copying SCF densities to generalized density rwf, IOpCl= 0 IROHF=0.

 **********************************************************************

            Population analysis using the SCF density.

 **********************************************************************

 Orbital symmetries:
       Occupied  (A) (A) (A) (A) (A) (A) (A) (A) (A) (A) (A) (A)
                 (A) (A) (A) (A)
       Virtual   (A) (A) (A) (A) (A) (A) (A) (A) (A) (A) (A) (A)
                 (A) (A) (A) (A)
 The electronic state is 1-A.
 Alpha  occ. eigenvalues --   -1.49760  -1.16036  -1.04969  -0.80934  -0.76222
 Alpha  occ. eigenvalues --   -0.62558  -0.58425  -0.55183  -0.50568  -0.50017
 Alpha  occ. eigenvalues --   -0.49053  -0.47162  -0.43963  -0.42944  -0.42140
 Alpha  occ. eigenvalues --   -0.38303
 Alpha virt. eigenvalues --    0.12878   0.13607   0.13897   0.15227   0.15409
 Alpha virt. eigenvalues --    0.16155   0.16306   0.16536   0.17081   0.17621
 Alpha virt. eigenvalues --    0.18656   0.18950   0.19982   0.20096   0.20117
 Alpha virt. eigenvalues --    0.20518
          Condensed to atoms (all electrons):
               1          2          3          4          5          6
     1  C    4.324913   0.000000   0.000000   0.000000   0.000000   0.000000
     2  H    0.000000   0.862994   0.000000   0.000000   0.000000   0.000000
     3  H    0.000000   0.000000   0.912869   0.000000   0.000000   0.000000
     4  H    0.000000   0.000000   0.000000   0.905712   0.000000   0.000000
     5  C    0.000000   0.000000   0.000000   0.000000   4.169097   0.000000
     6  H    0.000000   0.000000   0.000000   0.000000   0.000000   0.907669
     7  H    0.000000   0.000000   0.000000   0.000000   0.000000   0.000000
     8  C    0.000000   0.000000   0.000000   0.000000   0.000000   0.000000
     9  H    0.000000   0.000000   0.000000   0.000000   0.000000   0.000000
    10  H    0.000000   0.000000   0.000000   0.000000   0.000000   0.000000
    11  C    0.000000   0.000000   0.000000   0.000000   0.000000   0.000000
    12  H    0.000000   0.000000   0.000000   0.000000   0.000000   0.000000
    13  H    0.000000   0.000000   0.000000   0.000000   0.000000   0.000000
    14  C    0.000000   0.000000   0.000000   0.000000   0.000000   0.000000
    15  H    0.000000   0.000000   0.000000   0.000000   0.000000   0.000000
    16  H    0.000000   0.000000   0.000000   0.000000   0.000000   0.000000
    17  H    0.000000   0.000000   0.000000   0.000000   0.000000   0.000000
               7          8          9         10         11         12
     1  C    0.000000   0.000000   0.000000   0.000000   0.000000   0.000000
     2  H    0.000000   0.000000   0.000000   0.000000   0.000000   0.000000
     3  H    0.000000   0.000000   0.000000   0.000000   0.000000   0.000000
     4  H    0.000000   0.000000   0.000000   0.000000   0.000000   0.000000
     5  C    0.000000   0.000000   0.000000   0.000000   0.000000   0.000000
     6  H    0.000000   0.000000   0.000000   0.000000   0.000000   0.000000
     7  H    0.910104   0.000000   0.000000   0.000000   0.000000   0.000000
     8  C    0.000000   4.192772   0.000000   0.000000   0.000000   0.000000
     9  H    0.000000   0.000000   0.901929   0.000000   0.000000   0.000000
    10  H    0.000000   0.000000   0.000000   0.908019   0.000000   0.000000
    11  C    0.000000   0.000000   0.000000   0.000000   4.168908   0.000000
    12  H    0.000000   0.000000   0.000000   0.000000   0.000000   0.910276
    13  H    0.000000   0.000000   0.000000   0.000000   0.000000   0.000000
    14  C    0.000000   0.000000   0.000000   0.000000   0.000000   0.000000
    15  H    0.000000   0.000000   0.000000   0.000000   0.000000   0.000000
    16  H    0.000000   0.000000   0.000000   0.000000   0.000000   0.000000
    17  H    0.000000   0.000000   0.000000   0.000000   0.000000   0.000000
              13         14         15         16         17
     1  C    0.000000   0.000000   0.000000   0.000000   0.000000
     2  H    0.000000   0.000000   0.000000   0.000000   0.000000
     3  H    0.000000   0.000000   0.000000   0.000000   0.000000
     4  H    0.000000   0.000000   0.000000   0.000000   0.000000
     5  C    0.000000   0.000000   0.000000   0.000000   0.000000
     6  H    0.000000   0.000000   0.000000   0.000000   0.000000
     7  H    0.000000   0.000000   0.000000   0.000000   0.000000
     8  C    0.000000   0.000000   0.000000   0.000000   0.000000
     9  H    0.000000   0.000000   0.000000   0.000000   0.000000
    10  H    0.000000   0.000000   0.000000   0.000000   0.000000
    11  C    0.000000   0.000000   0.000000   0.000000   0.000000
    12  H    0.000000   0.000000   0.000000   0.000000   0.000000
    13  H    0.906158   0.000000   0.000000   0.000000   0.000000
    14  C    0.000000   4.342142   0.000000   0.000000   0.000000
    15  H    0.000000   0.000000   0.856823   0.000000   0.000000
    16  H    0.000000   0.000000   0.000000   0.912417   0.000000
    17  H    0.000000   0.000000   0.000000   0.000000   0.907196
 Mulliken charges:
               1
     1  C   -0.324913
     2  H    0.137006
     3  H    0.087131
     4  H    0.094288
     5  C   -0.169097
     6  H    0.092331
     7  H    0.089896
     8  C   -0.192772
     9  H    0.098071
    10  H    0.091981
    11  C   -0.168908
    12  H    0.089724
    13  H    0.093842
    14  C   -0.342142
    15  H    0.143177
    16  H    0.087583
    17  H    0.092804
 Sum of Mulliken charges =   0.00000
 Mulliken charges with hydrogens summed into heavy atoms:
               1
     1  C   -0.006488
     5  C    0.013130
     8  C   -0.002721
    11  C    0.014658
    14  C   -0.018579
 Charge=              0.0000 electrons
 Dipole moment (field-independent basis, Debye):
    X=              0.0674    Y=              0.1891    Z=             -0.0598  Tot=              0.2095
 N-N= 1.281314261563D+02 E-N=-2.142401654482D+02  KE=-2.070626043514D+01
 Leave Link  601 at Wed Mar 15 15:24:46 2017, MaxMem=   134217728 cpu:         0.1
 (Enter /n/sw/g09_D.01/g09/l701.exe)
 Compute integral first derivatives.
 ... and contract with generalized density number  0.
 Leave Link  701 at Wed Mar 15 15:24:47 2017, MaxMem=   134217728 cpu:         0.1
 (Enter /n/sw/g09_D.01/g09/l702.exe)
 L702 exits ... SP integral derivatives will be done elsewhere.
 Leave Link  702 at Wed Mar 15 15:24:47 2017, MaxMem=   134217728 cpu:         0.1
 (Enter /n/sw/g09_D.01/g09/l703.exe)
 Compute integral first derivatives, UseDBF=F ICtDFT=           0.
 Integral derivatives from FoFJK, PRISM(SPDF).
 Calling FoFJK, ICntrl=      2127 FMM=F ISym2X=0 I1Cent= 0 IOpClX= 0 NMat=1 NMatS=1 NMatT=0.
 FoFJK:  IHMeth=41 ICntrl=    2127 DoSepK=F KAlg= 0 I1Cent=   0 FoldK=F
 IRaf=         0 NMat=   1 IRICut=       1 DoRegI=T DoRafI=F ISym2E= 0.
 FoFCou: FMM=F IPFlag=           0 FMFlag=      100000 FMFlg1=         800
         NFxFlg=           0 DoJE=F BraDBF=F KetDBF=F FulRan=T
         wScrn=  0.000000 ICntrl=    2127 IOpCl=  0 I1Cent=           0 NGrid=           0
         NMat0=    1 NMatS0=      1 NMatT0=    0 NMatD0=    1 NMtDS0=    0 NMtDT0=    0
 Symmetry not used in FoFCou.
 Leave Link  703 at Wed Mar 15 15:24:47 2017, MaxMem=   134217728 cpu:         0.1
 (Enter /n/sw/g09_D.01/g09/l716.exe)
 Dipole        = 2.65284497D-02 7.43984087D-02-2.35152137D-02
 ***** Axes restored to original set *****
 -------------------------------------------------------------------
 Center     Atomic                   Forces (Hartrees/Bohr)
 Number     Number              X              Y              Z
 -------------------------------------------------------------------
      1        6           0.029986124   -0.004283732   -0.002318109
      2        1           0.007170588    0.014194940   -0.000472385
      3        1           0.000749451   -0.000541537   -0.000066643
      4        1           0.003461739   -0.002221269    0.001103186
      5        6           0.002554835   -0.002126374   -0.000742565
      6        1          -0.000152646    0.000311328    0.000387467
      7        1          -0.001089314    0.000370880    0.000170671
      8        6           0.000205000   -0.001768048   -0.001578820
      9        1           0.000454137   -0.000412445   -0.000030976
     10        1           0.000659547    0.001787120    0.001005840
     11        6          -0.004047825   -0.003742606   -0.002731316
     12        1           0.000563223    0.000526643    0.000753815
     13        1          -0.000725656    0.000572503    0.000021194
     14        6          -0.032963840   -0.009848203   -0.001010725
     15        1          -0.006024289    0.008073739    0.005940770
     16        1          -0.000751941   -0.000745281   -0.000219192
     17        1          -0.000049136   -0.000147657   -0.000212212
 -------------------------------------------------------------------
 Cartesian Forces:  Max     0.032963840 RMS     0.007114506
 Leave Link  716 at Wed Mar 15 15:24:47 2017, MaxMem=   134217728 cpu:         0.1
 (Enter /n/sw/g09_D.01/g09/l103.exe)

 GradGradGradGradGradGradGradGradGradGradGradGradGradGradGradGradGradGrad
 Berny optimization.
 FormGI is forming the generalized inverse of G from B-inverse, IUseBI=4.
 Internal  Forces:  Max     0.104825654 RMS     0.022526444
 Search for a local minimum.
 Step number   1 out of a maximum of   92
 All quantities printed in internal units (Hartrees-Bohrs-Radians)
 RMS Force = .22526D-01 SwitMx=.10000D-02 MixMth= 1
 Mixed Optimization -- RFO/linear search
 Second derivative matrix not updated -- first step.
 ITU=  0
     Eigenvalues ---    0.00478   0.00478   0.00565   0.00565   0.03804
     Eigenvalues ---    0.03846   0.03846   0.04929   0.04968   0.04968
     Eigenvalues ---    0.05543   0.05543   0.05552   0.05552   0.08017
     Eigenvalues ---    0.08036   0.08036   0.11951   0.11959   0.11959
     Eigenvalues ---    0.16000   0.16000   0.16000   0.16000   0.16000
     Eigenvalues ---    0.16000   0.21791   0.21803   0.21803   0.30200
     Eigenvalues ---    0.30200   0.30836   0.30836   0.32433   0.32434
     Eigenvalues ---    0.32604   0.32604   0.32604   0.32604   0.34059
     Eigenvalues ---    0.34059   0.34059   0.34059   0.34263   0.34263
 RFO step:  Lambda=-1.32743521D-01 EMin= 4.78380260D-03
 Linear search not attempted -- first point.
 Maximum step size (   0.300) exceeded in Quadratic search.
    -- Step size scaled by   0.539
 Iteration  1 RMS(Cart)=  0.25505452 RMS(Int)=  0.01250911
 Iteration  2 RMS(Cart)=  0.03048941 RMS(Int)=  0.00111951
 Iteration  3 RMS(Cart)=  0.00059743 RMS(Int)=  0.00110147
 Iteration  4 RMS(Cart)=  0.00000082 RMS(Int)=  0.00110147
 ITry= 1 IFail=0 DXMaxC= 9.89D-01 DCOld= 1.00D+10 DXMaxT= 3.00D-01 DXLimC= 3.00D+00 Rises=F
 Variable       Old X    -DE/DX   Delta X   Delta X   Delta X     New X
                                 (Linear)    (Quad)   (Total)
    R1        2.07230   0.00274   0.00000   0.00312   0.00312   2.07542
    R2        2.06888   0.00029   0.00000   0.00033   0.00033   2.06921
    R3        2.07231   0.00215   0.00000   0.00245   0.00245   2.07476
    R4        2.86326   0.00331   0.00000   0.00404   0.00404   2.86730
    R5        2.09752  -0.00015   0.00000  -0.00017  -0.00017   2.09735
    R6        2.09752  -0.00111   0.00000  -0.00131  -0.00131   2.09622
    R7        2.87567   0.03823   0.00000   0.04738   0.04738   2.92305
    R8        2.10058   0.00023   0.00000   0.00027   0.00027   2.10085
    R9        2.10058  -0.00188   0.00000  -0.00222  -0.00222   2.09836
   R10        2.87567   0.03299   0.00000   0.04088   0.04088   2.91655
   R11        2.09752  -0.00094   0.00000  -0.00110  -0.00110   2.09642
   R12        2.09753   0.00034   0.00000   0.00040   0.00040   2.09792
   R13        2.86326   0.00870   0.00000   0.01063   0.01063   2.87389
   R14        2.07231   0.00157   0.00000   0.00179   0.00179   2.07409
   R15        2.06888   0.00018   0.00000   0.00020   0.00020   2.06908
   R16        2.07230  -0.00004   0.00000  -0.00004  -0.00004   2.07226
    A1        1.87434  -0.00723   0.00000  -0.01595  -0.01585   1.85849
    A2        1.86720   0.00121   0.00000   0.00758   0.00740   1.87460
    A3        1.94943   0.01208   0.00000   0.02370   0.02365   1.97308
    A4        1.87434   0.00015   0.00000  -0.00243  -0.00249   1.87185
    A5        1.94478  -0.00484   0.00000  -0.01179  -0.01177   1.93302
    A6        1.94943  -0.00176   0.00000  -0.00181  -0.00194   1.94749
    A7        1.92520  -0.02117   0.00000  -0.02236  -0.02386   1.90134
    A8        1.92520  -0.03296   0.00000  -0.05663  -0.05535   1.86985
    A9        1.92010   0.08900   0.00000   0.14070   0.14105   2.06116
   A10        1.84283   0.01455   0.00000   0.00942   0.00737   1.85020
   A11        1.92466  -0.02400   0.00000  -0.02845  -0.03021   1.89445
   A12        1.92466  -0.03005   0.00000  -0.05037  -0.04890   1.87576
   A13        1.92631  -0.02120   0.00000  -0.01505  -0.01860   1.90771
   A14        1.92629  -0.04333   0.00000  -0.07977  -0.07693   1.84936
   A15        1.91935   0.10483   0.00000   0.16585   0.16579   2.08513
   A16        1.83803   0.01711   0.00000   0.01086   0.00827   1.84630
   A17        1.92630  -0.02555   0.00000  -0.02408  -0.02808   1.89822
   A18        1.92630  -0.03768   0.00000  -0.06745  -0.06417   1.86212
   A19        1.92466  -0.02223   0.00000  -0.03988  -0.03823   1.88642
   A20        1.92466  -0.01822   0.00000  -0.01835  -0.02052   1.90414
   A21        1.92010   0.06774   0.00000   0.10715   0.10704   2.02715
   A22        1.84283   0.01093   0.00000   0.00678   0.00581   1.84865
   A23        1.92519  -0.03174   0.00000  -0.06049  -0.05927   1.86592
   A24        1.92521  -0.01002   0.00000  -0.00105  -0.00256   1.92264
   A25        1.94943   0.01456   0.00000   0.02796   0.02795   1.97738
   A26        1.94478  -0.00413   0.00000  -0.00910  -0.00909   1.93569
   A27        1.94943  -0.00197   0.00000  -0.00328  -0.00336   1.94607
   A28        1.87434  -0.00637   0.00000  -0.01235  -0.01229   1.86205
   A29        1.86720  -0.00326   0.00000  -0.00322  -0.00331   1.86389
   A30        1.87434   0.00056   0.00000  -0.00113  -0.00118   1.87316
    D1        1.08182   0.00312   0.00000   0.00456   0.00446   1.08629
    D2        3.11089  -0.01133   0.00000  -0.03094  -0.03037   3.08052
    D3       -1.04524  -0.01179   0.00000  -0.03822  -0.03890  -1.08413
    D4       -1.01454   0.00739   0.00000   0.01680   0.01681  -0.99773
    D5        1.01453  -0.00706   0.00000  -0.01871  -0.01803   0.99650
    D6        3.14158  -0.00752   0.00000  -0.02598  -0.02655   3.11503
    D7       -3.11091   0.01174   0.00000   0.02924   0.02925  -3.08166
    D8       -1.08184  -0.00271   0.00000  -0.00626  -0.00559  -1.08743
    D9        1.04522  -0.00317   0.00000  -0.01354  -0.01412   1.03110
   D10       -1.07220  -0.00253   0.00000   0.00065   0.00072  -1.07147
   D11       -3.09671   0.01492   0.00000   0.04373   0.04296  -3.05375
   D12        1.05715   0.02112   0.00000   0.07078   0.07240   1.12955
   D13        3.08361  -0.01908   0.00000  -0.04570  -0.04573   3.03788
   D14        1.05909  -0.00163   0.00000  -0.00262  -0.00349   1.05560
   D15       -1.07023   0.00456   0.00000   0.02443   0.02595  -1.04428
   D16        1.05518  -0.00474   0.00000  -0.01040  -0.01115   1.04403
   D17       -0.96934   0.01271   0.00000   0.03268   0.03109  -0.93825
   D18       -3.09866   0.01890   0.00000   0.05973   0.06053  -3.03813
   D19        2.84368  -0.02086   0.00000  -0.06857  -0.06901   2.77467
   D20        0.81525  -0.01019   0.00000  -0.04226  -0.04308   0.77217
   D21       -1.31214  -0.03045   0.00000  -0.09976  -0.10065  -1.41279
   D22       -1.31016   0.00537   0.00000   0.00693   0.00713  -1.30303
   D23        2.94460   0.01604   0.00000   0.03323   0.03306   2.97765
   D24        0.81721  -0.00422   0.00000  -0.02426  -0.02451   0.79270
   D25        0.71436  -0.01130   0.00000  -0.03420  -0.03313   0.68122
   D26       -1.31407  -0.00063   0.00000  -0.00789  -0.00720  -1.32128
   D27        2.84172  -0.02089   0.00000  -0.06539  -0.06477   2.77695
   D28        1.04523   0.00987   0.00000   0.03351   0.03441   1.07964
   D29        3.14159   0.00887   0.00000   0.03063   0.03146  -3.11013
   D30       -1.04522   0.00539   0.00000   0.02069   0.02154  -1.02368
   D31       -3.11091   0.00595   0.00000   0.01461   0.01411  -3.09680
   D32       -1.01454   0.00495   0.00000   0.01173   0.01116  -1.00338
   D33        1.08182   0.00148   0.00000   0.00179   0.00124   1.08307
   D34       -1.08184  -0.00555   0.00000  -0.01375  -0.01403  -1.09586
   D35        1.01453  -0.00655   0.00000  -0.01662  -0.01697   0.99756
   D36        3.11090  -0.01002   0.00000  -0.02656  -0.02689   3.08400
         Item               Value     Threshold  Converged?
 Maximum Force            0.104826     0.000450     NO 
 RMS     Force            0.022526     0.000300     NO 
 Maximum Displacement     0.989395     0.001800     NO 
 RMS     Displacement     0.278717     0.001200     NO 
 Predicted change in Energy=-6.127630D-02
 Lowest energy point so far.  Saving SCF results.
 GradGradGradGradGradGradGradGradGradGradGradGradGradGradGradGradGradGrad

 Leave Link  103 at Wed Mar 15 15:24:48 2017, MaxMem=   134217728 cpu:         0.0
 (Enter /n/sw/g09_D.01/g09/l202.exe)
                          Input orientation:                          
 ---------------------------------------------------------------------
 Center     Atomic      Atomic             Coordinates (Angstroms)
 Number     Number       Type             X           Y           Z
 ---------------------------------------------------------------------
      1          6           0        1.644974    1.439193    1.220308
      2          1           0        0.916235    2.247629    1.367146
      3          1           0        2.620808    1.919652    1.094253
      4          1           0        1.685204    0.860008    2.152157
      5          6           0        1.321890    0.557379    0.028566
      6          1           0        1.353533    1.173155   -0.894274
      7          1           0        2.146320   -0.178675   -0.066392
      8          6           0       -0.007198   -0.233707    0.046773
      9          1           0       -0.005587   -0.935145    0.909273
     10          1           0        0.004948   -0.872044   -0.861727
     11          6           0       -1.346986    0.532300    0.032455
     12          1           0       -2.135051   -0.159020   -0.330515
     13          1           0       -1.290172    1.349560   -0.716775
     14          6           0       -1.820426    1.079520    1.370075
     15          1           0       -1.132829    1.815756    1.805748
     16          1           0       -2.790227    1.577295    1.267407
     17          1           0       -1.940365    0.280491    2.111482
 ---------------------------------------------------------------------
                    Distance matrix (angstroms):
                    1          2          3          4          5
     1  C    0.000000
     2  H    1.098267   0.000000
     3  H    1.094981   1.757160   0.000000
     4  H    1.097914   1.770041   1.765605   0.000000
     5  C    1.517310   2.193923   2.163022   2.175596   0.000000
     6  H    2.151086   2.541602   2.473355   3.080390   1.109871
     7  H    2.127074   3.074914   2.444425   2.492679   1.109270
     8  C    2.627823   2.958571   3.555360   2.914289   1.546811
     9  H    2.908363   3.345064   3.883560   2.761541   2.182996
    10  H    3.516586   3.940899   4.296761   3.860928   2.137805
    11  C    3.344439   3.137821   4.335383   3.714122   2.668996
    12  H    4.387246   4.240797   5.382290   4.668664   3.548607
    13  H    3.517870   3.165041   4.347481   4.162125   2.829479
    14  C    3.487233   2.975533   4.528406   3.598511   3.456361
    15  H    2.863691   2.139520   3.821886   2.995790   3.281392
    16  H    4.437600   3.767911   5.424619   4.618090   4.414120
    17  H    3.871877   3.547369   4.952363   3.671817   3.880402
                    6          7          8          9         10
     6  H    0.000000
     7  H    1.772384   0.000000
     8  C    2.171731   2.157192   0.000000
     9  H    3.089485   2.480902   1.111721   0.000000
    10  H    2.450016   2.387215   1.110402   1.772155   0.000000
    11  C    2.926144   3.566293   1.543374   2.172914   2.144637
    12  H    3.776603   4.289556   2.162333   2.583420   2.317366
    13  H    2.655523   3.816803   2.176181   3.084488   2.575630
    14  C    3.900007   4.402451   2.600671   2.750428   3.481599
    15  H    3.726265   4.270303   2.925977   3.105124   3.954015
    16  H    4.691155   5.406658   3.537644   3.767603   4.283162
    17  H    4.547656   4.653490   2.874815   2.581946   3.735312
                   11         12         13         14         15
    11  C    0.000000
    12  H    1.109378   0.000000
    13  H    1.110174   1.771675   0.000000
    14  C    1.520797   2.127199   2.170030   0.000000
    15  H    2.199475   3.076981   2.570062   1.097563   0.000000
    16  H    2.167963   2.448959   2.497800   1.094913   1.758875
    17  H    2.176663   2.488860   3.092684   1.096594   1.761427
                   16         17
    16  H    0.000000
    17  H    1.765341   0.000000
 Stoichiometry    C5H12
 Framework group  C1[X(C5H12)]
 Deg. of freedom    45
 Full point group                 C1      NOp   1
 RotChk:  IX=0 Diff= 6.49D-02
 Largest Abelian subgroup         C1      NOp   1
 Largest concise Abelian subgroup C1      NOp   1
                         Standard orientation:                         
 ---------------------------------------------------------------------
 Center     Atomic      Atomic             Coordinates (Angstroms)
 Number     Number       Type             X           Y           Z
 ---------------------------------------------------------------------
      1          6           0        1.705389    0.954316   -0.001858
      2          1           0        1.025279    1.606893   -0.565584
      3          1           0        2.714554    1.163817   -0.371559
      4          1           0        1.670779    1.272671    1.048316
      5          6           0        1.373682   -0.518891   -0.149705
      6          1           0        1.481967   -0.807268   -1.215973
      7          1           0        2.151824   -1.085966    0.401113
      8          6           0       -0.003532   -1.009741    0.355242
      9          1           0       -0.081801   -0.823621    1.448474
     10          1           0        0.003487   -2.113757    0.236530
     11          6           0       -1.289234   -0.498525   -0.328594
     12          1           0       -2.105316   -1.217102   -0.108646
     13          1           0       -1.149728   -0.523876   -1.429676
     14          6           0       -1.779244    0.873953    0.106168
     15          1           0       -1.063331    1.678080   -0.107124
     16          1           0       -2.709883    1.137220   -0.407090
     17          1           0       -1.980199    0.906243    1.183708
 ---------------------------------------------------------------------
 Rotational constants (GHZ):      7.2030287      3.0773691      2.4082887
 Leave Link  202 at Wed Mar 15 15:24:48 2017, MaxMem=   134217728 cpu:         0.0
 (Enter /n/sw/g09_D.01/g09/l301.exe)
 Standard basis: VSTO-6G (5D, 7F)
 Ernie: Thresh=  0.10000D-02 Tol=  0.10000D-05 Strict=F.
  NNHCO=     0 NNPyr=     0 NCTC=     0               EPep=         0.000000000
    EC=        92.866857491  ECS=         1.786471716   EG=         0.547380393
   EHC=         0.000000000  EAt=       -26.628120368  AtH=         2.358010633
 EPDDG=         0.003805027  ECC=        95.204514627 EAtT=        28.986131002
 There are    32 symmetry adapted cartesian basis functions of A   symmetry.
 There are    32 symmetry adapted basis functions of A   symmetry.
    32 basis functions,   192 primitive gaussians,    32 cartesian basis functions
    16 alpha electrons       16 beta electrons
       nuclear repulsion energy       124.1906456289 Hartrees.
 IExCor=    0 DFT=F Ex=HF Corr=None ExCW=0 ScaHFX=  1.000000
 ScaDFX=  1.000000  1.000000  1.000000  1.000000 ScalE2=  1.000000  1.000000
 IRadAn=      0 IRanWt=     -1 IRanGd=            0 ICorTp=0 IEmpDi=  4
 Integral buffers will be    131072 words long.
 Regular integral format.
 Two-electron integral symmetry is turned off.
 Leave Link  301 at Wed Mar 15 15:24:48 2017, MaxMem=   134217728 cpu:         0.1
 (Enter /n/sw/g09_D.01/g09/l302.exe)
 Do NDO integrals.
 NPDir=0 NMtPBC=     1 NCelOv=     1 NCel=       1 NClECP=     1 NCelD=      1
         NCelK=      1 NCelE2=     1 NClLst=     1 CellRange=     0.0.
 One-electron integrals computed using PRISM.
 NBasis=    32 RedAO= F EigKep=  0.00D+00  NBF=    32
 NBsUse=    32 1.00D-04 EigRej=  0.00D+00 NBFU=    32
 Leave Link  302 at Wed Mar 15 15:24:48 2017, MaxMem=   134217728 cpu:         0.1
 (Enter /n/sw/g09_D.01/g09/l303.exe)
 DipDrv:  MaxL=1.
 Leave Link  303 at Wed Mar 15 15:24:48 2017, MaxMem=   134217728 cpu:         0.0
 (Enter /n/sw/g09_D.01/g09/l401.exe)
 Initial guess from the checkpoint file:  "/scratch/ekwan_pentane_conformation_4/Gau-62740.chk"
 B after Tr=     0.000000    0.000000    0.000000
         Rot=    0.999755    0.006621    0.003648    0.020815 Ang=   2.54 deg.
 Guess basis will be translated and rotated to current coordinates.
 JPrj=0 DoOrth=T DoCkMO=T.
 Leave Link  401 at Wed Mar 15 15:24:49 2017, MaxMem=   134217728 cpu:         0.1
 (Enter /n/sw/g09_D.01/g09/l502.exe)
 Closed shell SCF:
 Using DIIS extrapolation, IDIIS=  1040.
 Overlap will be assumed to be unity.
 Two-electron integral symmetry not used.
 Keep J ints in memory in canonical form, NReq=894650.
 IVT=       80931 IEndB=       80931 NGot=   134217728 MDV=   134134845
 LenX=   134134845 LenY=   134133380
 Requested convergence on RMS density matrix=1.00D-08 within 128 cycles.
 Requested convergence on MAX density matrix=1.00D-06.
 Requested convergence on             energy=1.00D-06.
 No special actions if energy rises.
 FoFCou: FMM=F IPFlag=           0 FMFlag=           0 FMFlg1=           0
         NFxFlg=           0 DoJE=F BraDBF=F KetDBF=F FulRan=T
         wScrn=  0.000000 ICntrl=     600 IOpCl=  2 I1Cent=           0 NGrid=           0
         NMat0=    1 NMatS0=     62 NMatT0=    0 NMatD0=    1 NMtDS0=    0 NMtDT0=    0
 Symmetry not used in FoFCou.

 Cycle   1  Pass 1  IDiag  1:
 E= 0.328059442483806E-01
 DIIS: error= 2.34D-02 at cycle   1 NSaved=   1.
 NSaved= 1 IEnMin= 1 EnMin= 0.328059442483806E-01 IErMin= 1 ErrMin= 2.34D-02
 ErrMax= 2.34D-02  0.00D+00 EMaxC= 1.00D-01 BMatC= 1.95D-02 BMatP= 1.95D-02
 IDIUse=3 WtCom= 7.66D-01 WtEn= 2.34D-01
 Coeff-Com:  0.100D+01
 Coeff-En:   0.100D+01
 Coeff:      0.100D+01
 GapD=    2.000 DampG=2.000 DampE=0.500 DampFc=1.0000 IDamp=-1.
 RMSDP=7.94D-03 MaxDP=5.56D-02              OVMax= 0.00D+00

 Cycle   2  Pass 1  IDiag  1:
 E=-0.338851481889009E-01 Delta-E=       -0.066691092437 Rises=F Damp=F
 DIIS: error= 1.00D-02 at cycle   2 NSaved=   2.
 NSaved= 2 IEnMin= 2 EnMin=-0.338851481889009E-01 IErMin= 2 ErrMin= 1.00D-02
 ErrMax= 1.00D-02  0.00D+00 EMaxC= 1.00D-01 BMatC= 2.56D-03 BMatP= 1.95D-02
 IDIUse=3 WtCom= 9.00D-01 WtEn= 1.00D-01
 Coeff-Com: -0.475D+00 0.148D+01
 Coeff-En:   0.000D+00 0.100D+01
 Coeff:     -0.428D+00 0.143D+01
 RMSDP=4.44D-03 MaxDP=3.09D-02 DE=-6.67D-02 OVMax= 0.00D+00

 Cycle   3  Pass 1  IDiag  3:
 E=-0.455234742005359E-01 Delta-E=       -0.011638326012 Rises=F Damp=F
 DIIS: error= 1.90D-03 at cycle   3 NSaved=   3.
 NSaved= 3 IEnMin= 3 EnMin=-0.455234742005359E-01 IErMin= 3 ErrMin= 1.90D-03
 ErrMax= 1.90D-03  0.00D+00 EMaxC= 1.00D-01 BMatC= 8.17D-05 BMatP= 2.56D-03
 IDIUse=3 WtCom= 9.81D-01 WtEn= 1.90D-02
 Coeff-Com:  0.133D+00-0.555D+00 0.142D+01
 Coeff-En:   0.000D+00 0.000D+00 0.100D+01
 Coeff:      0.131D+00-0.545D+00 0.141D+01
 Gap=     0.531 Goal=   None    Shift=    0.000
 RMSDP=9.60D-04 MaxDP=7.11D-03 DE=-1.16D-02 OVMax= 5.81D-03

 Cycle   4  Pass 1  IDiag  3:
 E=-0.459427325668713E-01 Delta-E=       -0.000419258366 Rises=F Damp=F
 DIIS: error= 1.46D-04 at cycle   4 NSaved=   4.
 NSaved= 4 IEnMin= 4 EnMin=-0.459427325668713E-01 IErMin= 4 ErrMin= 1.46D-04
 ErrMax= 1.46D-04  0.00D+00 EMaxC= 1.00D-01 BMatC= 1.37D-06 BMatP= 8.17D-05
 IDIUse=3 WtCom= 9.99D-01 WtEn= 1.46D-03
 Coeff-Com: -0.431D-01 0.186D+00-0.557D+00 0.141D+01
 Coeff-En:   0.000D+00 0.000D+00 0.000D+00 0.100D+01
 Coeff:     -0.430D-01 0.186D+00-0.556D+00 0.141D+01
 Gap=     0.531 Goal=   None    Shift=    0.000
 RMSDP=1.25D-04 MaxDP=7.05D-04 DE=-4.19D-04 OVMax= 7.88D-04

 Cycle   5  Pass 1  IDiag  3:
 E=-0.459500910266684E-01 Delta-E=       -0.000007358460 Rises=F Damp=F
 DIIS: error= 4.31D-05 at cycle   5 NSaved=   5.
 NSaved= 5 IEnMin= 5 EnMin=-0.459500910266684E-01 IErMin= 5 ErrMin= 4.31D-05
 ErrMax= 4.31D-05  0.00D+00 EMaxC= 1.00D-01 BMatC= 6.56D-08 BMatP= 1.37D-06
 IDIUse=1 WtCom= 1.00D+00 WtEn= 0.00D+00
 Coeff-Com:  0.185D-01-0.800D-01 0.246D+00-0.741D+00 0.156D+01
 Coeff:      0.185D-01-0.800D-01 0.246D+00-0.741D+00 0.156D+01
 Gap=     0.531 Goal=   None    Shift=    0.000
 RMSDP=2.88D-05 MaxDP=2.27D-04 DE=-7.36D-06 OVMax= 1.58D-04

 Cycle   6  Pass 1  IDiag  3:
 E=-0.459504789661906E-01 Delta-E=       -0.000000387940 Rises=F Damp=F
 DIIS: error= 9.76D-06 at cycle   6 NSaved=   6.
 NSaved= 6 IEnMin= 6 EnMin=-0.459504789661906E-01 IErMin= 6 ErrMin= 9.76D-06
 ErrMax= 9.76D-06  0.00D+00 EMaxC= 1.00D-01 BMatC= 4.30D-09 BMatP= 6.56D-08
 IDIUse=1 WtCom= 1.00D+00 WtEn= 0.00D+00
 Coeff-Com: -0.470D-02 0.201D-01-0.634D-01 0.216D+00-0.659D+00 0.149D+01
 Coeff:     -0.470D-02 0.201D-01-0.634D-01 0.216D+00-0.659D+00 0.149D+01
 Gap=     0.531 Goal=   None    Shift=    0.000
 RMSDP=7.91D-06 MaxDP=6.57D-05 DE=-3.88D-07 OVMax= 5.49D-05

 Cycle   7  Pass 1  IDiag  3:
 E=-0.459505059382650E-01 Delta-E=       -0.000000026972 Rises=F Damp=F
 DIIS: error= 2.00D-06 at cycle   7 NSaved=   7.
 NSaved= 7 IEnMin= 7 EnMin=-0.459505059382650E-01 IErMin= 7 ErrMin= 2.00D-06
 ErrMax= 2.00D-06  0.00D+00 EMaxC= 1.00D-01 BMatC= 2.89D-10 BMatP= 4.30D-09
 IDIUse=1 WtCom= 1.00D+00 WtEn= 0.00D+00
 Coeff-Com:  0.711D-03-0.292D-02 0.958D-02-0.410D-01 0.172D+00-0.619D+00
 Coeff-Com:  0.148D+01
 Coeff:      0.711D-03-0.292D-02 0.958D-02-0.410D-01 0.172D+00-0.619D+00
 Coeff:      0.148D+01
 Gap=     0.531 Goal=   None    Shift=    0.000
 RMSDP=2.07D-06 MaxDP=1.64D-05 DE=-2.70D-08 OVMax= 1.28D-05

 Cycle   8  Pass 1  IDiag  3:
 E=-0.459505077845819E-01 Delta-E=       -0.000000001846 Rises=F Damp=F
 DIIS: error= 5.43D-07 at cycle   8 NSaved=   8.
 NSaved= 8 IEnMin= 8 EnMin=-0.459505077845819E-01 IErMin= 8 ErrMin= 5.43D-07
 ErrMax= 5.43D-07  0.00D+00 EMaxC= 1.00D-01 BMatC= 1.95D-11 BMatP= 2.89D-10
 IDIUse=1 WtCom= 1.00D+00 WtEn= 0.00D+00
 Coeff-Com: -0.732D-04 0.244D-03-0.929D-03 0.705D-02-0.418D-01 0.197D+00
 Coeff-Com: -0.710D+00 0.155D+01
 Coeff:     -0.732D-04 0.244D-03-0.929D-03 0.705D-02-0.418D-01 0.197D+00
 Coeff:     -0.710D+00 0.155D+01
 Gap=     0.531 Goal=   None    Shift=    0.000
 RMSDP=5.84D-07 MaxDP=3.93D-06 DE=-1.85D-09 OVMax= 3.31D-06

 Cycle   9  Pass 1  IDiag  3:
 E=-0.459505079114280E-01 Delta-E=       -0.000000000127 Rises=F Damp=F
 DIIS: error= 1.82D-07 at cycle   9 NSaved=   9.
 NSaved= 9 IEnMin= 9 EnMin=-0.459505079114280E-01 IErMin= 9 ErrMin= 1.82D-07
 ErrMax= 1.82D-07  0.00D+00 EMaxC= 1.00D-01 BMatC= 8.26D-13 BMatP= 1.95D-11
 IDIUse=1 WtCom= 1.00D+00 WtEn= 0.00D+00
 Coeff-Com:  0.808D-05 0.407D-06 0.783D-04-0.218D-02 0.163D-01-0.850D-01
 Coeff-Com:  0.336D+00-0.856D+00 0.159D+01
 Coeff:      0.808D-05 0.407D-06 0.783D-04-0.218D-02 0.163D-01-0.850D-01
 Coeff:      0.336D+00-0.856D+00 0.159D+01
 Gap=     0.531 Goal=   None    Shift=    0.000
 RMSDP=1.11D-07 MaxDP=1.20D-06 DE=-1.27D-10 OVMax= 8.39D-07

 Cycle  10  Pass 1  IDiag  3:
 E=-0.459505079165723E-01 Delta-E=       -0.000000000005 Rises=F Damp=F
 DIIS: error= 4.95D-08 at cycle  10 NSaved=  10.
 NSaved=10 IEnMin=10 EnMin=-0.459505079165723E-01 IErMin=10 ErrMin= 4.95D-08
 ErrMax= 4.95D-08  0.00D+00 EMaxC= 1.00D-01 BMatC= 5.03D-14 BMatP= 8.26D-13
 IDIUse=1 WtCom= 1.00D+00 WtEn= 0.00D+00
 Coeff-Com:  0.786D-06-0.192D-04 0.242D-04 0.779D-03-0.668D-02 0.363D-01
 Coeff-Com: -0.148D+00 0.393D+00-0.911D+00 0.164D+01
 Coeff:      0.786D-06-0.192D-04 0.242D-04 0.779D-03-0.668D-02 0.363D-01
 Coeff:     -0.148D+00 0.393D+00-0.911D+00 0.164D+01
 Gap=     0.531 Goal=   None    Shift=    0.000
 RMSDP=3.00D-08 MaxDP=3.40D-07 DE=-5.14D-12 OVMax= 1.97D-07

 Cycle  11  Pass 1  IDiag  3:
 E=-0.459505079171123E-01 Delta-E=       -0.000000000001 Rises=F Damp=F
 DIIS: error= 4.32D-09 at cycle  11 NSaved=  11.
 NSaved=11 IEnMin=11 EnMin=-0.459505079171123E-01 IErMin=11 ErrMin= 4.32D-09
 ErrMax= 4.32D-09  0.00D+00 EMaxC= 1.00D-01 BMatC= 1.42D-15 BMatP= 5.03D-14
 IDIUse=1 WtCom= 1.00D+00 WtEn= 0.00D+00
 Coeff-Com: -0.744D-06 0.938D-05-0.153D-04-0.285D-03 0.254D-02-0.139D-01
 Coeff-Com:  0.572D-01-0.153D+00 0.368D+00-0.764D+00 0.150D+01
 Coeff:     -0.744D-06 0.938D-05-0.153D-04-0.285D-03 0.254D-02-0.139D-01
 Coeff:      0.572D-01-0.153D+00 0.368D+00-0.764D+00 0.150D+01
 Gap=     0.531 Goal=   None    Shift=    0.000
 RMSDP=4.56D-09 MaxDP=3.47D-08 DE=-5.40D-13 OVMax= 3.48D-08

 Cycle  12  Pass 2  IDiag  1:
 SCF Done:  E(RPDDG) = -0.459505079171E-01 A.U. after   12 cycles
            NFock= 11  Conv=0.46D-08     -V/T= 0.9978
 KE=-2.059610208867D+01 PE=-2.065987260567D+02 EE= 1.029582320085D+02
 Leave Link  502 at Wed Mar 15 15:24:49 2017, MaxMem=   134217728 cpu:         0.1
 (Enter /n/sw/g09_D.01/g09/l701.exe)
 Compute integral first derivatives.
 ... and contract with generalized density number  0.
 Leave Link  701 at Wed Mar 15 15:24:49 2017, MaxMem=   134217728 cpu:         0.1
 (Enter /n/sw/g09_D.01/g09/l702.exe)
 L702 exits ... SP integral derivatives will be done elsewhere.
 Leave Link  702 at Wed Mar 15 15:24:49 2017, MaxMem=   134217728 cpu:         0.0
 (Enter /n/sw/g09_D.01/g09/l703.exe)
 Compute integral first derivatives, UseDBF=F ICtDFT=           0.
 Integral derivatives from FoFJK, PRISM(SPDF).
 Calling FoFJK, ICntrl=      2127 FMM=F ISym2X=0 I1Cent= 0 IOpClX= 0 NMat=1 NMatS=1 NMatT=0.
 FoFJK:  IHMeth=41 ICntrl=    2127 DoSepK=F KAlg= 0 I1Cent=   0 FoldK=F
 IRaf=         0 NMat=   1 IRICut=       1 DoRegI=T DoRafI=F ISym2E= 0.
 FoFCou: FMM=F IPFlag=           0 FMFlag=      100000 FMFlg1=         800
         NFxFlg=           0 DoJE=F BraDBF=F KetDBF=F FulRan=T
         wScrn=  0.000000 ICntrl=    2127 IOpCl=  0 I1Cent=           0 NGrid=           0
         NMat0=    1 NMatS0=      1 NMatT0=    0 NMatD0=    1 NMtDS0=    0 NMtDT0=    0
 Symmetry not used in FoFCou.
 Leave Link  703 at Wed Mar 15 15:24:49 2017, MaxMem=   134217728 cpu:         0.1
 (Enter /n/sw/g09_D.01/g09/l716.exe)
 Dipole        = 5.17740473D-03-1.75215441D-02 3.14492947D-03
 ***** Axes restored to original set *****
 -------------------------------------------------------------------
 Center     Atomic                   Forces (Hartrees/Bohr)
 Number     Number              X              Y              Z
 -------------------------------------------------------------------
      1        6          -0.008733188   -0.005573554    0.000362744
      2        1           0.000556952   -0.001546374   -0.000738588
      3        1           0.000446959   -0.000399768   -0.000330946
      4        1          -0.001000221    0.001121260   -0.000898067
      5        6          -0.013784693    0.000281672   -0.004968549
      6        1          -0.000589094    0.000312959    0.000600655
      7        1          -0.000751618   -0.000674245   -0.001419658
      8        6           0.000309933    0.008049221    0.013012311
      9        1           0.000317749    0.001702094    0.000103420
     10        1           0.000731377   -0.000700685    0.000696477
     11        6           0.013800807    0.002459266   -0.002490048
     12        1           0.000359621    0.000011599   -0.001349600
     13        1           0.000191837    0.000181987    0.001380781
     14        6           0.007714507   -0.003905226   -0.002186517
     15        1          -0.000138738   -0.001127670   -0.000931834
     16        1          -0.000225357   -0.000237423   -0.000499982
     17        1           0.000793166    0.000044887   -0.000342600
 -------------------------------------------------------------------
 Cartesian Forces:  Max     0.013800807 RMS     0.004108917
 Leave Link  716 at Wed Mar 15 15:24:49 2017, MaxMem=   134217728 cpu:         0.1
 (Enter /n/sw/g09_D.01/g09/l103.exe)

 GradGradGradGradGradGradGradGradGradGradGradGradGradGradGradGradGradGrad
 Berny optimization.
 Using GEDIIS/GDIIS optimizer.
 FormGI is forming the generalized inverse of G from B-inverse, IUseBI=4.
 Internal  Forces:  Max     0.023723240 RMS     0.005368727
 Search for a local minimum.
 Step number   2 out of a maximum of   92
 All quantities printed in internal units (Hartrees-Bohrs-Radians)
 RMS Force = .53687D-02 SwitMx=.10000D-02 MixMth= 1
 Mixed Optimization -- RFO/linear search
 Update second derivatives using D2CorX and points    1    2
 DE= -2.18D-02 DEPred=-6.13D-02 R= 3.56D-01
 Trust test= 3.56D-01 RLast= 3.69D-01 DXMaxT set to 3.00D-01
 ITU=  0  0
 Use linear search instead of GDIIS.
     Eigenvalues ---    0.00478   0.00506   0.00565   0.00569   0.03104
     Eigenvalues ---    0.03227   0.03663   0.04822   0.04874   0.05044
     Eigenvalues ---    0.05385   0.05473   0.05611   0.05639   0.08999
     Eigenvalues ---    0.09310   0.09523   0.12691   0.12877   0.13036
     Eigenvalues ---    0.15999   0.16000   0.16000   0.16000   0.16000
     Eigenvalues ---    0.16058   0.21974   0.22020   0.28738   0.30200
     Eigenvalues ---    0.30796   0.30835   0.32433   0.32433   0.32603
     Eigenvalues ---    0.32604   0.32604   0.32604   0.34050   0.34059
     Eigenvalues ---    0.34059   0.34059   0.34263   0.34263   0.73610
 RFO step:  Lambda=-1.58475726D-03 EMin= 4.78380260D-03
 Quartic linear search produced a step of -0.24557.
 Iteration  1 RMS(Cart)=  0.06652601 RMS(Int)=  0.00087247
 Iteration  2 RMS(Cart)=  0.00198979 RMS(Int)=  0.00030512
 Iteration  3 RMS(Cart)=  0.00000199 RMS(Int)=  0.00030511
 Iteration  4 RMS(Cart)=  0.00000000 RMS(Int)=  0.00030511
 ITry= 1 IFail=0 DXMaxC= 2.08D-01 DCOld= 1.00D+10 DXMaxT= 3.00D-01 DXLimC= 3.00D+00 Rises=F
 Variable       Old X    -DE/DX   Delta X   Delta X   Delta X     New X
                                 (Linear)    (Quad)   (Total)
    R1        2.07542  -0.00161  -0.00077  -0.00237  -0.00314   2.07229
    R2        2.06921   0.00026  -0.00008   0.00070   0.00061   2.06983
    R3        2.07476  -0.00139  -0.00060  -0.00215  -0.00275   2.07201
    R4        2.86730  -0.00684  -0.00099  -0.01512  -0.01612   2.85118
    R5        2.09735  -0.00034   0.00004  -0.00085  -0.00081   2.09654
    R6        2.09622   0.00001   0.00032  -0.00047  -0.00015   2.09607
    R7        2.92305  -0.02372  -0.01163  -0.04117  -0.05280   2.87025
    R8        2.10085  -0.00099  -0.00007  -0.00220  -0.00226   2.09858
    R9        2.09836  -0.00016   0.00055  -0.00120  -0.00066   2.09770
   R10        2.91655  -0.02075  -0.01004  -0.03621  -0.04625   2.87031
   R11        2.09642   0.00018   0.00027   0.00000   0.00027   2.09669
   R12        2.09792  -0.00079  -0.00010  -0.00167  -0.00176   2.09616
   R13        2.87389  -0.00790  -0.00261  -0.01524  -0.01785   2.85604
   R14        2.07409  -0.00121  -0.00044  -0.00200  -0.00244   2.07165
   R15        2.06908   0.00014  -0.00005   0.00038   0.00033   2.06941
   R16        2.07226  -0.00035   0.00001  -0.00079  -0.00078   2.07148
    A1        1.85849   0.00086   0.00389  -0.00223   0.00163   1.86012
    A2        1.87460  -0.00005  -0.00182   0.00027  -0.00150   1.87310
    A3        1.97308  -0.00122  -0.00581   0.00185  -0.00395   1.96913
    A4        1.87185   0.00029   0.00061   0.00293   0.00356   1.87541
    A5        1.93302  -0.00046   0.00289  -0.00538  -0.00250   1.93051
    A6        1.94749   0.00067   0.00048   0.00258   0.00309   1.95058
    A7        1.90134   0.00478   0.00586   0.00478   0.01094   1.91228
    A8        1.86985   0.00612   0.01359   0.00204   0.01501   1.88486
    A9        2.06116  -0.01651  -0.03464  -0.00829  -0.04306   2.01809
   A10        1.85020  -0.00231  -0.00181   0.01146   0.00997   1.86016
   A11        1.89445   0.00543   0.00742   0.00425   0.01213   1.90658
   A12        1.87576   0.00360   0.01201  -0.01232  -0.00068   1.87508
   A13        1.90771   0.00612   0.00457   0.00921   0.01472   1.92242
   A14        1.84936   0.00504   0.01889  -0.01635   0.00166   1.85103
   A15        2.08513  -0.01968  -0.04071  -0.01053  -0.05133   2.03380
   A16        1.84630  -0.00258  -0.00203   0.01450   0.01287   1.85916
   A17        1.89822   0.00632   0.00690   0.00838   0.01623   1.91445
   A18        1.86212   0.00623   0.01576  -0.00317   0.01135   1.87348
   A19        1.88642   0.00344   0.00939  -0.00542   0.00350   1.88992
   A20        1.90414   0.00486   0.00504   0.00655   0.01209   1.91623
   A21        2.02715  -0.01400  -0.02629  -0.01170  -0.03801   1.98914
   A22        1.84865  -0.00205  -0.00143   0.00936   0.00803   1.85668
   A23        1.86592   0.00482   0.01456  -0.00474   0.00937   1.87529
   A24        1.92264   0.00381   0.00063   0.00732   0.00830   1.93095
   A25        1.97738  -0.00094  -0.00686   0.00533  -0.00154   1.97584
   A26        1.93569  -0.00034   0.00223  -0.00376  -0.00153   1.93416
   A27        1.94607  -0.00037   0.00082  -0.00346  -0.00262   1.94346
   A28        1.86205   0.00082   0.00302   0.00008   0.00308   1.86513
   A29        1.86389   0.00038   0.00081  -0.00179  -0.00096   1.86293
   A30        1.87316   0.00060   0.00029   0.00381   0.00411   1.87727
    D1        1.08629  -0.00146  -0.00110  -0.03794  -0.03907   1.04722
    D2        3.08052   0.00135   0.00746  -0.02117  -0.01375   3.06677
    D3       -1.08413  -0.00025   0.00955  -0.04154  -0.03185  -1.11598
    D4       -0.99773  -0.00142  -0.00413  -0.03256  -0.03676  -1.03449
    D5        0.99650   0.00139   0.00443  -0.01579  -0.01143   0.98507
    D6        3.11503  -0.00021   0.00652  -0.03615  -0.02954   3.08550
    D7       -3.08166  -0.00191  -0.00718  -0.03436  -0.04160  -3.12327
    D8       -1.08743   0.00090   0.00137  -0.01758  -0.01628  -1.10371
    D9        1.03110  -0.00070   0.00347  -0.03795  -0.03438   0.99672
   D10       -1.07147   0.00125  -0.00018   0.03943   0.03915  -1.03232
   D11       -3.05375  -0.00116  -0.01055   0.02666   0.01630  -3.03745
   D12        1.12955  -0.00054  -0.01778   0.05127   0.03290   1.16244
   D13        3.03788   0.00272   0.01123   0.03555   0.04681   3.08469
   D14        1.05560   0.00030   0.00086   0.02279   0.02396   1.07956
   D15       -1.04428   0.00093  -0.00637   0.04740   0.04055  -1.00373
   D16        1.04403   0.00089   0.00274   0.02636   0.02938   1.07341
   D17       -0.93825  -0.00153  -0.00763   0.01359   0.00653  -0.93172
   D18       -3.03813  -0.00090  -0.01486   0.03820   0.02312  -3.01501
   D19        2.77467   0.00054   0.01695  -0.06246  -0.04540   2.72927
   D20        0.77217  -0.00139   0.01058  -0.07401  -0.06323   0.70894
   D21       -1.41279   0.00013   0.02472  -0.08044  -0.05542  -1.46821
   D22       -1.30303  -0.00124  -0.00175  -0.05021  -0.05212  -1.35515
   D23        2.97765  -0.00316  -0.00812  -0.06176  -0.06996   2.90770
   D24        0.79270  -0.00165   0.00602  -0.06819  -0.06215   0.73055
   D25        0.68122   0.00191   0.00814  -0.03101  -0.02310   0.65812
   D26       -1.32128  -0.00001   0.00177  -0.04256  -0.04093  -1.36221
   D27        2.77695   0.00150   0.01591  -0.04899  -0.03313   2.74383
   D28        1.07964  -0.00014  -0.00845   0.02228   0.01363   1.09326
   D29       -3.11013   0.00003  -0.00773   0.02336   0.01544  -3.09469
   D30       -1.02368   0.00031  -0.00529   0.02335   0.01787  -1.00582
   D31       -3.09680  -0.00112  -0.00346   0.00420   0.00084  -3.09596
   D32       -1.00338  -0.00095  -0.00274   0.00527   0.00265  -1.00073
   D33        1.08307  -0.00067  -0.00031   0.00527   0.00507   1.08814
   D34       -1.09586   0.00100   0.00344   0.01633   0.01986  -1.07600
   D35        0.99756   0.00117   0.00417   0.01740   0.02167   1.01923
   D36        3.08400   0.00145   0.00660   0.01740   0.02410   3.10810
         Item               Value     Threshold  Converged?
 Maximum Force            0.023723     0.000450     NO 
 RMS     Force            0.005369     0.000300     NO 
 Maximum Displacement     0.208469     0.001800     NO 
 RMS     Displacement     0.065421     0.001200     NO 
 Predicted change in Energy=-2.809395D-03
 Lowest energy point so far.  Saving SCF results.
 GradGradGradGradGradGradGradGradGradGradGradGradGradGradGradGradGradGrad

 Leave Link  103 at Wed Mar 15 15:24:49 2017, MaxMem=   134217728 cpu:         0.0
 (Enter /n/sw/g09_D.01/g09/l202.exe)
                          Input orientation:                          
 ---------------------------------------------------------------------
 Center     Atomic      Atomic             Coordinates (Angstroms)
 Number     Number       Type             X           Y           Z
 ---------------------------------------------------------------------
      1          6           0        1.558689    1.431082    1.210340
      2          1           0        0.815150    2.227745    1.332911
      3          1           0        2.531807    1.924210    1.112547
      4          1           0        1.574887    0.853485    2.142190
      5          6           0        1.284981    0.554197    0.013438
      6          1           0        1.295448    1.170634   -0.908927
      7          1           0        2.120752   -0.169067   -0.079753
      8          6           0       -0.005184   -0.245581    0.066275
      9          1           0       -0.005635   -0.912588    0.954173
     10          1           0        0.006756   -0.906801   -0.825279
     11          6           0       -1.298567    0.549617    0.022913
     12          1           0       -2.102541   -0.113869   -0.357149
     13          1           0       -1.205436    1.378642   -0.708155
     14          6           0       -1.742355    1.073965    1.369129
     15          1           0       -1.031753    1.780951    1.813004
     16          1           0       -2.700994    1.596826    1.286414
     17          1           0       -1.870934    0.259902    2.091890
 ---------------------------------------------------------------------
                    Distance matrix (angstroms):
                    1          2          3          4          5
     1  C    0.000000
     2  H    1.096607   0.000000
     3  H    1.095307   1.757159   0.000000
     4  H    1.096460   1.766556   1.767006   0.000000
     5  C    1.508781   2.182318   2.153962   2.169149   0.000000
     6  H    2.151377   2.524680   2.486527   3.080257   1.109442
     7  H    2.130899   3.073259   2.443840   2.506115   1.109192
     8  C    2.562378   2.897353   3.498428   2.830900   1.518868
     9  H    2.829403   3.267847   3.809346   2.651123   2.168440
    10  H    3.466690   3.890586   4.259774   3.789923   2.114668
    11  C    3.217278   3.000001   4.212905   3.583352   2.583569
    12  H    4.271827   4.105164   5.271712   4.550379   3.472600
    13  H    3.365080   2.994944   4.192802   4.016273   2.720769
    14  C    3.324100   2.805949   4.365456   3.413257   3.357502
    15  H    2.682537   1.959889   3.634573   2.786239   3.179720
    16  H    4.263585   3.572602   5.245914   4.423581   4.312255
    17  H    3.729760   3.415187   4.807615   3.496935   3.790300
                    6          7          8          9         10
     6  H    0.000000
     7  H    1.778610   0.000000
     8  C    2.155998   2.132318   0.000000
     9  H    3.082819   2.478578   1.110523   0.000000
    10  H    2.446111   2.359881   1.110055   1.779504   0.000000
    11  C    2.825403   3.495538   1.518901   2.162628   2.131772
    12  H    3.674334   4.232753   2.143722   2.598948   2.301526
    13  H    2.517538   3.722072   2.162972   3.074506   2.589668
    14  C    3.798306   4.309058   2.540943   2.671100   3.434858
    15  H    3.632803   4.162138   2.865614   3.007601   3.906796
    16  H    4.579597   5.313570   3.485771   3.697635   4.249625
    17  H    4.456491   4.564385   2.799938   2.479612   3.660163
                   11         12         13         14         15
    11  C    0.000000
    12  H    1.109520   0.000000
[...]
 Predicted change in Energy=-3.097019D-08
 GradGradGradGradGradGradGradGradGradGradGradGradGradGradGradGradGradGrad

 Leave Link  103 at Wed Mar 15 15:25:14 2017, MaxMem=   134217728 cpu:         0.0
 (Enter /n/sw/g09_D.01/g09/l9999.exe)
 1\1\GINC-HOLYBIGMEM05\Freq\RPDDG\ZDO\C5H12\ROOT\15-Mar-2017\0\\#P Geom
 =AllCheck Guess=TCheck SCRF=Check GenChk RPDDG/ZDO Freq\\pentane confo
 rmation 4\\0,1\C,1.5724681114,1.3246691557,1.286694349\H,0.7394446565,
 1.9613991325,1.6313389744\H,2.4564083232,1.9615739206,1.1832074644\H,1
 .7734599351,0.6052483181,2.0891437349\C,1.2347342722,0.6272747889,-0.0
 162865932\H,1.0917299342,1.3791272772,-0.8209215479\H,2.1061630515,0.0
 202119235,-0.3372647141\C,0.0064467729,-0.267385014,0.1209894226\H,0.0
 327052818,-0.8187576433,1.0872846888\H,0.048123087,-1.0553985202,-0.66
 01705073\C,-1.305764185,0.4979449747,-0.0212593819\H,-2.1095699508,-0.
 1942560051,-0.3463918123\H,-1.2365674736,1.2612986329,-0.82481467\C,-1
 .7182871737,1.1562987118,1.2805052952\H,-0.9556997156,1.8739939596,1.6
 29090827\H,-2.6616533713,1.7006190614,1.1731712802\H,-1.8490715957,0.4
 194865555,2.0816441902\\Version=EM64L-G09RevD.01\State=1-A\HF=-0.05308
 33\RMSD=1.220e-09\RMSF=1.053e-05\ZeroPoint=0.1554204\Thermal=0.161847\
 Dipole=-0.0006895,0.0127993,0.0174305\DipoleDeriv=-0.2638355,-0.024793
 4,-0.0122921,-0.0188281,-0.2038872,-0.0065681,0.0026807,-0.0017434,-0.
 1588893,0.1153678,-0.0082951,-0.013722,0.036192,0.0613813,-0.0065436,0
 .0196154,-0.0170951,0.0528648,0.0487686,-0.0137676,0.0045072,-0.012393
 ,0.0586021,-0.0023643,-0.0135765,-0.0182784,0.0471953,0.0712762,0.0049
 201,-0.0049307,-0.0022431,0.048232,-0.0038757,-0.0019018,0.0152901,0.0
 370075,-0.0670546,0.0532719,0.0290497,0.0714462,-0.0121773,0.0534935,0
 .0405676,0.0412994,-0.0308177,0.0476445,-0.0123092,-0.002451,-0.009895
 1,0.0358367,-0.0031339,-0.0209467,0.0065551,0.0306678,0.0179016,0.0000
 481,-0.0088922,-0.0132615,0.0320322,-0.0118658,0.0066467,-0.0189349,0.
 0373926,0.0160142,0.0072154,0.0023084,0.0072695,-0.1250767,-0.0399658,
 0.0009592,-0.013204,-0.1287133,0.0332625,-0.0010607,-0.0013551,-0.0011
 006,0.0538669,0.0261046,-0.0002835,0.004948,0.0505518,0.0048385,-0.001
 6347,0.0011804,-0.0015759,0.0367679,-0.0249939,0.0000443,-0.0024905,0.
 0474358,-0.0534889,-0.0576424,-0.034452,-0.0758965,-0.02545,0.0499862,
 -0.0446794,0.0367385,-0.0311127,0.0166823,-0.001527,0.0099708,0.011745
 1,0.0332479,-0.0108644,-0.0047663,-0.0195216,0.0373949,0.0451878,0.013
 2309,0.002834,0.0108599,0.0382201,-0.0028185,0.0202465,0.0087269,0.030
 7601,-0.2676715,0.018241,0.0124663,0.0122875,-0.2001009,-0.0052931,-0.
 002884,-0.0020138,-0.1588449,0.1176801,0.0141414,0.0145648,-0.0303737,
 0.0591479,-0.0052215,-0.0175825,-0.0189331,0.0528143,0.0461619,0.01259
 5,-0.0042286,0.011163,0.0611418,-0.0027226,0.0153724,-0.0167163,0.0472
 189,0.0712657,-0.0026335,0.005442,0.0046043,0.0482163,-0.0033544,0.000
 4881,0.0153713,0.0370746\Polar=39.0096066,0.2465075,34.1661189,-0.0008
 495,0.2064304,34.2339341\HyperPolar=-2.3734548,15.6177413,1.6024972,0.
 1316273,-1.1287413,0.3911231,-7.4673148,0.7104893,-14.4006295,6.174517
 8\PG=C01 [X(C5H12)]\NImag=0\\0.53985802,0.01982816,0.52935977,0.004055
 41,0.00108768,0.52499368,-0.17809692,0.10454437,0.05429715,0.20982813,
 0.10576403,-0.11980476,-0.04151471,-0.11479130,0.13155065,0.05362953,-
 0.04034081,-0.06131611,-0.05858723,0.05060931,0.06664841,-0.20918500,-
 0.12131167,0.02276002,-0.01777623,-0.00899563,0.00465704,0.22525154,-0
 .12023619,-0.12559783,0.01615377,0.00890242,0.00838907,-0.00221745,0.1
 3655541,0.13438322,0.02497806,0.01794537,-0.04332561,0.00592951,0.0026
 1773,0.00102392,-0.02431499,-0.01579509,0.04471225,-0.04837234,0.03084
 275,-0.03388532,-0.00351154,0.01620998,-0.01215761,0.00388070,-0.01463
 471,0.01289105,0.04776650,0.03108163,-0.15509322,0.12416151,0.00647582
 ,-0.01141115,0.00959937,-0.00076607,-0.01100631,0.01131312,-0.03378001
 ,0.16648751,-0.03318678,0.12177366,-0.17153975,-0.00059245,-0.00163315
 ,0.00468957,0.00093461,0.00603761,-0.00249880,0.04078618,-0.13490184,0
 .19195225,-0.08551889,-0.01742735,-0.03420183,0.00906194,0.00822129,0.
 01599044,-0.00184177,-0.01014042,-0.01851090,0.00224441,-0.00200004,-0
 .00547830,0.53473604,-0.01802638,-0.11669297,-0.07717523,-0.00196824,-
 0.00537866,-0.01519280,-0.00492622,-0.00500838,-0.01390437,0.00312599,
 0.01234922,0.01153927,-0.00533918,0.52026550,-0.03502874,-0.07746896,-
 0.22787181,0.00072516,-0.00775924,-0.00771284,-0.00284233,-0.00201480,
 0.00370291,-0.00561978,-0.00800131,-0.01873031,-0.00185703,0.00035495,
 0.53498659,0.00274323,0.00198939,-0.00456025,0.00009683,-0.00001177,0.
 00022641,-0.00048485,-0.00015502,-0.00060515,0.00024861,-0.00045885,-0
 .00050661,-0.04530086,0.02356572,-0.02427655,0.05623562,-0.00237414,0.
 01082283,-0.00749223,0.00005474,0.00023313,0.00015265,-0.00014925,0.00
 009294,-0.00007498,-0.00043073,-0.00113561,-0.00161769,0.02280299,-0.1
 4910371,0.11415978,-0.02041031,0.16073235,-0.00559554,0.01110030,-0.01
 732075,0.00026406,0.00019777,0.00008267,-0.00073419,-0.00014936,-0.000
 64749,-0.00052007,-0.00160143,-0.00185745,-0.02307725,0.11193646,-0.15
 760536,0.02519129,-0.12635823,0.17273146,0.00718964,-0.00197667,0.0001
 8379,-0.00028566,-0.00039977,-0.00109574,0.00007121,-0.00012379,-0.000
 02294,0.00007895,0.00006529,0.00029159,-0.18270168,0.10177330,0.051034
 75,-0.00410303,0.00710716,-0.00035693,0.20392227,0.00707559,-0.0040267
 2,-0.00639684,-0.00050354,-0.00013963,-0.00118784,-0.00017989,-0.00098
 819,-0.00057781,0.00003833,0.00022205,0.00001180,0.10331207,-0.1131033
 2,-0.03557991,0.01507848,-0.01175689,-0.00048139,-0.10872046,0.1217125
 3,0.01458155,-0.01497190,-0.00627806,-0.00124144,-0.00120761,-0.002286
 74,-0.00009025,-0.00068237,-0.00023297,0.00035930,0.00007763,-0.000402
 45,0.04915069,-0.03341085,-0.05707834,-0.01092791,0.01013357,0.0039246
 9,-0.05392294,0.04193505,0.05883189,-0.01040334,-0.01437347,-0.0103196
 8,0.00007443,-0.00072095,-0.00054776,0.00025864,-0.00025108,-0.0001198
 4,-0.00131631,-0.00061451,-0.00170405,-0.18580444,-0.08188076,0.016451
 24,0.00368843,-0.00292609,0.00264421,-0.01730259,-0.01175068,0.0036675
 9,0.52277481,-0.01901638,-0.01483850,-0.00859444,-0.00075501,-0.002015
 00,-0.00139429,-0.00024715,-0.00032271,-0.00136112,-0.00043283,0.00019
 504,-0.00068539,-0.08271723,-0.14032255,0.01351570,-0.01682803,-0.0098
 9322,0.00477119,0.00687157,0.01044299,-0.00155654,-0.00072744,0.535769
 68,-0.02362205,-0.01812894,0.00117739,-0.00026753,-0.00121032,-0.00036
 207,-0.00031430,-0.00135536,-0.00287440,-0.00192186,-0.00116214,-0.001
 09194,0.01633435,0.01217709,-0.07959707,0.01404511,0.01076615,0.000962
 14,0.00513313,0.00291742,0.00295365,-0.00063355,0.01220387,0.53393453,
 -0.00147088,-0.00337142,-0.00048826,0.00001133,-0.00002587,0.00000593,
 0.00003968,0.00006197,0.00013553,-0.00083299,-0.00010128,-0.00075326,0
 .00023399,-0.01113411,0.01740426,-0.00208044,-0.00118783,-0.00024360,0
 .00031407,0.00006252,-0.00026111,-0.04069483,0.00243824,-0.00446339,0.
 04805691,-0.00288269,-0.00419254,-0.00069958,-0.00000401,-0.00010638,-
 0.00000914,0.00006272,0.00006473,0.00008092,-0.00088925,-0.00063264,-0
 .00067037,-0.00473502,-0.00651092,0.01477416,-0.00144151,-0.00061764,0
 .00015118,0.00015823,-0.00008625,-0.00009076,0.00244241,-0.09201748,0.
 09417844,-0.00281485,0.10717656,-0.00029497,-0.00073767,0.00088995,0.0
 0003492,0.00002440,0.00001987,-0.00001687,-0.00002253,-0.00005824,0.00
 000897,0.00047898,-0.00051463,0.00318464,0.00402834,0.00148150,-0.0002
 4736,-0.00018337,0.00005925,-0.00032888,-0.00023060,0.00008646,-0.0045
 6700,0.09620006,-0.21601249,0.00511708,-0.10732156,0.23330642,-0.00204
 161,-0.00171231,0.00067441,-0.00004891,0.00003441,0.00007859,-0.000026
 20,-0.00016826,-0.00047090,0.00000519,0.00003639,0.00011601,0.00035752
 ,-0.01430340,-0.01274120,-0.00009744,0.00028717,-0.00005931,-0.0055525
 5,-0.00277465,-0.00108466,-0.03826197,0.00606295,0.00603763,0.00278748
 ,-0.00015761,-0.00018766,0.05308605,-0.00141337,-0.00072403,0.00061849
 ,0.00002828,0.00006243,0.00009809,-0.00002897,-0.00008215,-0.00026907,
 0.00001889,0.00003745,0.00009004,-0.00378701,-0.00914464,-0.01104787,0
 .00020034,0.00047512,-0.00002740,-0.00312111,-0.00097858,-0.00051240,0
 .00605783,-0.15247354,-0.11382566,-0.00019058,0.00634939,0.00459868,-0
 .00593145,0.16410285,0.00040015,0.00019547,-0.00006383,0.00002521,0.00
 005427,-0.00000803,-0.00001246,0.00001597,0.00014966,0.00004410,-0.000
 01092,-0.00001945,-0.00132956,0.00006434,0.00565793,0.00009838,-0.0000
 1428,-0.00007344,-0.00126145,-0.00065202,0.00024182,0.00620749,-0.1171
 5923,-0.16017734,0.00067223,-0.01229570,-0.02115066,-0.00684189,0.1298
 7000,0.16949467,-0.00102935,-0.00006082,-0.00046439,0.00013001,-0.0000
 8396,0.00005152,0.00003295,0.00002945,0.00006729,-0.00012521,-0.000019
 45,0.00000291,-0.03775270,0.00564669,-0.00115297,-0.00455924,-0.001768
 82,0.00171198,-0.00148343,-0.00140867,-0.00015733,-0.20186761,0.076409
 18,-0.01795037,-0.00135337,0.00520514,-0.00358859,-0.00162967,0.004598
 61,0.00128845,0.53352839,-0.00029728,0.00009720,-0.00008866,-0.0000787
 6,0.00001488,0.00006957,0.00004458,-0.00002120,-0.00002367,-0.00003549
 ,-0.00001089,0.00004038,-0.01081518,0.01294060,-0.00099514,-0.00203874
 ,0.00048437,0.00026320,-0.00175014,-0.00154513,0.00028346,0.07557564,-
 0.12418466,0.01074524,0.01164396,-0.00484373,0.00372845,0.01507505,-0.
 00721655,0.00025529,0.00662739,0.52152691,-0.00044753,-0.00029748,-0.0
 0013772,-0.00020920,-0.00010053,-0.00002106,0.00002315,-0.00003893,-0.
 00001873,-0.00003594,0.00001483,-0.00002544,0.00108690,-0.00085046,0.0
 0276010,0.00237243,0.00038530,0.00000143,0.00034630,0.00029720,0.00021
 966,-0.01820210,0.01207121,-0.07973643,-0.01882568,0.01294965,0.001398
 43,0.01377175,-0.00968117,0.00571506,0.00182352,0.00056582,0.53495637,
 0.00002631,-0.00001069,-0.00001130,-0.00004114,0.00001604,0.00003610,0
 .00000700,-0.00000989,-0.00000550,-0.00000422,-0.00000286,0.00001261,-
 0.00180168,0.00172237,-0.00038249,0.00012516,0.00010993,-0.00004783,-0
 .00026773,-0.00025998,0.00002172,-0.01746875,-0.00971258,-0.00549993,0
 .00032874,-0.00011497,0.00035206,-0.00611831,0.00260377,0.00129577,-0.
 16083212,-0.10647604,-0.04770155,0.18064949,-0.00000294,0.00002971,-0.
 00002892,0.00004157,0.00000684,0.00002189,-0.00000229,0.00000681,0.000
 02132,0.00000122,0.00000405,-0.00001598,0.00138040,-0.00122516,0.00026
 568,-0.00005324,-0.00007715,-0.00001732,0.00020375,0.00028407,-0.00003
 492,0.00888881,0.01064757,0.00242574,-0.00001819,-0.00010492,-0.000196
 18,0.00225758,-0.00043062,-0.00051173,-0.10800583,-0.13448146,-0.04112
 441,0.11452293,0.14445942,0.00005847,0.00000581,-0.00003161,0.00001663
 ,0.00001268,0.00000111,-0.00001062,0.00001605,0.00000958,-0.00000498,-
 0.00000912,0.00000309,0.00012051,0.00030416,0.00021835,0.00003187,0.00
 002208,0.00000168,-0.00001912,-0.00003777,0.00003678,-0.00356967,-0.00
 195664,0.00291690,0.00027023,-0.00006422,0.00008906,0.00110528,-0.0003
 8904,0.00025296,-0.04604923,-0.03876709,-0.05755950,0.05001688,0.04777
 583,0.05935239,-0.00009350,-0.00008214,-0.00001089,0.00001729,-0.00000
 383,-0.00002415,-0.00002249,0.00000343,-0.00001411,0.00001163,0.000003
 46,0.00003006,-0.00487871,0.00149163,-0.00241802,-0.00641639,-0.001118
 73,0.00082362,0.00012884,0.00007428,-0.00003342,0.00162707,0.01799522,
 -0.01505054,-0.00233236,0.00126539,0.00025604,-0.00004351,-0.00025248,
 -0.00009686,-0.04179174,-0.01307952,0.01301740,-0.00198212,-0.01408145
 ,0.00980173,0.05330546,-0.00003382,-0.00002787,-0.00000075,0.00003575,
 -0.00000265,0.00000515,-0.00000388,-0.00000206,-0.00002363,-0.00000602
 ,-0.00001870,-0.00000788,0.00122295,0.00081591,0.00014820,0.00048910,-
 0.00021365,0.00023487,-0.00008908,-0.00008077,0.00001834,0.00406120,-0
 .00777060,0.00929297,0.00101207,-0.00036683,-0.00015377,-0.00033956,0.
 00042022,-0.00002508,-0.01232507,-0.15294927,0.11598157,-0.00615212,-0
 .01393218,0.01114814,0.00996096,0.16404055,0.00001676,-0.00000120,0.00
 000471,-0.00002037,-0.00002856,-0.00005097,-0.00000409,0.00000077,0.00
 000230,0.00001008,0.00000886,-0.00001005,-0.00174836,0.00009460,-0.000
 01327,-0.00086332,0.00014654,-0.00020492,0.00004985,-0.00001212,0.0000
 0172,-0.00311106,0.00454781,0.00089614,0.00021769,0.00018034,0.0000608
 9,0.00006192,-0.00002205,-0.00007378,0.01204958,0.11364518,-0.15725052
 ,0.00037181,-0.00052063,0.00397937,-0.01271471,-0.12822116,0.17234992,
 -0.00359824,-0.00065146,-0.00005928,-0.00923599,-0.00158628,-0.0006518
 6,-0.00021597,0.00024821,0.00011031,-0.00002251,0.00004012,0.00011768,
 -0.00105702,0.00018022,0.00047122,-0.00010435,0.00002605,-0.00001696,0
 .00002493,0.00000233,-0.00005860,-0.01398089,0.01912751,0.02529209,-0.
 00213801,0.00309763,0.00035719,-0.00233804,0.00124484,-0.00042614,-0.0
 8979348,0.02109237,0.04333701,0.00764353,-0.00584874,-0.01293046,0.002
 74711,0.00157972,0.00452527,0.54370218,0.00027022,0.00011165,-0.000288
 51,-0.00470809,-0.00001756,0.00003964,0.00000678,0.00005419,0.00003799
 ,-0.00010134,0.00001814,-0.00000965,-0.00005636,0.00012098,-0.00025090
 ,0.00007433,-0.00001700,-0.00000276,0.00001033,0.00003124,-0.00000003,
 0.01453525,-0.01139701,-0.01558053,0.00358659,-0.00353028,-0.00069098,
 0.00154648,-0.00042215,0.00016000,0.02049181,-0.11265376,-0.07331783,0
 .00323397,-0.00440696,-0.01636320,-0.00286440,0.01077167,0.01162496,-0
 .01831706,0.52553919,0.00007464,-0.00028424,0.00041259,-0.00209020,0.0
 0000369,0.00035346,-0.00002906,0.00003812,0.00002190,0.00003479,0.0000
 0350,0.00002383,0.00046637,-0.00003936,-0.00013402,0.00001035,0.000000
 47,0.00000472,0.00001433,-0.00002778,-0.00003185,0.01108357,-0.0074294
 6,0.00131731,0.00054738,-0.00063638,0.00089275,-0.00074231,0.00055184,
 -0.00006843,0.04248606,-0.07310891,-0.22762285,0.00052976,-0.00640728,
 -0.00635447,0.00538030,-0.00695665,-0.01726435,-0.00411878,0.00052259,
 0.52496688,-0.00979212,0.00370847,0.00204095,-0.01023704,-0.00356472,-
 0.00160075,0.00001851,-0.00011335,-0.00005294,-0.00000240,0.00003355,-
 0.00006500,0.00011312,0.00008734,0.00021765,0.00001989,-0.00003320,0.0
 0002344,-0.00003468,-0.00004588,-0.00001795,-0.00010075,0.00095652,0.0
 0039104,0.00000738,0.00001521,-0.00003763,-0.00004090,-0.00003928,-0.0
 0003073,0.00960818,0.00356356,0.00014754,-0.00038681,0.00048282,0.0013
 6651,0.00010466,-0.00006827,-0.00028299,-0.15582745,-0.10801939,-0.050
 31448,0.18540359,0.00058122,0.00052839,0.00021850,0.00264338,-0.001366
 08,-0.00026440,-0.00003660,-0.00000198,0.00000130,0.00010105,-0.000015
 15,0.00003071,0.00009356,0.00003283,-0.00007749,0.00000607,-0.00000559
 ,-0.00002608,-0.00002036,0.00000043,0.00001075,0.00092180,-0.00184254,
 -0.00117479,0.00003722,-0.00010137,0.00002120,-0.00004518,0.00005484,0
 .00005127,-0.00665275,-0.00583895,-0.00782136,0.00037948,-0.00004794,-
 0.00107198,-0.00000219,0.00022671,0.00016926,-0.10922933,-0.14154795,-
 0.04734994,0.12004022,0.15539558,0.00061234,0.00011768,0.00036199,0.00
 160167,-0.00010920,-0.00108282,0.00001554,-0.00000959,0.00001839,-0.00
 000615,0.00002154,0.00000288,-0.00005896,0.00006489,-0.00001993,0.0000
 2399,0.00000716,-0.00005086,-0.00003822,0.00001792,0.00000096,0.000688
 91,-0.00132908,-0.00035912,-0.00000498,-0.00000973,0.00001975,-0.00008
 836,0.00008953,-0.00000843,-0.01429690,-0.01671595,-0.00779673,0.00121
 928,-0.00106605,-0.00227742,-0.00024087,0.00012774,0.00007760,-0.04977
 368,-0.04611918,-0.06183853,0.05376387,0.05690472,0.06722303,-0.000187
 02,-0.00003173,0.00002436,0.00000276,0.00003715,-0.00001471,-0.0000200
 4,0.00001567,0.00000564,0.00001385,0.00000136,0.00001296,0.00004030,-0
 .00003821,-0.00001879,-0.00002242,0.00000192,0.00000394,0.00000570,0.0
 0000206,0.00000890,0.00019901,0.00030658,0.00046426,0.00005313,-0.0000
 6427,0.00001955,-0.00004900,0.00003355,0.00000993,-0.00349506,0.005141
 46,0.00300322,0.00002865,0.00028490,0.00015929,-0.00051990,0.00008873,
 0.00075297,-0.23238318,0.11036383,-0.02504201,-0.01750369,0.00634834,-
 0.00449672,0.25158656,-0.00027275,0.00002518,0.00004004,0.00011347,0.0
 0001359,-0.00001088,-0.00002150,0.00003648,0.00001009,-0.00001508,0.00
 000177,0.00001481,-0.00002279,-0.00002822,-0.00004116,-0.00000550,-0.0
 0000219,0.00000120,0.00000971,0.00000804,0.00001706,0.00031002,-0.0002
 6377,-0.00131265,-0.00006309,0.00005187,-0.00002089,0.00017124,-0.0000
 6140,0.00001769,0.01029449,-0.00344500,-0.00167567,0.00022938,-0.00094
 222,-0.00066627,0.00009484,0.00011781,-0.00007522,0.10929596,-0.102158
 45,0.01421816,-0.01152499,0.00812771,-0.00272540,-0.12455171,0.1078306
 0,-0.00011466,0.00002637,0.00002161,0.00005254,0.00000688,0.00001849,-
 0.00000682,0.00000958,0.00001482,-0.00000007,0.00000188,0.00000051,-0.
 00006407,-0.00003088,-0.00001909,0.00001629,-0.00002210,0.00000240,0.0
 0000336,0.00002182,0.00000966,0.00027136,-0.00133848,-0.00287347,-0.00
 014262,0.00006651,-0.00005874,0.00049506,-0.00021969,0.00015155,0.0198
 0067,-0.01194070,0.00379426,0.00008205,-0.00056886,-0.00023093,0.00061
 667,-0.00001378,-0.00065013,-0.02743182,0.01578069,-0.04353926,-0.0062
 6724,0.00203715,0.00097436,0.02662214,-0.01376558,0.04493619,-0.000027
 87,0.00009646,-0.00003494,0.00001072,-0.00009879,0.00000428,0.00001230
 ,0.00001621,-0.00000006,-0.00006239,0.00000546,-0.00001816,-0.00012961
 ,0.00002327,0.00003354,0.00001125,0.00000914,-0.00001089,-0.00000426,-
 0.00000193,0.00000591,-0.00142093,0.00026891,0.00202593,-0.00092983,0.
 00085744,-0.00006151,0.00001185,-0.00002187,-0.00004261,0.00241341,-0.
 00419290,0.00649288,0.00009402,-0.00005130,-0.00036335,0.00013866,0.00
 056734,0.00068898,-0.04342251,-0.02005279,0.02170934,-0.00134948,-0.01
 516597,0.01107923,0.00225032,0.01595827,-0.01393289,0.04240429,-0.0000
 4492,0.00002382,-0.00000019,-0.00003079,-0.00002871,0.00002195,-0.0000
 0033,0.00000335,0.00000188,-0.00001275,0.00000838,0.00000371,0.0000071
 9,-0.00000653,0.00001838,-0.00000044,-0.00001811,0.00000779,0.00000207
 ,0.00000414,-0.00000852,0.00045202,0.00028619,-0.00095644,0.00006463,-
 0.00053158,0.00047744,-0.00003886,0.00003147,-0.00001547,0.00102274,0.
 01212658,-0.00735767,-0.00007878,0.00021017,0.00004055,0.00059549,-0.0
 0102832,-0.00153738,-0.02030209,-0.16049582,0.12690156,-0.00547866,-0.
 01359892,0.01073303,0.00206037,-0.00931184,0.00994916,0.02178308,0.172
 32568,-0.00011661,-0.00002120,0.00002344,0.00006157,0.00003662,0.00000
 315,-0.00001439,0.00001356,0.00000044,0.00001737,0.00000554,0.00001807
 ,-0.00000762,0.00004001,-0.00002530,-0.00002901,-0.00001085,-0.0000101
 6,-0.00001092,-0.00001720,0.00000310,0.00176034,-0.00050513,-0.0010739
 2,0.00081259,-0.00058380,-0.00050959,-0.00012436,0.00007766,-0.0000201
 7,0.00437777,0.01204367,-0.01867630,-0.00028940,-0.00001824,-0.0004073
 8,0.00067780,-0.00155430,-0.00185464,0.02125680,0.12445763,-0.17113956
 ,0.00071869,-0.00165878,0.00475490,-0.00151491,0.00597464,-0.00255227,
 -0.02757572,-0.13827981,0.19146611\\0.00000328,0.00000394,-0.00000346,
 -0.00000179,-0.00000226,0.00000796,-0.00000122,0.00000238,0.00000338,-
 0.00000433,-0.00000378,0.00000448,0.00001828,0.00002276,-0.00002171,0.
 00000328,-0.00001353,-0.00000335,0.00000584,0.00000558,0.00000378,-0.0
 0002097,-0.00002018,0.00002289,0.00000638,-0.00000065,-0.00000759,-0.0
 0000081,-0.00000424,0.00000167,0.00000524,0.00000678,-0.00001818,-0.00
 000322,-0.00000111,-0.00000070,-0.00001306,0.00000075,0.00000291,0.000
 00511,-0.00002483,0.00002185,-0.00000374,0.00001105,-0.00000273,0.0000
 0426,0.00001962,-0.00000143,-0.00000253,-0.00000228,-0.00000979\\\@


 THEREFORE SHALL EVIL COME UPON THEE...
 THOU SHALT NOT KNOW FROM WHENCE IT RISETH...
 AND MISCHIEF SHALL FALL UPON THEE...
 THOU SHALT NOT BE ABLE TO PUT IT OFF...
 AND DESOLATION SHALL COME UPON THEE SUDDENLY...
 WHICH THOU SHALT NOT KNOW...

                                         ISAIAH 47.11
 Job cpu time:       0 days  0 hours  0 minutes  1.9 seconds.
 File lengths (MBytes):  RWF=     10 Int=      0 D2E=      0 Chk=      2 Scr=      1
 Normal termination of Gaussian 09 at Wed Mar 15 15:25:14 2017.
