 Entering Gaussian System, Link 0=g09
 Input=pentane_conformation_2.gjf
 Output=pentane_conformation_2.out
 Initial command:
 /n/sw/g09_D.01/g09/l1.exe "/scratch/ekwan_pentane_conformation_2/Gau-40801.inp" -scrdir="/scratch/ekwan_pentane_conformation_2/"
 Entering Link 1 = /n/sw/g09_D.01/g09/l1.exe PID=     40849.
  
 Copyright (c) 1988,1990,1992,1993,1995,1998,2003,2009,2013,
            Gaussian, Inc.  All Rights Reserved.
  
 This is part of the Gaussian(R) 09 program.  It is based on
 the Gaussian(R) 03 system (copyright 2003, Gaussian, Inc.),
 the Gaussian(R) 98 system (copyright 1998, Gaussian, Inc.),
 the Gaussian(R) 94 system (copyright 1995, Gaussian, Inc.),
 the Gaussian 92(TM) system (copyright 1992, Gaussian, Inc.),
 the Gaussian 90(TM) system (copyright 1990, Gaussian, Inc.),
 the Gaussian 88(TM) system (copyright 1988, Gaussian, Inc.),
 the Gaussian 86(TM) system (copyright 1986, Carnegie Mellon
 University), and the Gaussian 82(TM) system (copyright 1983,
 Carnegie Mellon University). Gaussian is a federally registered
 trademark of Gaussian, Inc.
  
 This software contains proprietary and confidential information,
 including trade secrets, belonging to Gaussian, Inc.
  
 This software is provided under written license and may be
 used, copied, transmitted, or stored only in accord with that
 written license.
  
 The following legend is applicable only to US Government
 contracts under FAR:
  
                    RESTRICTED RIGHTS LEGEND
  
 Use, reproduction and disclosure by the US Government is
 subject to restrictions as set forth in subparagraphs (a)
 and (c) of the Commercial Computer Software - Restricted
 Rights clause in FAR 52.227-19.
  
 Gaussian, Inc.
 340 Quinnipiac St., Bldg. 40, Wallingford CT 06492
  
  
 ---------------------------------------------------------------
 Warning -- This program may not be used in any manner that
 competes with the business of Gaussian, Inc. or will provide
 assistance to any competitor of Gaussian, Inc.  The licensee
 of this program is prohibited from giving any competitor of
 Gaussian, Inc. access to this program.  By using this program,
 the user acknowledges that Gaussian, Inc. is engaged in the
 business of creating and licensing software in the field of
 computational chemistry and represents and warrants to the
 licensee that it is not a competitor of Gaussian, Inc. and that
 it will not use this program in any manner prohibited above.
 ---------------------------------------------------------------
  

 Cite this work as:
 Gaussian 09, Revision D.01,
 M. J. Frisch, G. W. Trucks, H. B. Schlegel, G. E. Scuseria, 
 M. A. Robb, J. R. Cheeseman, G. Scalmani, V. Barone, B. Mennucci, 
 G. A. Petersson, H. Nakatsuji, M. Caricato, X. Li, H. P. Hratchian, 
 A. F. Izmaylov, J. Bloino, G. Zheng, J. L. Sonnenberg, M. Hada, 
 M. Ehara, K. Toyota, R. Fukuda, J. Hasegawa, M. Ishida, T. Nakajima, 
 Y. Honda, O. Kitao, H. Nakai, T. Vreven, J. A. Montgomery, Jr., 
 J. E. Peralta, F. Ogliaro, M. Bearpark, J. J. Heyd, E. Brothers, 
 K. N. Kudin, V. N. Staroverov, T. Keith, R. Kobayashi, J. Normand, 
 K. Raghavachari, A. Rendell, J. C. Burant, S. S. Iyengar, J. Tomasi, 
 M. Cossi, N. Rega, J. M. Millam, M. Klene, J. E. Knox, J. B. Cross, 
 V. Bakken, C. Adamo, J. Jaramillo, R. Gomperts, R. E. Stratmann, 
 O. Yazyev, A. J. Austin, R. Cammi, C. Pomelli, J. W. Ochterski, 
 R. L. Martin, K. Morokuma, V. G. Zakrzewski, G. A. Voth, 
 P. Salvador, J. J. Dannenberg, S. Dapprich, A. D. Daniels, 
 O. Farkas, J. B. Foresman, J. V. Ortiz, J. Cioslowski, 
 and D. J. Fox, Gaussian, Inc., Wallingford CT, 2013.
 
 ******************************************
 Gaussian 09:  EM64L-G09RevD.01 24-Apr-2013
                15-Mar-2017 
 ******************************************
 %mem=1GB
 ------------------------
 #p opt freq=noraman pddg
 ------------------------
 1/14=-1,18=20,19=15,26=1,38=1/1,3;
 2/9=110,12=2,17=6,18=5,40=1/2;
 3/5=2,16=1,25=1,41=4000000,71=1/1,2,3;
 4/35=1/1;
 5/5=2,35=1,38=5/2;
 6/7=2,8=2,9=2,10=2,28=1/1;
 7//1,2,3,16;
 1/14=-1,18=20,19=15,26=1/3(2);
 2/9=110/2;
 99//99;
 2/9=110/2;
 3/5=2,16=1,25=1,41=4000000,71=1,135=20/1,2,3;
 4/5=5,16=3,35=1/1;
 5/5=2,35=1,38=5/2;
 7//1,2,3,16;
 1/14=-1,18=20,19=15,26=1/3(-5);
 2/9=110/2;
 6/7=2,8=2,9=2,10=2,19=2,28=1/1;
 99/9=1/99;
 Leave Link    1 at Wed Mar 15 15:24:39 2017, MaxMem=   134217728 cpu:         0.0
 (Enter /n/sw/g09_D.01/g09/l101.exe)
 ----------------------
 pentane conformation 2
 ----------------------
 Symbolic Z-matrix:
 Charge =  0 Multiplicity = 1
 C                     2.4879   -0.32858  -0.00001 
 H                     2.52709  -0.97981   0.88143 
 H                     3.39978   0.27729  -0.00004 
 H                     2.52705  -0.97985  -0.88142 
 C                     1.24631   0.53987  0. 
 H                     1.24573   1.21107   0.88402 
 H                     1.2457    1.21104  -0.88405 
 C                     0.       -0.33329   0.00003 
 H                     0.       -1.00756   0.88375 
 H                    0.        -1.0076   -0.88367 
 C                    -1.24631   0.53987   0.00001 
 H                    -1.29838   1.13588   0.93492 
 H                    -2.15875  -0.09217  -0.00196 
 C                    -1.23814   1.45526  -1.20736 
 H                    -1.21826   0.88827  -2.14581 
 H                    -2.1263    2.09498  -1.23028 
 H                    -0.36045   2.11269  -1.21168 
 
 NAtoms=     17 NQM=       17 NQMF=       0 NMMI=      0 NMMIF=      0
                NMic=       0 NMicF=      0.
                    Isotopes and Nuclear Properties:
 (Nuclear quadrupole moments (NQMom) in fm**2, nuclear magnetic moments (NMagM)
  in nuclear magnetons)

  Atom         1           2           3           4           5           6           7           8           9          10
 IAtWgt=          12           1           1           1          12           1           1          12           1           1
 AtmWgt=  12.0000000   1.0078250   1.0078250   1.0078250  12.0000000   1.0078250   1.0078250  12.0000000   1.0078250   1.0078250
 NucSpn=           0           1           1           1           0           1           1           0           1           1
 AtZEff=   0.0000000   0.0000000   0.0000000   0.0000000   0.0000000   0.0000000   0.0000000   0.0000000   0.0000000   0.0000000
 NQMom=    0.0000000   0.0000000   0.0000000   0.0000000   0.0000000   0.0000000   0.0000000   0.0000000   0.0000000   0.0000000
 NMagM=    0.0000000   2.7928460   2.7928460   2.7928460   0.0000000   2.7928460   2.7928460   0.0000000   2.7928460   2.7928460
 AtZNuc=   6.0000000   1.0000000   1.0000000   1.0000000   6.0000000   1.0000000   1.0000000   6.0000000   1.0000000   1.0000000

  Atom        11          12          13          14          15          16          17
 IAtWgt=          12           1           1          12           1           1           1
 AtmWgt=  12.0000000   1.0078250   1.0078250  12.0000000   1.0078250   1.0078250   1.0078250
 NucSpn=           0           1           1           0           1           1           1
 AtZEff=   0.0000000   0.0000000   0.0000000   0.0000000   0.0000000   0.0000000   0.0000000
 NQMom=    0.0000000   0.0000000   0.0000000   0.0000000   0.0000000   0.0000000   0.0000000
 NMagM=    0.0000000   2.7928460   2.7928460   0.0000000   2.7928460   2.7928460   2.7928460
 AtZNuc=   6.0000000   1.0000000   1.0000000   6.0000000   1.0000000   1.0000000   1.0000000
 Leave Link  101 at Wed Mar 15 15:24:39 2017, MaxMem=   134217728 cpu:         0.2
 (Enter /n/sw/g09_D.01/g09/l103.exe)

 GradGradGradGradGradGradGradGradGradGradGradGradGradGradGradGradGradGrad
 Berny optimization.
 Initialization pass.
                           ----------------------------
                           !    Initial Parameters    !
                           ! (Angstroms and Degrees)  !
 --------------------------                            --------------------------
 ! Name  Definition              Value          Derivative Info.                !
 --------------------------------------------------------------------------------
 ! R1    R(1,2)                  1.0966         estimate D2E/DX2                !
 ! R2    R(1,3)                  1.0948         estimate D2E/DX2                !
 ! R3    R(1,4)                  1.0966         estimate D2E/DX2                !
 ! R4    R(1,5)                  1.5152         estimate D2E/DX2                !
 ! R5    R(5,6)                  1.11           estimate D2E/DX2                !
 ! R6    R(5,7)                  1.11           estimate D2E/DX2                !
 ! R7    R(5,8)                  1.5217         estimate D2E/DX2                !
 ! R8    R(8,9)                  1.1116         estimate D2E/DX2                !
 ! R9    R(8,10)                 1.1116         estimate D2E/DX2                !
 ! R10   R(8,11)                 1.5217         estimate D2E/DX2                !
 ! R11   R(11,12)                1.11           estimate D2E/DX2                !
 ! R12   R(11,13)                1.11           estimate D2E/DX2                !
 ! R13   R(11,14)                1.5152         estimate D2E/DX2                !
 ! R14   R(14,15)                1.0966         estimate D2E/DX2                !
 ! R15   R(14,16)                1.0948         estimate D2E/DX2                !
 ! R16   R(14,17)                1.0966         estimate D2E/DX2                !
 ! A1    A(2,1,3)              107.3917         estimate D2E/DX2                !
 ! A2    A(2,1,4)              106.9828         estimate D2E/DX2                !
 ! A3    A(2,1,5)              111.6942         estimate D2E/DX2                !
 ! A4    A(3,1,4)              107.3916         estimate D2E/DX2                !
 ! A5    A(3,1,5)              111.4279         estimate D2E/DX2                !
 ! A6    A(4,1,5)              111.6943         estimate D2E/DX2                !
 ! A7    A(1,5,6)              110.3059         estimate D2E/DX2                !
 ! A8    A(1,5,7)              110.3057         estimate D2E/DX2                !
 ! A9    A(1,5,8)              110.0139         estimate D2E/DX2                !
 ! A10   A(6,5,7)              105.5865         estimate D2E/DX2                !
 ! A11   A(6,5,8)              110.2749         estimate D2E/DX2                !
 ! A12   A(7,5,8)              110.2748         estimate D2E/DX2                !
 ! A13   A(5,8,9)              110.3692         estimate D2E/DX2                !
 ! A14   A(5,8,10)             110.3684         estimate D2E/DX2                !
 ! A15   A(5,8,11)             109.9704         estimate D2E/DX2                !
 ! A16   A(9,8,10)             105.3114         estimate D2E/DX2                !
 ! A17   A(9,8,11)             110.3689         estimate D2E/DX2                !
 ! A18   A(10,8,11)            110.3687         estimate D2E/DX2                !
 ! A19   A(8,11,12)            110.2747         estimate D2E/DX2                !
 ! A20   A(8,11,13)            110.275          estimate D2E/DX2                !
 ! A21   A(8,11,14)            110.0139         estimate D2E/DX2                !
 ! A22   A(12,11,13)           105.5865         estimate D2E/DX2                !
 ! A23   A(12,11,14)           110.3054         estimate D2E/DX2                !
 ! A24   A(13,11,14)           110.3063         estimate D2E/DX2                !
 ! A25   A(11,14,15)           111.6943         estimate D2E/DX2                !
 ! A26   A(11,14,16)           111.4279         estimate D2E/DX2                !
 ! A27   A(11,14,17)           111.6942         estimate D2E/DX2                !
 ! A28   A(15,14,16)           107.3915         estimate D2E/DX2                !
 ! A29   A(15,14,17)           106.9828         estimate D2E/DX2                !
 ! A30   A(16,14,17)           107.3918         estimate D2E/DX2                !
 ! D1    D(2,1,5,6)             61.9839         estimate D2E/DX2                !
 ! D2    D(2,1,5,7)            178.2411         estimate D2E/DX2                !
 ! D3    D(2,1,5,8)            -59.8876         estimate D2E/DX2                !
 ! D4    D(3,1,5,6)            -58.129          estimate D2E/DX2                !
 ! D5    D(3,1,5,7)             58.1282         estimate D2E/DX2                !
 ! D6    D(3,1,5,8)            179.9995         estimate D2E/DX2                !
 ! D7    D(4,1,5,6)           -178.2419         estimate D2E/DX2                !
 ! D8    D(4,1,5,7)            -61.9847         estimate D2E/DX2                !
 ! D9    D(4,1,5,8)             59.8866         estimate D2E/DX2                !
 ! D10   D(1,5,8,9)             57.9987         estimate D2E/DX2                !
 ! D11   D(1,5,8,10)           -57.9975         estimate D2E/DX2                !
 ! D12   D(1,5,8,11)          -179.999          estimate D2E/DX2                !
 ! D13   D(6,5,8,9)            -63.8911         estimate D2E/DX2                !
 ! D14   D(6,5,8,10)          -179.8874         estimate D2E/DX2                !
 ! D15   D(6,5,8,11)            58.1111         estimate D2E/DX2                !
 ! D16   D(7,5,8,9)            179.8884         estimate D2E/DX2                !
 ! D17   D(7,5,8,10)            63.8922         estimate D2E/DX2                !
 ! D18   D(7,5,8,11)           -58.1093         estimate D2E/DX2                !
 ! D19   D(5,8,11,12)          -63.8891         estimate D2E/DX2                !
 ! D20   D(5,8,11,13)          179.8905         estimate D2E/DX2                !
 ! D21   D(5,8,11,14)           58.0            estimate D2E/DX2                !
 ! D22   D(9,8,11,12)           58.1133         estimate D2E/DX2                !
 ! D23   D(9,8,11,13)          -58.1071         estimate D2E/DX2                !
 ! D24   D(9,8,11,14)         -179.9976         estimate D2E/DX2                !
 ! D25   D(10,8,11,12)         174.1096         estimate D2E/DX2                !
 ! D26   D(10,8,11,13)          57.8891         estimate D2E/DX2                !
 ! D27   D(10,8,11,14)         -64.0013         estimate D2E/DX2                !
 ! D28   D(8,11,14,15)          59.8872         estimate D2E/DX2                !
 ! D29   D(8,11,14,16)         180.0            estimate D2E/DX2                !
 ! D30   D(8,11,14,17)         -59.887          estimate D2E/DX2                !
 ! D31   D(12,11,14,15)       -178.2419         estimate D2E/DX2                !
 ! D32   D(12,11,14,16)        -58.1291         estimate D2E/DX2                !
 ! D33   D(12,11,14,17)         61.9839         estimate D2E/DX2                !
 ! D34   D(13,11,14,15)        -61.9846         estimate D2E/DX2                !
 ! D35   D(13,11,14,16)         58.1281         estimate D2E/DX2                !
 ! D36   D(13,11,14,17)        178.2412         estimate D2E/DX2                !
 --------------------------------------------------------------------------------
 Trust Radius=3.00D-01 FncErr=1.00D-07 GrdErr=1.00D-07
 Number of steps in this run=     92 maximum allowed number of steps=    102.
 GradGradGradGradGradGradGradGradGradGradGradGradGradGradGradGradGradGrad

 Leave Link  103 at Wed Mar 15 15:24:39 2017, MaxMem=   134217728 cpu:         0.0
 (Enter /n/sw/g09_D.01/g09/l202.exe)
                          Input orientation:                          
 ---------------------------------------------------------------------
 Center     Atomic      Atomic             Coordinates (Angstroms)
 Number     Number       Type             X           Y           Z
 ---------------------------------------------------------------------
      1          6           0        2.487901   -0.328579   -0.000010
      2          1           0        2.527085   -0.979808    0.881428
      3          1           0        3.399780    0.277291   -0.000041
      4          1           0        2.527051   -0.979846   -0.881422
      5          6           0        1.246310    0.539865   -0.000004
      6          1           0        1.245725    1.211065    0.884024
      7          1           0        1.245699    1.211036   -0.884053
      8          6           0        0.000000   -0.333291    0.000027
      9          1           0        0.000001   -1.007562    0.883752
     10          1           0       -0.000001   -1.007595   -0.883669
     11          6           0       -1.246310    0.539865    0.000008
     12          1           0       -1.298384    1.135884    0.934922
     13          1           0       -2.158746   -0.092175   -0.001960
     14          6           0       -1.238139    1.455257   -1.207358
     15          1           0       -1.218264    0.888269   -2.145813
     16          1           0       -2.126303    2.094978   -1.230283
     17          1           0       -0.360453    2.112688   -1.211683
 ---------------------------------------------------------------------
                    Distance matrix (angstroms):
                    1          2          3          4          5
     1  C    0.000000
     2  H    1.096616   0.000000
     3  H    1.094807   1.766036   0.000000
     4  H    1.096617   1.762850   1.766036   0.000000
     5  C    1.515171   2.174101   2.169419   2.174101   0.000000
     6  H    2.166800   2.538073   2.508676   3.091713   1.109962
     7  H    2.166798   3.091710   2.508669   2.538077   1.109961
     8  C    2.487905   2.753363   3.454173   2.753357   1.521739
     9  H    2.726114   2.527237   3.740379   3.082627   2.174590
    10  H    2.726091   3.082613   3.740353   2.527205   2.174578
    11  C    3.833866   4.162309   4.653504   4.162294   2.492620
    12  H    4.165897   4.371867   4.866629   4.733853   2.775750
    13  H    4.652657   4.850287   5.570792   4.849547   3.463219
    14  C    4.303852   4.946664   4.935131   4.495845   2.910006
    15  H    4.452061   5.165417   5.128738   4.372175   3.286336
    16  H    5.355191   5.963862   5.946013   5.588376   3.912349
    17  H    3.942214   4.720436   4.356157   4.243880   2.554139
                    6          7          8          9         10
     6  H    0.000000
     7  H    1.768077   0.000000
     8  C    2.172169   2.172167   0.000000
     9  H    2.544432   3.098237   1.111581   0.000000
    10  H    3.098229   2.544424   1.111577   1.767421   0.000000
    11  C    2.728045   2.728029   1.521739   2.174586   2.174581
    12  H    2.545728   3.128366   2.172166   2.506548   3.096380
    13  H    3.751510   3.750559   2.172171   2.506513   2.505112
    14  C    3.256239   2.516669   2.487905   3.459944   2.775501
    15  H    3.918590   2.786993   2.753362   3.775792   2.582919
    16  H    4.077029   3.503088   3.454173   4.314634   3.777202
    17  H    2.790111   1.870840   2.753358   3.775809   3.158114
                   11         12         13         14         15
    11  C    0.000000
    12  H    1.109961   0.000000
    13  H    1.109963   1.768078   0.000000
    14  C    1.515171   2.166793   2.166806   0.000000
    15  H    2.174102   3.091708   2.538086   1.096617   0.000000
    16  H    2.169419   2.508669   2.508678   1.094807   1.766034
    17  H    2.174100   2.538065   3.091716   1.096616   1.762850
                   16         17
    16  H    0.000000
    17  H    1.766037   0.000000
 Stoichiometry    C5H12
 Framework group  C1[X(C5H12)]
 Deg. of freedom    45
 Full point group                 C1      NOp   1
 Largest Abelian subgroup         C1      NOp   1
 Largest concise Abelian subgroup C1      NOp   1
                         Standard orientation:                         
 ---------------------------------------------------------------------
 Center     Atomic      Atomic             Coordinates (Angstroms)
 Number     Number       Type             X           Y           Z
 ---------------------------------------------------------------------
      1          6           0        2.334311   -0.189960    0.119981
      2          1           0        2.762394    0.769656   -0.193785
      3          1           0        2.972898   -0.981386   -0.285546
      4          1           0        2.412474   -0.233496    1.212942
      5          6           0        0.900523   -0.342605   -0.345524
      6          1           0        0.851783   -0.326916   -1.454304
      7          1           0        0.500830   -1.333053   -0.043412
      8          6           0        0.042756    0.771823    0.235833
      9          1           0        0.442856    1.764573   -0.064130
     10          1           0        0.092056    0.758804    1.346241
     11          6           0       -1.396957    0.617558   -0.232269
     12          1           0       -1.458002    0.736656   -1.334132
     13          1           0       -2.027734    1.427073    0.190607
     14          6           0       -1.934114   -0.737686    0.180670
     15          1           0       -1.913123   -0.867486    1.269375
     16          1           0       -2.970475   -0.873357   -0.145138
     17          1           0       -1.345076   -1.555843   -0.250864
 ---------------------------------------------------------------------
 Rotational constants (GHZ):     10.9137560      2.5241876      2.2796855
 Leave Link  202 at Wed Mar 15 15:24:39 2017, MaxMem=   134217728 cpu:         0.0
 (Enter /n/sw/g09_D.01/g09/l301.exe)
 Standard basis: VSTO-6G (5D, 7F)
 Ernie: Thresh=  0.10000D-02 Tol=  0.10000D-05 Strict=F.
  NNHCO=     0 NNPyr=     0 NCTC=     0               EPep=         0.000000000
    EC=        93.256682593  ECS=         1.819665961   EG=         0.546189270
   EHC=         0.000000000  EAt=       -26.628120368  AtH=         2.358010633
 EPDDG=         0.006084764  ECC=        95.628622587 EAtT=        28.986131002
 There are    32 symmetry adapted cartesian basis functions of A   symmetry.
 There are    32 symmetry adapted basis functions of A   symmetry.
    32 basis functions,   192 primitive gaussians,    32 cartesian basis functions
    16 alpha electrons       16 beta electrons
       nuclear repulsion energy       124.6147535889 Hartrees.
 IExCor=    0 DFT=F Ex=HF Corr=None ExCW=0 ScaHFX=  1.000000
 ScaDFX=  1.000000  1.000000  1.000000  1.000000 ScalE2=  1.000000  1.000000
 IRadAn=      0 IRanWt=     -1 IRanGd=            0 ICorTp=0 IEmpDi=  4
 Integral buffers will be    131072 words long.
 Regular integral format.
 Two-electron integral symmetry is turned off.
 Leave Link  301 at Wed Mar 15 15:24:40 2017, MaxMem=   134217728 cpu:         0.1
 (Enter /n/sw/g09_D.01/g09/l302.exe)
 Do NDO integrals.
 NPDir=0 NMtPBC=     1 NCelOv=     1 NCel=       1 NClECP=     1 NCelD=      1
         NCelK=      1 NCelE2=     1 NClLst=     1 CellRange=     0.0.
 One-electron integrals computed using PRISM.
 NBasis=    32 RedAO= F EigKep=  0.00D+00  NBF=    32
 NBsUse=    32 1.00D-04 EigRej=  0.00D+00 NBFU=    32
 Leave Link  302 at Wed Mar 15 15:24:40 2017, MaxMem=   134217728 cpu:         0.1
 (Enter /n/sw/g09_D.01/g09/l303.exe)
 DipDrv:  MaxL=1.
 Leave Link  303 at Wed Mar 15 15:24:40 2017, MaxMem=   134217728 cpu:         0.1
 (Enter /n/sw/g09_D.01/g09/l401.exe)
 Simple Huckel Guess.
 JPrj=0 DoOrth=F DoCkMO=F.
 Leave Link  401 at Wed Mar 15 15:24:41 2017, MaxMem=   134217728 cpu:         0.1
 (Enter /n/sw/g09_D.01/g09/l502.exe)
 Closed shell SCF:
 Using DIIS extrapolation, IDIIS=  1040.
 Overlap will be assumed to be unity.
 Two-electron integral symmetry not used.
 Keep J ints in memory in canonical form, NReq=894650.
 IVT=       80931 IEndB=       80931 NGot=   134217728 MDV=   134134845
 LenX=   134134845 LenY=   134133380
 Requested convergence on RMS density matrix=1.00D-08 within 128 cycles.
 Requested convergence on MAX density matrix=1.00D-06.
 Requested convergence on             energy=1.00D-06.
 No special actions if energy rises.
 FoFCou: FMM=F IPFlag=           0 FMFlag=           0 FMFlg1=           0
         NFxFlg=           0 DoJE=F BraDBF=F KetDBF=F FulRan=T
         wScrn=  0.000000 ICntrl=     600 IOpCl=  2 I1Cent=           0 NGrid=           0
         NMat0=    1 NMatS0=     62 NMatT0=    0 NMatD0=    1 NMtDS0=    0 NMtDT0=    0
 Symmetry not used in FoFCou.

 Cycle   1  Pass 1  IDiag  1:
 E= 0.117513104331536    
 DIIS: error= 3.11D-02 at cycle   1 NSaved=   1.
 NSaved= 1 IEnMin= 1 EnMin= 0.117513104331536     IErMin= 1 ErrMin= 3.11D-02
 ErrMax= 3.11D-02  0.00D+00 EMaxC= 1.00D-01 BMatC= 6.85D-02 BMatP= 6.85D-02
 IDIUse=3 WtCom= 6.89D-01 WtEn= 3.11D-01
 Coeff-Com:  0.100D+01
 Coeff-En:   0.100D+01
 Coeff:      0.100D+01
 GapD=    2.000 DampG=2.000 DampE=0.500 DampFc=1.0000 IDamp=-1.
 RMSDP=1.08D-02 MaxDP=1.01D-01              OVMax= 0.00D+00

 Cycle   2  Pass 1  IDiag  1:
 E=-0.397359797919705E-01 Delta-E=       -0.157249084124 Rises=F Damp=F
 DIIS: error= 8.18D-03 at cycle   2 NSaved=   2.
 NSaved= 2 IEnMin= 2 EnMin=-0.397359797919705E-01 IErMin= 2 ErrMin= 8.18D-03
 ErrMax= 8.18D-03  0.00D+00 EMaxC= 1.00D-01 BMatC= 4.37D-03 BMatP= 6.85D-02
 IDIUse=3 WtCom= 9.18D-01 WtEn= 8.18D-02
 Coeff-Com: -0.319D+00 0.132D+01
 Coeff-En:   0.000D+00 0.100D+01
 Coeff:     -0.293D+00 0.129D+01
 RMSDP=3.74D-03 MaxDP=3.34D-02 DE=-1.57D-01 OVMax= 0.00D+00

 Cycle   3  Pass 1  IDiag  3:
 E=-0.514781705640388E-01 Delta-E=       -0.011742190772 Rises=F Damp=F
 DIIS: error= 7.16D-04 at cycle   3 NSaved=   3.
 NSaved= 3 IEnMin= 3 EnMin=-0.514781705640388E-01 IErMin= 3 ErrMin= 7.16D-04
 ErrMax= 7.16D-04  0.00D+00 EMaxC= 1.00D-01 BMatC= 5.05D-05 BMatP= 4.37D-03
 IDIUse=3 WtCom= 9.93D-01 WtEn= 7.16D-03
 Coeff-Com:  0.115D+00-0.528D+00 0.141D+01
 Coeff-En:   0.000D+00 0.000D+00 0.100D+01
 Coeff:      0.114D+00-0.524D+00 0.141D+01
 Gap=     0.532 Goal=   None    Shift=    0.000
 RMSDP=6.18D-04 MaxDP=3.28D-03 DE=-1.17D-02 OVMax= 4.25D-03

 Cycle   4  Pass 1  IDiag  3:
 E=-0.517120656241588E-01 Delta-E=       -0.000233895060 Rises=F Damp=F
 DIIS: error= 2.48D-04 at cycle   4 NSaved=   4.
 NSaved= 4 IEnMin= 4 EnMin=-0.517120656241588E-01 IErMin= 4 ErrMin= 2.48D-04
 ErrMax= 2.48D-04  0.00D+00 EMaxC= 1.00D-01 BMatC= 3.16D-06 BMatP= 5.05D-05
 IDIUse=3 WtCom= 9.98D-01 WtEn= 2.48D-03
 Coeff-Com: -0.672D-01 0.315D+00-0.101D+01 0.176D+01
 Coeff-En:   0.000D+00 0.000D+00 0.000D+00 0.100D+01
 Coeff:     -0.671D-01 0.315D+00-0.100D+01 0.176D+01
 Gap=     0.533 Goal=   None    Shift=    0.000
 RMSDP=2.32D-04 MaxDP=1.61D-03 DE=-2.34D-04 OVMax= 1.06D-03

 Cycle   5  Pass 1  IDiag  3:
 E=-0.517315876971338E-01 Delta-E=       -0.000019522073 Rises=F Damp=F
 DIIS: error= 3.68D-05 at cycle   5 NSaved=   5.
 NSaved= 5 IEnMin= 5 EnMin=-0.517315876971338E-01 IErMin= 5 ErrMin= 3.68D-05
 ErrMax= 3.68D-05  0.00D+00 EMaxC= 1.00D-01 BMatC= 5.56D-08 BMatP= 3.16D-06
 IDIUse=1 WtCom= 1.00D+00 WtEn= 0.00D+00
 Coeff-Com:  0.129D-01-0.606D-01 0.198D+00-0.391D+00 0.124D+01
 Coeff:      0.129D-01-0.606D-01 0.198D+00-0.391D+00 0.124D+01
 Gap=     0.533 Goal=   None    Shift=    0.000
 RMSDP=2.07D-05 MaxDP=1.90D-04 DE=-1.95D-05 OVMax= 1.40D-04

 Cycle   6  Pass 1  IDiag  3:
 E=-0.517318706675383E-01 Delta-E=       -0.000000282970 Rises=F Damp=F
 DIIS: error= 1.18D-05 at cycle   6 NSaved=   6.
 NSaved= 6 IEnMin= 6 EnMin=-0.517318706675383E-01 IErMin= 6 ErrMin= 1.18D-05
 ErrMax= 1.18D-05  0.00D+00 EMaxC= 1.00D-01 BMatC= 7.91D-09 BMatP= 5.56D-08
 IDIUse=1 WtCom= 1.00D+00 WtEn= 0.00D+00
 Coeff-Com: -0.451D-02 0.208D-01-0.657D-01 0.128D+00-0.694D+00 0.162D+01
 Coeff:     -0.451D-02 0.208D-01-0.657D-01 0.128D+00-0.694D+00 0.162D+01
 Gap=     0.533 Goal=   None    Shift=    0.000
 RMSDP=1.08D-05 MaxDP=8.74D-05 DE=-2.83D-07 OVMax= 7.52D-05

 Cycle   7  Pass 1  IDiag  3:
 E=-0.517319222564794E-01 Delta-E=       -0.000000051589 Rises=F Damp=F
 DIIS: error= 4.05D-06 at cycle   7 NSaved=   7.
 NSaved= 7 IEnMin= 7 EnMin=-0.517319222564794E-01 IErMin= 7 ErrMin= 4.05D-06
 ErrMax= 4.05D-06  0.00D+00 EMaxC= 1.00D-01 BMatC= 5.77D-10 BMatP= 7.91D-09
 IDIUse=1 WtCom= 1.00D+00 WtEn= 0.00D+00
 Coeff-Com:  0.955D-03-0.430D-02 0.127D-01-0.218D-01 0.236D+00-0.847D+00
 Coeff-Com:  0.162D+01
 Coeff:      0.955D-03-0.430D-02 0.127D-01-0.218D-01 0.236D+00-0.847D+00
 Coeff:      0.162D+01
 Gap=     0.533 Goal=   None    Shift=    0.000
 RMSDP=3.47D-06 MaxDP=2.86D-05 DE=-5.16D-08 OVMax= 2.13D-05

 Cycle   8  Pass 1  IDiag  3:
 E=-0.517319261911524E-01 Delta-E=       -0.000000003935 Rises=F Damp=F
 DIIS: error= 4.76D-07 at cycle   8 NSaved=   8.
 NSaved= 8 IEnMin= 8 EnMin=-0.517319261911524E-01 IErMin= 8 ErrMin= 4.76D-07
 ErrMax= 4.76D-07  0.00D+00 EMaxC= 1.00D-01 BMatC= 1.59D-11 BMatP= 5.77D-10
 IDIUse=1 WtCom= 1.00D+00 WtEn= 0.00D+00
 Coeff-Com:  0.371D-05-0.726D-04 0.626D-03-0.261D-02-0.432D-01 0.224D+00
 Coeff-Com: -0.573D+00 0.139D+01
 Coeff:      0.371D-05-0.726D-04 0.626D-03-0.261D-02-0.432D-01 0.224D+00
 Coeff:     -0.573D+00 0.139D+01
 Gap=     0.533 Goal=   None    Shift=    0.000
 RMSDP=4.44D-07 MaxDP=3.39D-06 DE=-3.93D-09 OVMax= 3.17D-06

 Cycle   9  Pass 1  IDiag  3:
 E=-0.517319262805671E-01 Delta-E=       -0.000000000089 Rises=F Damp=F
 DIIS: error= 2.28D-07 at cycle   9 NSaved=   9.
 NSaved= 9 IEnMin= 9 EnMin=-0.517319262805671E-01 IErMin= 9 ErrMin= 2.28D-07
 ErrMax= 2.28D-07  0.00D+00 EMaxC= 1.00D-01 BMatC= 1.18D-12 BMatP= 1.59D-11
 IDIUse=1 WtCom= 1.00D+00 WtEn= 0.00D+00
 Coeff-Com: -0.189D-04 0.120D-03-0.617D-03 0.209D-02 0.216D-01-0.121D+00
 Coeff-Com:  0.324D+00-0.945D+00 0.172D+01
 Coeff:     -0.189D-04 0.120D-03-0.617D-03 0.209D-02 0.216D-01-0.121D+00
 Coeff:      0.324D+00-0.945D+00 0.172D+01
 Gap=     0.533 Goal=   None    Shift=    0.000
 RMSDP=1.39D-07 MaxDP=1.52D-06 DE=-8.94D-11 OVMax= 9.30D-07

 Cycle  10  Pass 1  IDiag  3:
 E=-0.517319262881415E-01 Delta-E=       -0.000000000008 Rises=F Damp=F
 DIIS: error= 5.15D-08 at cycle  10 NSaved=  10.
 NSaved=10 IEnMin=10 EnMin=-0.517319262881415E-01 IErMin=10 ErrMin= 5.15D-08
 ErrMax= 5.15D-08  0.00D+00 EMaxC= 1.00D-01 BMatC= 5.38D-14 BMatP= 1.18D-12
 IDIUse=1 WtCom= 1.00D+00 WtEn= 0.00D+00
 Coeff-Com:  0.155D-05-0.197D-04 0.155D-03-0.655D-03-0.882D-02 0.475D-01
 Coeff-Com: -0.127D+00 0.378D+00-0.839D+00 0.155D+01
 Coeff:      0.155D-05-0.197D-04 0.155D-03-0.655D-03-0.882D-02 0.475D-01
 Coeff:     -0.127D+00 0.378D+00-0.839D+00 0.155D+01
 Gap=     0.533 Goal=   None    Shift=    0.000
 RMSDP=3.08D-08 MaxDP=3.68D-07 DE=-7.57D-12 OVMax= 1.85D-07

 Cycle  11  Pass 1  IDiag  3:
 E=-0.517319262886815E-01 Delta-E=       -0.000000000001 Rises=F Damp=F
 DIIS: error= 4.70D-09 at cycle  11 NSaved=  11.
 NSaved=11 IEnMin=11 EnMin=-0.517319262886815E-01 IErMin=11 ErrMin= 4.70D-09
 ErrMax= 4.70D-09  0.00D+00 EMaxC= 1.00D-01 BMatC= 1.06D-15 BMatP= 5.38D-14
 IDIUse=1 WtCom= 1.00D+00 WtEn= 0.00D+00
 Coeff-Com: -0.416D-06 0.608D-05-0.500D-04 0.214D-03 0.292D-02-0.157D-01
 Coeff-Com:  0.419D-01-0.126D+00 0.289D+00-0.616D+00 0.142D+01
 Coeff:     -0.416D-06 0.608D-05-0.500D-04 0.214D-03 0.292D-02-0.157D-01
 Coeff:      0.419D-01-0.126D+00 0.289D+00-0.616D+00 0.142D+01
 Gap=     0.533 Goal=   None    Shift=    0.000
 RMSDP=3.60D-09 MaxDP=3.47D-08 DE=-5.40D-13 OVMax= 1.82D-08

 Cycle  12  Pass 2  IDiag  1:
 SCF Done:  E(RPDDG) = -0.517319262887E-01 A.U. after   12 cycles
            NFock= 11  Conv=0.36D-08     -V/T= 0.9975
 KE=-2.062601526951D+01 PE=-2.073528964159D+02 EE= 1.033124261703D+02
 Leave Link  502 at Wed Mar 15 15:24:41 2017, MaxMem=   134217728 cpu:         0.1
 (Enter /n/sw/g09_D.01/g09/l601.exe)
 Copying SCF densities to generalized density rwf, IOpCl= 0 IROHF=0.

 **********************************************************************

            Population analysis using the SCF density.

 **********************************************************************

 Orbital symmetries:
       Occupied  (A) (A) (A) (A) (A) (A) (A) (A) (A) (A) (A) (A)
                 (A) (A) (A) (A)
       Virtual   (A) (A) (A) (A) (A) (A) (A) (A) (A) (A) (A) (A)
                 (A) (A) (A) (A)
 The electronic state is 1-A.
 Alpha  occ. eigenvalues --   -1.46443  -1.21188  -0.98366  -0.84497  -0.75330
 Alpha  occ. eigenvalues --   -0.60187  -0.57579  -0.55801  -0.53400  -0.49411
 Alpha  occ. eigenvalues --   -0.48119  -0.46693  -0.44714  -0.43803  -0.41471
 Alpha  occ. eigenvalues --   -0.40701
 Alpha virt. eigenvalues --    0.12585   0.13483   0.14885   0.15331   0.15536
 Alpha virt. eigenvalues --    0.15702   0.15786   0.16751   0.17108   0.17806
 Alpha virt. eigenvalues --    0.18544   0.18763   0.19479   0.19997   0.20103
 Alpha virt. eigenvalues --    0.20209
          Condensed to atoms (all electrons):
               1          2          3          4          5          6
     1  C    4.270528   0.000000   0.000000   0.000000   0.000000   0.000000
     2  H    0.000000   0.912598   0.000000   0.000000   0.000000   0.000000
     3  H    0.000000   0.000000   0.912666   0.000000   0.000000   0.000000
     4  H    0.000000   0.000000   0.000000   0.912313   0.000000   0.000000
     5  C    0.000000   0.000000   0.000000   0.000000   4.187601   0.000000
     6  H    0.000000   0.000000   0.000000   0.000000   0.000000   0.905840
     7  H    0.000000   0.000000   0.000000   0.000000   0.000000   0.000000
     8  C    0.000000   0.000000   0.000000   0.000000   0.000000   0.000000
     9  H    0.000000   0.000000   0.000000   0.000000   0.000000   0.000000
    10  H    0.000000   0.000000   0.000000   0.000000   0.000000   0.000000
    11  C    0.000000   0.000000   0.000000   0.000000   0.000000   0.000000
    12  H    0.000000   0.000000   0.000000   0.000000   0.000000   0.000000
    13  H    0.000000   0.000000   0.000000   0.000000   0.000000   0.000000
    14  C    0.000000   0.000000   0.000000   0.000000   0.000000   0.000000
    15  H    0.000000   0.000000   0.000000   0.000000   0.000000   0.000000
    16  H    0.000000   0.000000   0.000000   0.000000   0.000000   0.000000
    17  H    0.000000   0.000000   0.000000   0.000000   0.000000   0.000000
               7          8          9         10         11         12
     1  C    0.000000   0.000000   0.000000   0.000000   0.000000   0.000000
     2  H    0.000000   0.000000   0.000000   0.000000   0.000000   0.000000
     3  H    0.000000   0.000000   0.000000   0.000000   0.000000   0.000000
     4  H    0.000000   0.000000   0.000000   0.000000   0.000000   0.000000
     5  C    0.000000   0.000000   0.000000   0.000000   0.000000   0.000000
     6  H    0.000000   0.000000   0.000000   0.000000   0.000000   0.000000
     7  H    0.897819   0.000000   0.000000   0.000000   0.000000   0.000000
     8  C    0.000000   4.192641   0.000000   0.000000   0.000000   0.000000
     9  H    0.000000   0.000000   0.905830   0.000000   0.000000   0.000000
    10  H    0.000000   0.000000   0.000000   0.904279   0.000000   0.000000
    11  C    0.000000   0.000000   0.000000   0.000000   4.174533   0.000000
    12  H    0.000000   0.000000   0.000000   0.000000   0.000000   0.907376
    13  H    0.000000   0.000000   0.000000   0.000000   0.000000   0.000000
    14  C    0.000000   0.000000   0.000000   0.000000   0.000000   0.000000
    15  H    0.000000   0.000000   0.000000   0.000000   0.000000   0.000000
    16  H    0.000000   0.000000   0.000000   0.000000   0.000000   0.000000
    17  H    0.000000   0.000000   0.000000   0.000000   0.000000   0.000000
              13         14         15         16         17
     1  C    0.000000   0.000000   0.000000   0.000000   0.000000
     2  H    0.000000   0.000000   0.000000   0.000000   0.000000
     3  H    0.000000   0.000000   0.000000   0.000000   0.000000
     4  H    0.000000   0.000000   0.000000   0.000000   0.000000
     5  C    0.000000   0.000000   0.000000   0.000000   0.000000
     6  H    0.000000   0.000000   0.000000   0.000000   0.000000
     7  H    0.000000   0.000000   0.000000   0.000000   0.000000
     8  C    0.000000   0.000000   0.000000   0.000000   0.000000
     9  H    0.000000   0.000000   0.000000   0.000000   0.000000
    10  H    0.000000   0.000000   0.000000   0.000000   0.000000
    11  C    0.000000   0.000000   0.000000   0.000000   0.000000
    12  H    0.000000   0.000000   0.000000   0.000000   0.000000
    13  H    0.908126   0.000000   0.000000   0.000000   0.000000
    14  C    0.000000   4.280272   0.000000   0.000000   0.000000
    15  H    0.000000   0.000000   0.910412   0.000000   0.000000
    16  H    0.000000   0.000000   0.000000   0.912723   0.000000
    17  H    0.000000   0.000000   0.000000   0.000000   0.904444
 Mulliken charges:
               1
     1  C   -0.270528
     2  H    0.087402
     3  H    0.087334
     4  H    0.087687
     5  C   -0.187601
     6  H    0.094160
     7  H    0.102181
     8  C   -0.192641
     9  H    0.094170
    10  H    0.095721
    11  C   -0.174533
    12  H    0.092624
    13  H    0.091874
    14  C   -0.280272
    15  H    0.089588
    16  H    0.087277
    17  H    0.095556
 Sum of Mulliken charges =   0.00000
 Mulliken charges with hydrogens summed into heavy atoms:
               1
     1  C   -0.008104
     5  C    0.008740
     8  C   -0.002750
    11  C    0.009965
    14  C   -0.007851
 Charge=              0.0000 electrons
 Dipole moment (field-independent basis, Debye):
    X=              0.0025    Y=             -0.0567    Z=              0.0166  Tot=              0.0592
 N-N= 1.246147535889D+02 E-N=-2.073528964606D+02  KE=-2.062601526951D+01
 Leave Link  601 at Wed Mar 15 15:24:41 2017, MaxMem=   134217728 cpu:         0.0
 (Enter /n/sw/g09_D.01/g09/l701.exe)
 Compute integral first derivatives.
 ... and contract with generalized density number  0.
 Leave Link  701 at Wed Mar 15 15:24:41 2017, MaxMem=   134217728 cpu:         0.1
 (Enter /n/sw/g09_D.01/g09/l702.exe)
 L702 exits ... SP integral derivatives will be done elsewhere.
 Leave Link  702 at Wed Mar 15 15:24:41 2017, MaxMem=   134217728 cpu:         0.0
 (Enter /n/sw/g09_D.01/g09/l703.exe)
 Compute integral first derivatives, UseDBF=F ICtDFT=           0.
 Integral derivatives from FoFJK, PRISM(SPDF).
 Calling FoFJK, ICntrl=      2127 FMM=F ISym2X=0 I1Cent= 0 IOpClX= 0 NMat=1 NMatS=1 NMatT=0.
 FoFJK:  IHMeth=41 ICntrl=    2127 DoSepK=F KAlg= 0 I1Cent=   0 FoldK=F
 IRaf=         0 NMat=   1 IRICut=       1 DoRegI=T DoRafI=F ISym2E= 0.
 FoFCou: FMM=F IPFlag=           0 FMFlag=      100000 FMFlg1=         800
         NFxFlg=           0 DoJE=F BraDBF=F KetDBF=F FulRan=T
         wScrn=  0.000000 ICntrl=    2127 IOpCl=  0 I1Cent=           0 NGrid=           0
         NMat0=    1 NMatS0=      1 NMatT0=    0 NMatD0=    1 NMtDS0=    0 NMtDT0=    0
 Symmetry not used in FoFCou.
 Leave Link  703 at Wed Mar 15 15:24:42 2017, MaxMem=   134217728 cpu:         0.1
 (Enter /n/sw/g09_D.01/g09/l716.exe)
 Dipole        = 1.00204162D-03-2.23141562D-02 6.53128959D-03
 ***** Axes restored to original set *****
 -------------------------------------------------------------------
 Center     Atomic                   Forces (Hartrees/Bohr)
 Number     Number              X              Y              Z
 -------------------------------------------------------------------
      1        6           0.000219946   -0.000199485    0.000101147
      2        1           0.000017981    0.000024316   -0.000043147
      3        1          -0.000081369   -0.000038917    0.000009753
      4        1          -0.000026731    0.000048954    0.000043453
      5        6           0.004643954   -0.004244583    0.004422178
      6        1          -0.000157763   -0.000036348   -0.000221140
      7        1           0.002013646    0.001687646   -0.001223900
      8        6          -0.000620058   -0.001032663    0.000562909
      9        1          -0.000265036    0.000899272   -0.000714684
     10        1           0.000238561    0.000603321   -0.000060592
     11        6          -0.000464995   -0.000769541    0.000617990
     12        1           0.000355661    0.000161411   -0.000465712
     13        1           0.001270473    0.000340666   -0.000055905
     14        6          -0.008234658    0.000419976   -0.001813161
     15        1           0.000087006    0.000003034    0.000125376
     16        1          -0.000052755   -0.000060579   -0.000021599
     17        1           0.001056137    0.002193520   -0.001262966
 -------------------------------------------------------------------
 Cartesian Forces:  Max     0.008234658 RMS     0.001734481
 Leave Link  716 at Wed Mar 15 15:24:42 2017, MaxMem=   134217728 cpu:         0.1
 (Enter /n/sw/g09_D.01/g09/l103.exe)

 GradGradGradGradGradGradGradGradGradGradGradGradGradGradGradGradGradGrad
 Berny optimization.
 FormGI is forming the generalized inverse of G from B-inverse, IUseBI=4.
 Internal  Forces:  Max     0.013809500 RMS     0.002923341
 Search for a local minimum.
 Step number   1 out of a maximum of   92
 All quantities printed in internal units (Hartrees-Bohrs-Radians)
 RMS Force = .29233D-02 SwitMx=.10000D-02 MixMth= 1
 Mixed Optimization -- RFO/linear search
 Second derivative matrix not updated -- first step.
 ITU=  0
     Eigenvalues ---    0.00478   0.00478   0.00565   0.00565   0.03804
     Eigenvalues ---    0.03846   0.03846   0.04929   0.04968   0.04968
     Eigenvalues ---    0.05543   0.05543   0.05552   0.05552   0.08017
     Eigenvalues ---    0.08036   0.08036   0.11951   0.11959   0.11959
     Eigenvalues ---    0.16000   0.16000   0.16000   0.16000   0.16000
     Eigenvalues ---    0.16000   0.21791   0.21803   0.21803   0.30200
     Eigenvalues ---    0.30200   0.30836   0.30836   0.32433   0.32434
     Eigenvalues ---    0.32604   0.32604   0.32604   0.32604   0.34059
     Eigenvalues ---    0.34059   0.34059   0.34059   0.34263   0.34263
 RFO step:  Lambda=-5.38800465D-03 EMin= 4.78380260D-03
 Linear search not attempted -- first point.
 Iteration  1 RMS(Cart)=  0.13802589 RMS(Int)=  0.00521707
 Iteration  2 RMS(Cart)=  0.00754799 RMS(Int)=  0.00039099
 Iteration  3 RMS(Cart)=  0.00003058 RMS(Int)=  0.00039066
 Iteration  4 RMS(Cart)=  0.00000001 RMS(Int)=  0.00039066
 ITry= 1 IFail=0 DXMaxC= 4.37D-01 DCOld= 1.00D+10 DXMaxT= 3.00D-01 DXLimC= 3.00D+00 Rises=F
 Variable       Old X    -DE/DX   Delta X   Delta X   Delta X     New X
                                 (Linear)    (Quad)   (Total)
    R1        2.07230  -0.00005   0.00000  -0.00014  -0.00014   2.07216
    R2        2.06888  -0.00009   0.00000  -0.00026  -0.00026   2.06863
    R3        2.07231  -0.00006   0.00000  -0.00019  -0.00019   2.07212
    R4        2.86326   0.00020   0.00000   0.00064   0.00064   2.86390
    R5        2.09752  -0.00020   0.00000  -0.00060  -0.00060   2.09693
    R6        2.09752   0.00199   0.00000   0.00602   0.00602   2.10354
    R7        2.87567   0.00385   0.00000   0.01251   0.01251   2.88819
    R8        2.10058  -0.00111   0.00000  -0.00338  -0.00338   2.09721
    R9        2.10058  -0.00032   0.00000  -0.00096  -0.00096   2.09961
   R10        2.87567   0.00621   0.00000   0.02021   0.02021   2.89588
   R11        2.09752  -0.00032   0.00000  -0.00097  -0.00097   2.09655
   R12        2.09753  -0.00124   0.00000  -0.00374  -0.00374   2.09379
   R13        2.86326   0.00387   0.00000   0.01235   0.01235   2.87561
   R14        2.07231  -0.00011   0.00000  -0.00031  -0.00031   2.07200
   R15        2.06888   0.00001   0.00000   0.00002   0.00002   2.06891
   R16        2.07230   0.00217   0.00000   0.00626   0.00626   2.07856
    A1        1.87434  -0.00001   0.00000  -0.00003  -0.00003   1.87430
    A2        1.86720   0.00000   0.00000   0.00006   0.00006   1.86726
    A3        1.94943   0.00004   0.00000   0.00027   0.00027   1.94970
    A4        1.87434   0.00003   0.00000   0.00010   0.00010   1.87444
    A5        1.94478  -0.00002   0.00000  -0.00012  -0.00012   1.94466
    A6        1.94943  -0.00004   0.00000  -0.00026  -0.00026   1.94917
    A7        1.92520   0.00045   0.00000  -0.00263  -0.00267   1.92253
    A8        1.92520  -0.00084   0.00000  -0.00657  -0.00658   1.91862
    A9        1.92010  -0.00098   0.00000  -0.00410  -0.00411   1.91600
   A10        1.84283  -0.00035   0.00000  -0.00257  -0.00260   1.84023
   A11        1.92466  -0.00019   0.00000  -0.00372  -0.00375   1.92091
   A12        1.92466   0.00196   0.00000   0.01977   0.01978   1.94443
   A13        1.92631  -0.00563   0.00000  -0.04069  -0.03995   1.88636
   A14        1.92629  -0.00275   0.00000   0.00874   0.00751   1.93380
   A15        1.91935   0.01360   0.00000   0.06615   0.06572   1.98506
   A16        1.83803   0.00242   0.00000  -0.00602  -0.00620   1.83183
   A17        1.92630  -0.00452   0.00000  -0.03187  -0.03107   1.89523
   A18        1.92630  -0.00389   0.00000  -0.00044  -0.00196   1.92434
   A19        1.92466  -0.00404   0.00000  -0.00241  -0.00391   1.92074
   A20        1.92466  -0.00455   0.00000  -0.03144  -0.03068   1.89398
   A21        1.92010   0.01381   0.00000   0.06710   0.06670   1.98681
   A22        1.84283   0.00244   0.00000  -0.00620  -0.00642   1.83641
   A23        1.92519  -0.00274   0.00000   0.00860   0.00745   1.93264
   A24        1.92521  -0.00562   0.00000  -0.03958  -0.03885   1.88636
   A25        1.94943  -0.00049   0.00000  -0.00354  -0.00356   1.94587
   A26        1.94478  -0.00049   0.00000  -0.00415  -0.00416   1.94062
   A27        1.94943   0.00249   0.00000   0.01681   0.01681   1.96624
   A28        1.87434   0.00013   0.00000  -0.00249  -0.00252   1.87182
   A29        1.86720  -0.00080   0.00000  -0.00264  -0.00266   1.86455
   A30        1.87434  -0.00094   0.00000  -0.00465  -0.00464   1.86970
    D1        1.08182   0.00002   0.00000  -0.00008  -0.00008   1.08174
    D2        3.11089  -0.00064   0.00000  -0.00869  -0.00868   3.10221
    D3       -1.04524   0.00062   0.00000   0.00904   0.00903  -1.03620
    D4       -1.01454   0.00002   0.00000  -0.00014  -0.00014  -1.01468
    D5        1.01453  -0.00064   0.00000  -0.00875  -0.00874   1.00579
    D6        3.14158   0.00061   0.00000   0.00898   0.00897  -3.13263
    D7       -3.11091   0.00003   0.00000   0.00000  -0.00001  -3.11092
    D8       -1.08184  -0.00063   0.00000  -0.00862  -0.00861  -1.09045
    D9        1.04522   0.00062   0.00000   0.00911   0.00911   1.05432
   D10        1.01227  -0.00065   0.00000  -0.02049  -0.02030   0.99197
   D11       -1.01225   0.00136   0.00000   0.00584   0.00612  -1.00613
   D12       -3.14158  -0.00099   0.00000  -0.04336  -0.04381   3.09780
   D13       -1.11511  -0.00044   0.00000  -0.01202  -0.01184  -1.12695
   D14       -3.13963   0.00158   0.00000   0.01431   0.01458  -3.12505
   D15        1.01423  -0.00078   0.00000  -0.03490  -0.03535   0.97888
   D16        3.13964  -0.00107   0.00000  -0.01840  -0.01822   3.12142
   D17        1.11513   0.00095   0.00000   0.00792   0.00820   1.12332
   D18       -1.01420  -0.00140   0.00000  -0.04128  -0.04173  -1.05593
   D19       -1.11508   0.00097   0.00000   0.13359   0.13378  -0.98130
   D20        3.13968   0.00311   0.00000   0.16126   0.16134  -2.98217
   D21        1.01229   0.00401   0.00000   0.18718   0.18764   1.19993
   D22        1.01427  -0.00002   0.00000   0.10548   0.10527   1.11954
   D23       -1.01416   0.00211   0.00000   0.13314   0.13284  -0.88132
   D24       -3.14155   0.00301   0.00000   0.15906   0.15913  -2.98242
   D25        3.03879  -0.00206   0.00000   0.07893   0.07878   3.11757
   D26        1.01036   0.00007   0.00000   0.10660   0.10635   1.11670
   D27       -1.11703   0.00098   0.00000   0.13252   0.13264  -0.98439
   D28        1.04523  -0.00066   0.00000  -0.02730  -0.02776   1.01747
   D29        3.14159  -0.00117   0.00000  -0.03575  -0.03620   3.10539
   D30       -1.04522  -0.00101   0.00000  -0.03303  -0.03349  -1.07871
   D31       -3.11091   0.00161   0.00000   0.01978   0.02006  -3.09085
   D32       -1.01454   0.00109   0.00000   0.01133   0.01161  -1.00293
   D33        1.08182   0.00126   0.00000   0.01405   0.01433   1.09615
   D34       -1.08184  -0.00039   0.00000  -0.00623  -0.00606  -1.08790
   D35        1.01453  -0.00091   0.00000  -0.01469  -0.01450   1.00002
   D36        3.11090  -0.00074   0.00000  -0.01196  -0.01179   3.09910
         Item               Value     Threshold  Converged?
 Maximum Force            0.013809     0.000450     NO 
 RMS     Force            0.002923     0.000300     NO 
 Maximum Displacement     0.436637     0.001800     NO 
 RMS     Displacement     0.139330     0.001200     NO 
 Predicted change in Energy=-3.247892D-03
 Lowest energy point so far.  Saving SCF results.
 GradGradGradGradGradGradGradGradGradGradGradGradGradGradGradGradGradGrad

 Leave Link  103 at Wed Mar 15 15:24:42 2017, MaxMem=   134217728 cpu:         0.0
 (Enter /n/sw/g09_D.01/g09/l202.exe)
                          Input orientation:                          
 ---------------------------------------------------------------------
 Center     Atomic      Atomic             Coordinates (Angstroms)
 Number     Number       Type             X           Y           Z
 ---------------------------------------------------------------------
      1          6           0        2.536099   -0.397983    0.061701
      2          1           0        2.489269   -1.095769    0.906275
      3          1           0        3.478626    0.152615    0.144097
      4          1           0        2.588610   -1.003088   -0.851229
      5          6           0        1.346471    0.540753    0.043490
      6          1           0        1.335584    1.161990    0.962870
      7          1           0        1.444323    1.260946   -0.799622
      8          6           0        0.052518   -0.266091   -0.059368
      9          1           0        0.021565   -0.977406    0.791933
     10          1           0        0.057723   -0.905980   -0.967655
     11          6           0       -1.215246    0.594056   -0.023586
     12          1           0       -1.228905    1.213300    0.896861
     13          1           0       -2.093013   -0.076397    0.063876
     14          6           0       -1.404866    1.461568   -1.259326
     15          1           0       -1.444696    0.856332   -2.172733
     16          1           0       -2.339598    2.028964   -1.204871
     17          1           0       -0.591511    2.189530   -1.394850
 ---------------------------------------------------------------------
                    Distance matrix (angstroms):
                    1          2          3          4          5
     1  C    0.000000
     2  H    1.096542   0.000000
     3  H    1.094671   1.765845   0.000000
     4  H    1.096518   1.762748   1.765913   0.000000
     5  C    1.515510   2.174532   2.169530   2.174138   0.000000
     6  H    2.164915   2.536074   2.506364   3.090080   1.109646
     7  H    2.164693   3.091295   2.501478   2.537303   1.113145
     8  C    2.490026   2.749288   3.457590   2.757167   1.528362
     9  H    2.681763   2.473185   3.694308   3.048009   2.149499
    10  H    2.731297   3.075719   3.749559   2.535423   2.185480
    11  C    3.881238   4.176551   4.717566   4.207753   2.563149
    12  H    4.179591   4.376838   4.883909   4.747801   2.795197
    13  H    4.640270   4.769283   5.576921   4.859400   3.494473
    14  C    4.553487   5.137518   5.247042   4.710512   3.180422
    15  H    4.734209   5.363494   5.486531   4.633722   3.577967
    16  H    5.591663   6.126896   6.260362   5.797037   4.166567
    17  H    4.312622   5.057626   4.804519   4.538888   2.922852
                    6          7          8          9         10
     6  H    0.000000
     7  H    1.768614   0.000000
     8  C    2.175004   2.194753   0.000000
     9  H    2.516522   3.093139   1.109793   0.000000
    10  H    3.104248   2.578074   1.111067   1.761408   0.000000
    11  C    2.793273   2.849611   1.532436   2.159691   2.182161
    12  H    2.565851   3.166461   2.178306   2.524654   3.102126
    13  H    3.754607   3.879029   2.157424   2.411084   2.525457
    14  C    3.540899   2.893001   2.559037   3.491556   2.798129
    15  H    4.201832   3.224218   2.822728   3.781767   2.610598
    16  H    4.354045   3.882286   3.507374   4.312839   3.797015
    17  H    3.213779   2.315424   2.868512   3.897097   3.191580
                   11         12         13         14         15
    11  C    0.000000
    12  H    1.109447   0.000000
    13  H    1.107986   1.761780   0.000000
    14  C    1.521705   2.177554   2.142369   0.000000
    15  H    2.177216   3.097806   2.508529   1.096453   0.000000
    16  H    2.172226   2.513210   2.470439   1.094819   1.764277
    17  H    2.194299   2.571233   3.084934   1.099928   1.763645
                   16         17
    16  H    0.000000
    17  H    1.765696   0.000000
 Stoichiometry    C5H12
 Framework group  C1[X(C5H12)]
 Deg. of freedom    45
 Full point group                 C1      NOp   1
 RotChk:  IX=0 Diff= 4.00D-02
 Largest Abelian subgroup         C1      NOp   1
 Largest concise Abelian subgroup C1      NOp   1
                         Standard orientation:                         
 ---------------------------------------------------------------------
 Center     Atomic      Atomic             Coordinates (Angstroms)
 Number     Number       Type             X           Y           Z
 ---------------------------------------------------------------------
      1          6           0        2.404948   -0.166704    0.147845
      2          1           0        2.787656    0.833032   -0.089781
      3          1           0        3.097516   -0.894138   -0.287464
      4          1           0        2.454681   -0.278084    1.237557
      5          6           0        0.995103   -0.365303   -0.371449
      6          1           0        0.979362   -0.278602   -1.477591
      7          1           0        0.651730   -1.400853   -0.150486
      8          6           0        0.063903    0.675581    0.249288
      9          1           0        0.467214    1.682389    0.014086
     10          1           0        0.083263    0.610832    1.358299
     11          6           0       -1.378592    0.595568   -0.261756
     12          1           0       -1.395950    0.685424   -1.367421
     13          1           0       -1.933371    1.479414    0.110627
     14          6           0       -2.122293   -0.653171    0.188963
     15          1           0       -2.156993   -0.727340    1.282354
     16          1           0       -3.156903   -0.648451   -0.169069
     17          1           0       -1.656626   -1.579451   -0.178461
 ---------------------------------------------------------------------
 Rotational constants (GHZ):     11.7412347      2.2985472      2.1376286
 Leave Link  202 at Wed Mar 15 15:24:42 2017, MaxMem=   134217728 cpu:         0.0
 (Enter /n/sw/g09_D.01/g09/l301.exe)
 Standard basis: VSTO-6G (5D, 7F)
 Ernie: Thresh=  0.10000D-02 Tol=  0.10000D-05 Strict=F.
  NNHCO=     0 NNPyr=     0 NCTC=     0               EPep=         0.000000000
    EC=        92.064207509  ECS=         1.803009176   EG=         0.543609120
   EHC=         0.000000000  EAt=       -26.628120368  AtH=         2.358010633
 EPDDG=         0.004463966  ECC=        94.415289771 EAtT=        28.986131002
 There are    32 symmetry adapted cartesian basis functions of A   symmetry.
 There are    32 symmetry adapted basis functions of A   symmetry.
    32 basis functions,   192 primitive gaussians,    32 cartesian basis functions
    16 alpha electrons       16 beta electrons
       nuclear repulsion energy       123.4014207725 Hartrees.
 IExCor=    0 DFT=F Ex=HF Corr=None ExCW=0 ScaHFX=  1.000000
 ScaDFX=  1.000000  1.000000  1.000000  1.000000 ScalE2=  1.000000  1.000000
 IRadAn=      0 IRanWt=     -1 IRanGd=            0 ICorTp=0 IEmpDi=  4
 Integral buffers will be    131072 words long.
 Regular integral format.
 Two-electron integral symmetry is turned off.
 Leave Link  301 at Wed Mar 15 15:24:42 2017, MaxMem=   134217728 cpu:         0.1
 (Enter /n/sw/g09_D.01/g09/l302.exe)
 Do NDO integrals.
 NPDir=0 NMtPBC=     1 NCelOv=     1 NCel=       1 NClECP=     1 NCelD=      1
         NCelK=      1 NCelE2=     1 NClLst=     1 CellRange=     0.0.
 One-electron integrals computed using PRISM.
 NBasis=    32 RedAO= F EigKep=  0.00D+00  NBF=    32
 NBsUse=    32 1.00D-04 EigRej=  0.00D+00 NBFU=    32
 Leave Link  302 at Wed Mar 15 15:24:42 2017, MaxMem=   134217728 cpu:         0.1
 (Enter /n/sw/g09_D.01/g09/l303.exe)
 DipDrv:  MaxL=1.
 Leave Link  303 at Wed Mar 15 15:24:42 2017, MaxMem=   134217728 cpu:         0.0
 (Enter /n/sw/g09_D.01/g09/l401.exe)
 Initial guess from the checkpoint file:  "/scratch/ekwan_pentane_conformation_2/Gau-40849.chk"
 B after Tr=     0.000000    0.000000    0.000000
         Rot=    0.999933   -0.002119    0.006343    0.009450 Ang=  -1.33 deg.
 Guess basis will be translated and rotated to current coordinates.
 JPrj=0 DoOrth=T DoCkMO=T.
 Leave Link  401 at Wed Mar 15 15:24:43 2017, MaxMem=   134217728 cpu:         0.1
 (Enter /n/sw/g09_D.01/g09/l502.exe)
 Closed shell SCF:
 Using DIIS extrapolation, IDIIS=  1040.
 Overlap will be assumed to be unity.
 Two-electron integral symmetry not used.
 Keep J ints in memory in canonical form, NReq=894650.
 IVT=       80931 IEndB=       80931 NGot=   134217728 MDV=   134134845
 LenX=   134134845 LenY=   134133380
 Requested convergence on RMS density matrix=1.00D-08 within 128 cycles.
 Requested convergence on MAX density matrix=1.00D-06.
 Requested convergence on             energy=1.00D-06.
 No special actions if energy rises.
 FoFCou: FMM=F IPFlag=           0 FMFlag=           0 FMFlg1=           0
         NFxFlg=           0 DoJE=F BraDBF=F KetDBF=F FulRan=T
         wScrn=  0.000000 ICntrl=     600 IOpCl=  2 I1Cent=           0 NGrid=           0
         NMat0=    1 NMatS0=     62 NMatT0=    0 NMatD0=    1 NMtDS0=    0 NMtDT0=    0
 Symmetry not used in FoFCou.

 Cycle   1  Pass 1  IDiag  1:
 E=-0.277034381863643E-01
 DIIS: error= 1.47D-02 at cycle   1 NSaved=   1.
 NSaved= 1 IEnMin= 1 EnMin=-0.277034381863643E-01 IErMin= 1 ErrMin= 1.47D-02
 ErrMax= 1.47D-02  0.00D+00 EMaxC= 1.00D-01 BMatC= 5.94D-03 BMatP= 5.94D-03
 IDIUse=3 WtCom= 8.53D-01 WtEn= 1.47D-01
 Coeff-Com:  0.100D+01
 Coeff-En:   0.100D+01
 Coeff:      0.100D+01
 GapD=    2.000 DampG=2.000 DampE=0.500 DampFc=1.0000 IDamp=-1.
 RMSDP=4.51D-03 MaxDP=2.67D-02              OVMax= 0.00D+00

 Cycle   2  Pass 1  IDiag  3:
 E=-0.492283853909470E-01 Delta-E=       -0.021524947205 Rises=F Damp=F
 DIIS: error= 6.17D-03 at cycle   2 NSaved=   2.
 NSaved= 2 IEnMin= 2 EnMin=-0.492283853909470E-01 IErMin= 2 ErrMin= 6.17D-03
 ErrMax= 6.17D-03  0.00D+00 EMaxC= 1.00D-01 BMatC= 9.11D-04 BMatP= 5.94D-03
 IDIUse=3 WtCom= 9.38D-01 WtEn= 6.17D-02
 Coeff-Com: -0.576D+00 0.158D+01
 Coeff-En:   0.000D+00 0.100D+01
 Coeff:     -0.540D+00 0.154D+01
 Gap=     0.532 Goal=   None    Shift=    0.000
 RMSDP=2.89D-03 MaxDP=1.83D-02 DE=-2.15D-02 OVMax= 1.47D-02

 Cycle   3  Pass 1  IDiag  3:
 E=-0.535770032119842E-01 Delta-E=       -0.004348617821 Rises=F Damp=F
 DIIS: error= 7.14D-04 at cycle   3 NSaved=   3.
 NSaved= 3 IEnMin= 3 EnMin=-0.535770032119842E-01 IErMin= 3 ErrMin= 7.14D-04
 ErrMax= 7.14D-04  0.00D+00 EMaxC= 1.00D-01 BMatC= 1.57D-05 BMatP= 9.11D-04
 IDIUse=3 WtCom= 9.93D-01 WtEn= 7.14D-03
 Coeff-Com:  0.156D+00-0.523D+00 0.137D+01
 Coeff-En:   0.000D+00 0.000D+00 0.100D+01
 Coeff:      0.155D+00-0.519D+00 0.136D+01
 Gap=     0.532 Goal=   None    Shift=    0.000
 RMSDP=4.30D-04 MaxDP=2.51D-03 DE=-4.35D-03 OVMax= 2.17D-03

 Cycle   4  Pass 1  IDiag  3:
 E=-0.536584978573558E-01 Delta-E=       -0.000081494645 Rises=F Damp=F
 DIIS: error= 8.76D-05 at cycle   4 NSaved=   4.
 NSaved= 4 IEnMin= 4 EnMin=-0.536584978573558E-01 IErMin= 4 ErrMin= 8.76D-05
 ErrMax= 8.76D-05  0.00D+00 EMaxC= 1.00D-01 BMatC= 2.99D-07 BMatP= 1.57D-05
 IDIUse=1 WtCom= 1.00D+00 WtEn= 0.00D+00
 Coeff-Com: -0.586D-01 0.201D+00-0.595D+00 0.145D+01
 Coeff:     -0.586D-01 0.201D+00-0.595D+00 0.145D+01
 Gap=     0.532 Goal=   None    Shift=    0.000
 RMSDP=5.93D-05 MaxDP=3.46D-04 DE=-8.15D-05 OVMax= 4.00D-04

 Cycle   5  Pass 1  IDiag  3:
 E=-0.536601234354777E-01 Delta-E=       -0.000001625578 Rises=F Damp=F
 DIIS: error= 1.47D-05 at cycle   5 NSaved=   5.
 NSaved= 5 IEnMin= 5 EnMin=-0.536601234354777E-01 IErMin= 5 ErrMin= 1.47D-05
 ErrMax= 1.47D-05  0.00D+00 EMaxC= 1.00D-01 BMatC= 1.11D-08 BMatP= 2.99D-07
 IDIUse=1 WtCom= 1.00D+00 WtEn= 0.00D+00
 Coeff-Com:  0.209D-01-0.723D-01 0.221D+00-0.650D+00 0.148D+01
 Coeff:      0.209D-01-0.723D-01 0.221D+00-0.650D+00 0.148D+01
 Gap=     0.532 Goal=   None    Shift=    0.000
 RMSDP=1.18D-05 MaxDP=6.90D-05 DE=-1.63D-06 OVMax= 7.13D-05

 Cycle   6  Pass 1  IDiag  3:
 E=-0.536601848457110E-01 Delta-E=       -0.000000061410 Rises=F Damp=F
 DIIS: error= 2.64D-06 at cycle   6 NSaved=   6.
 NSaved= 6 IEnMin= 6 EnMin=-0.536601848457110E-01 IErMin= 6 ErrMin= 2.64D-06
 ErrMax= 2.64D-06  0.00D+00 EMaxC= 1.00D-01 BMatC= 3.47D-10 BMatP= 1.11D-08
 IDIUse=1 WtCom= 1.00D+00 WtEn= 0.00D+00
 Coeff-Com: -0.460D-02 0.159D-01-0.495D-01 0.157D+00-0.473D+00 0.135D+01
 Coeff:     -0.460D-02 0.159D-01-0.495D-01 0.157D+00-0.473D+00 0.135D+01
 Gap=     0.532 Goal=   None    Shift=    0.000
 RMSDP=1.94D-06 MaxDP=1.43D-05 DE=-6.14D-08 OVMax= 9.71D-06

 Cycle   7  Pass 1  IDiag  3:
 E=-0.536601867333388E-01 Delta-E=       -0.000000001888 Rises=F Damp=F
 DIIS: error= 6.86D-07 at cycle   7 NSaved=   7.
 NSaved= 7 IEnMin= 7 EnMin=-0.536601867333388E-01 IErMin= 7 ErrMin= 6.86D-07
 ErrMax= 6.86D-07  0.00D+00 EMaxC= 1.00D-01 BMatC= 2.62D-11 BMatP= 3.47D-10
 IDIUse=1 WtCom= 1.00D+00 WtEn= 0.00D+00
 Coeff-Com:  0.101D-02-0.349D-02 0.110D-01-0.374D-01 0.133D+00-0.571D+00
 Coeff-Com:  0.147D+01
 Coeff:      0.101D-02-0.349D-02 0.110D-01-0.374D-01 0.133D+00-0.571D+00
 Coeff:      0.147D+01
 Gap=     0.532 Goal=   None    Shift=    0.000
 RMSDP=5.58D-07 MaxDP=4.04D-06 DE=-1.89D-09 OVMax= 2.81D-06

 Cycle   8  Pass 1  IDiag  3:
 E=-0.536601868933246E-01 Delta-E=       -0.000000000160 Rises=F Damp=F
 DIIS: error= 2.23D-07 at cycle   8 NSaved=   8.
 NSaved= 8 IEnMin= 8 EnMin=-0.536601868933246E-01 IErMin= 8 ErrMin= 2.23D-07
 ErrMax= 2.23D-07  0.00D+00 EMaxC= 1.00D-01 BMatC= 2.64D-12 BMatP= 2.62D-11
 IDIUse=1 WtCom= 1.00D+00 WtEn= 0.00D+00
 Coeff-Com: -0.108D-03 0.370D-03-0.126D-02 0.540D-02-0.279D-01 0.185D+00
 Coeff-Com: -0.809D+00 0.165D+01
 Coeff:     -0.108D-03 0.370D-03-0.126D-02 0.540D-02-0.279D-01 0.185D+00
 Coeff:     -0.809D+00 0.165D+01
 Gap=     0.532 Goal=   None    Shift=    0.000
 RMSDP=2.24D-07 MaxDP=1.79D-06 DE=-1.60D-10 OVMax= 1.05D-06

 Cycle   9  Pass 1  IDiag  3:
 E=-0.536601869109461E-01 Delta-E=       -0.000000000018 Rises=F Damp=F
 DIIS: error= 3.30D-08 at cycle   9 NSaved=   9.
 NSaved= 9 IEnMin= 9 EnMin=-0.536601869109461E-01 IErMin= 9 ErrMin= 3.30D-08
 ErrMax= 3.30D-08  0.00D+00 EMaxC= 1.00D-01 BMatC= 7.03D-14 BMatP= 2.64D-12
 IDIUse=1 WtCom= 1.00D+00 WtEn= 0.00D+00
 Coeff-Com:  0.137D-04-0.449D-04 0.179D-03-0.107D-02 0.731D-02-0.579D-01
 Coeff-Com:  0.288D+00-0.703D+00 0.147D+01
 Coeff:      0.137D-04-0.449D-04 0.179D-03-0.107D-02 0.731D-02-0.579D-01
 Coeff:      0.288D+00-0.703D+00 0.147D+01
 Gap=     0.532 Goal=   None    Shift=    0.000
 RMSDP=3.27D-08 MaxDP=2.47D-07 DE=-1.76D-11 OVMax= 2.24D-07

 Cycle  10  Pass 1  IDiag  3:
 E=-0.536601869112161E-01 Delta-E=        0.000000000000 Rises=F Damp=F
 DIIS: error= 7.47D-09 at cycle  10 NSaved=  10.
 NSaved=10 IEnMin=10 EnMin=-0.536601869112161E-01 IErMin=10 ErrMin= 7.47D-09
 ErrMax= 7.47D-09  0.00D+00 EMaxC= 1.00D-01 BMatC= 2.30D-15 BMatP= 7.03D-14
 IDIUse=1 WtCom= 1.00D+00 WtEn= 0.00D+00
 Coeff-Com: -0.250D-05 0.776D-05-0.381D-04 0.298D-03-0.230D-02 0.194D-01
 Coeff-Com: -0.998D-01 0.254D+00-0.640D+00 0.147D+01
 Coeff:     -0.250D-05 0.776D-05-0.381D-04 0.298D-03-0.230D-02 0.194D-01
 Coeff:     -0.998D-01 0.254D+00-0.640D+00 0.147D+01
 Gap=     0.532 Goal=   None    Shift=    0.000
 RMSDP=5.50D-09 MaxDP=4.41D-08 DE=-2.70D-13 OVMax= 2.81D-08

 Cycle  11  Pass 2  IDiag  1:
 SCF Done:  E(RPDDG) = -0.536601869112E-01 A.U. after   11 cycles
            NFock= 10  Conv=0.55D-08     -V/T= 0.9974
 KE=-2.059098444488D+01 PE=-2.049908717482D+02 EE= 1.021267752337D+02
 Leave Link  502 at Wed Mar 15 15:24:43 2017, MaxMem=   134217728 cpu:         0.1
 (Enter /n/sw/g09_D.01/g09/l701.exe)
 Compute integral first derivatives.
 ... and contract with generalized density number  0.
 Leave Link  701 at Wed Mar 15 15:24:43 2017, MaxMem=   134217728 cpu:         0.1
 (Enter /n/sw/g09_D.01/g09/l702.exe)
 L702 exits ... SP integral derivatives will be done elsewhere.
 Leave Link  702 at Wed Mar 15 15:24:43 2017, MaxMem=   134217728 cpu:         0.0
 (Enter /n/sw/g09_D.01/g09/l703.exe)
 Compute integral first derivatives, UseDBF=F ICtDFT=           0.
 Integral derivatives from FoFJK, PRISM(SPDF).
 Calling FoFJK, ICntrl=      2127 FMM=F ISym2X=0 I1Cent= 0 IOpClX= 0 NMat=1 NMatS=1 NMatT=0.
 FoFJK:  IHMeth=41 ICntrl=    2127 DoSepK=F KAlg= 0 I1Cent=   0 FoldK=F
 IRaf=         0 NMat=   1 IRICut=       1 DoRegI=T DoRafI=F ISym2E= 0.
 FoFCou: FMM=F IPFlag=           0 FMFlag=      100000 FMFlg1=         800
         NFxFlg=           0 DoJE=F BraDBF=F KetDBF=F FulRan=T
         wScrn=  0.000000 ICntrl=    2127 IOpCl=  0 I1Cent=           0 NGrid=           0
         NMat0=    1 NMatS0=      1 NMatT0=    0 NMatD0=    1 NMtDS0=    0 NMtDT0=    0
 Symmetry not used in FoFCou.
 Leave Link  703 at Wed Mar 15 15:24:43 2017, MaxMem=   134217728 cpu:         0.1
 (Enter /n/sw/g09_D.01/g09/l716.exe)
 Dipole        = 2.29496636D-03 9.27088679D-03 8.11560636D-03
 ***** Axes restored to original set *****
 -------------------------------------------------------------------
 Center     Atomic                   Forces (Hartrees/Bohr)
 Number     Number              X              Y              Z
 -------------------------------------------------------------------
      1        6          -0.000176808   -0.000292313   -0.000304161
      2        1           0.000059478   -0.000072112    0.000064878
      3        1          -0.000042607    0.000058468   -0.000007819
      4        1           0.000003880    0.000000901    0.000014213
      5        6          -0.006596883    0.002038996   -0.001917083
      6        1          -0.000660360    0.000105572   -0.000403281
      7        1          -0.001672875   -0.001520521    0.001219525
      8        6          -0.002771418    0.004348235   -0.001262873
      9        1          -0.001102430   -0.000942764    0.000371771
     10        1           0.000528248    0.001924580   -0.000956977
     11        6           0.005413646   -0.000703961   -0.001293622
     12        1           0.001475416    0.001165070   -0.001053707
     13        1          -0.000177139   -0.000767472    0.000786597
     14        6           0.006090618   -0.003282668    0.002896396
     15        1           0.000486288   -0.000094814    0.000341793
     16        1           0.000059358   -0.000059224    0.000459043
     17        1          -0.000916412   -0.001905974    0.001045306
 -------------------------------------------------------------------
 Cartesian Forces:  Max     0.006596883 RMS     0.001949746
 Leave Link  716 at Wed Mar 15 15:24:43 2017, MaxMem=   134217728 cpu:         0.1
 (Enter /n/sw/g09_D.01/g09/l103.exe)

 GradGradGradGradGradGradGradGradGradGradGradGradGradGradGradGradGradGrad
 Berny optimization.
 Using GEDIIS/GDIIS optimizer.
 FormGI is forming the generalized inverse of G from B-inverse, IUseBI=4.
 Internal  Forces:  Max     0.013381124 RMS     0.002814184
 Search for a local minimum.
 Step number   2 out of a maximum of   92
 All quantities printed in internal units (Hartrees-Bohrs-Radians)
 RMS Force = .28142D-02 SwitMx=.10000D-02 MixMth= 1
 Mixed Optimization -- RFO/linear search
 Update second derivatives using D2CorX and points    1    2
 DE= -1.93D-03 DEPred=-3.25D-03 R= 5.94D-01
 TightC=F SS=  1.41D+00  RLast= 4.41D-01 DXNew= 5.0454D-01 1.3242D+00
 Trust test= 5.94D-01 RLast= 4.41D-01 DXMaxT set to 5.05D-01
 ITU=  1  0
 Use linear search instead of GDIIS.
     Eigenvalues ---    0.00478   0.00518   0.00565   0.00566   0.03463
     Eigenvalues ---    0.03728   0.03880   0.04891   0.04966   0.05147
     Eigenvalues ---    0.05449   0.05543   0.05553   0.05600   0.08056
     Eigenvalues ---    0.08630   0.08655   0.11932   0.12425   0.12458
     Eigenvalues ---    0.15980   0.16000   0.16000   0.16000   0.16000
     Eigenvalues ---    0.16033   0.21786   0.21868   0.24443   0.30199
     Eigenvalues ---    0.30710   0.30836   0.32418   0.32431   0.32554
     Eigenvalues ---    0.32598   0.32604   0.32604   0.33986   0.34058
     Eigenvalues ---    0.34059   0.34059   0.34263   0.34263   0.43045
 RFO step:  Lambda=-2.00103116D-03 EMin= 4.78088447D-03
 Quartic linear search produced a step of -0.25276.
 Iteration  1 RMS(Cart)=  0.06354426 RMS(Int)=  0.00177836
 Iteration  2 RMS(Cart)=  0.00275176 RMS(Int)=  0.00004051
 Iteration  3 RMS(Cart)=  0.00000424 RMS(Int)=  0.00004047
 Iteration  4 RMS(Cart)=  0.00000000 RMS(Int)=  0.00004047
 ITry= 1 IFail=0 DXMaxC= 1.79D-01 DCOld= 1.00D+10 DXMaxT= 5.05D-01 DXLimC= 3.00D+00 Rises=F
 Variable       Old X    -DE/DX   Delta X   Delta X   Delta X     New X
                                 (Linear)    (Quad)   (Total)
    R1        2.07216   0.00009   0.00004   0.00015   0.00018   2.07235
    R2        2.06863  -0.00001   0.00006  -0.00009  -0.00003   2.06860
    R3        2.07212  -0.00001   0.00005  -0.00008  -0.00004   2.07208
    R4        2.86390   0.00006  -0.00016   0.00034   0.00018   2.86408
    R5        2.09693  -0.00027   0.00015  -0.00076  -0.00061   2.09632
    R6        2.10354  -0.00205  -0.00152  -0.00255  -0.00407   2.09947
    R7        2.88819  -0.00761  -0.00316  -0.01374  -0.01690   2.87129
    R8        2.09721   0.00092   0.00085   0.00094   0.00180   2.09900
    R9        2.09961  -0.00032   0.00024  -0.00099  -0.00075   2.09886
   R10        2.89588  -0.01338  -0.00511  -0.02469  -0.02980   2.86608
   R11        2.09655  -0.00024   0.00025  -0.00082  -0.00057   2.09598
   R12        2.09379   0.00067   0.00094   0.00028   0.00122   2.09501
   R13        2.87561  -0.00761  -0.00312  -0.01342  -0.01654   2.85906
   R14        2.07200  -0.00025   0.00008  -0.00061  -0.00053   2.07147
   R15        2.06891  -0.00006  -0.00001  -0.00011  -0.00012   2.06879
   R16        2.07856  -0.00207  -0.00158  -0.00232  -0.00390   2.07466
    A1        1.87430   0.00000   0.00001  -0.00004  -0.00003   1.87427
    A2        1.86726  -0.00004  -0.00001   0.00005   0.00004   1.86730
    A3        1.94970   0.00011  -0.00007   0.00065   0.00058   1.95028
    A4        1.87444   0.00004  -0.00003   0.00004   0.00001   1.87445
    A5        1.94466  -0.00013   0.00003  -0.00070  -0.00067   1.94400
    A6        1.94917   0.00002   0.00007   0.00000   0.00007   1.94924
    A7        1.92253   0.00033   0.00067   0.00462   0.00530   1.92783
    A8        1.91862   0.00067   0.00166   0.00209   0.00375   1.92237
    A9        1.91600   0.00042   0.00104   0.00017   0.00121   1.91721
   A10        1.84023   0.00011   0.00066  -0.00076  -0.00013   1.84011
   A11        1.92091  -0.00025   0.00095  -0.00239  -0.00145   1.91946
   A12        1.94443  -0.00129  -0.00500  -0.00365  -0.00866   1.93578
   A13        1.88636   0.00432   0.01010   0.00697   0.01693   1.90329
   A14        1.93380   0.00244  -0.00190   0.00202   0.00018   1.93398
   A15        1.98506  -0.01076  -0.01661  -0.01760  -0.03420   1.95086
   A16        1.83183  -0.00121   0.00157   0.00794   0.00946   1.84129
   A17        1.89523   0.00274   0.00785   0.00016   0.00796   1.90319
   A18        1.92434   0.00330   0.00049   0.00268   0.00329   1.92763
   A19        1.92074   0.00309   0.00099   0.00235   0.00350   1.92424
   A20        1.89398   0.00271   0.00775   0.00026   0.00793   1.90191
   A21        1.98681  -0.01013  -0.01686  -0.01501  -0.03185   1.95496
   A22        1.83641  -0.00110   0.00162   0.00741   0.00901   1.84542
   A23        1.93264   0.00229  -0.00188   0.00218   0.00038   1.93302
   A24        1.88636   0.00388   0.00982   0.00462   0.01429   1.90066
   A25        1.94587  -0.00008   0.00090  -0.00126  -0.00037   1.94551
   A26        1.94062  -0.00014   0.00105  -0.00108  -0.00003   1.94059
   A27        1.96624  -0.00155  -0.00425  -0.00240  -0.00665   1.95958
   A28        1.87182   0.00051   0.00064   0.00352   0.00417   1.87598
   A29        1.86455   0.00058   0.00067   0.00001   0.00068   1.86522
   A30        1.86970   0.00082   0.00117   0.00163   0.00280   1.87250
    D1        1.08174  -0.00020   0.00002  -0.00168  -0.00166   1.08008
    D2        3.10221   0.00051   0.00219   0.00129   0.00349   3.10570
    D3       -1.03620  -0.00038  -0.00228  -0.00179  -0.00408  -1.04028
    D4       -1.01468  -0.00019   0.00003  -0.00160  -0.00156  -1.01624
    D5        1.00579   0.00052   0.00221   0.00138   0.00359   1.00938
    D6       -3.13263  -0.00037  -0.00227  -0.00171  -0.00398  -3.13660
    D7       -3.11092  -0.00016   0.00000  -0.00117  -0.00117  -3.11208
    D8       -1.09045   0.00055   0.00218   0.00181   0.00398  -1.08646
    D9        1.05432  -0.00034  -0.00230  -0.00128  -0.00358   1.05074
   D10        0.99197   0.00101   0.00513  -0.00524  -0.00009   0.99187
   D11       -1.00613  -0.00129  -0.00155  -0.01974  -0.02133  -1.02746
   D12        3.09780   0.00063   0.01107  -0.01140  -0.00030   3.09750
   D13       -1.12695   0.00048   0.00299  -0.00955  -0.00654  -1.13349
   D14       -3.12505  -0.00181  -0.00368  -0.02406  -0.02777   3.13036
   D15        0.97888   0.00010   0.00894  -0.01571  -0.00675   0.97213
   D16        3.12142   0.00128   0.00461  -0.00492  -0.00031   3.12112
   D17        1.12332  -0.00101  -0.00207  -0.01942  -0.02154   1.10178
   D18       -1.05593   0.00090   0.01055  -0.01108  -0.00051  -1.05645
   D19       -0.98130   0.00054  -0.03381   0.15907   0.12522  -0.85608
   D20       -2.98217  -0.00131  -0.04078   0.14883   0.10805  -2.87412
   D21        1.19993  -0.00160  -0.04743   0.15250   0.10501   1.30493
   D22        1.11954   0.00099  -0.02661   0.15663   0.13006   1.24960
   D23       -0.88132  -0.00086  -0.03358   0.14640   0.11288  -0.76844
   D24       -2.98242  -0.00115  -0.04022   0.15007   0.10984  -2.87257
   D25        3.11757   0.00285  -0.01991   0.16764   0.14773  -3.01788
   D26        1.11670   0.00100  -0.02688   0.15740   0.13056   1.24726
   D27       -0.98439   0.00071  -0.03353   0.16107   0.12752  -0.85687
   D28        1.01747   0.00019   0.00702  -0.01101  -0.00395   1.01353
   D29        3.10539   0.00069   0.00915  -0.00812   0.00107   3.10646
   D30       -1.07871   0.00058   0.00846  -0.00846   0.00005  -1.07866
   D31       -3.09085  -0.00160  -0.00507  -0.01762  -0.02273  -3.11358
   D32       -1.00293  -0.00110  -0.00294  -0.01473  -0.01771  -1.02065
   D33        1.09615  -0.00121  -0.00362  -0.01506  -0.01873   1.07742
   D34       -1.08790   0.00051   0.00153  -0.00497  -0.00344  -1.09133
   D35        1.00002   0.00101   0.00367  -0.00209   0.00158   1.00160
   D36        3.09910   0.00090   0.00298  -0.00242   0.00056   3.09967
         Item               Value     Threshold  Converged?
 Maximum Force            0.013381     0.000450     NO 
 RMS     Force            0.002814     0.000300     NO 
 Maximum Displacement     0.178881     0.001800     NO 
 RMS     Displacement     0.063230     0.001200     NO 
 Predicted change in Energy=-9.239464D-04
 Lowest energy point so far.  Saving SCF results.
 GradGradGradGradGradGradGradGradGradGradGradGradGradGradGradGradGradGrad

 Leave Link  103 at Wed Mar 15 15:24:43 2017, MaxMem=   134217728 cpu:         0.0
 (Enter /n/sw/g09_D.01/g09/l202.exe)
                          Input orientation:                          
 ---------------------------------------------------------------------
 Center     Atomic      Atomic             Coordinates (Angstroms)
 Number     Number       Type             X           Y           Z
 ---------------------------------------------------------------------
      1          6           0        2.520718   -0.384266    0.058013
      2          1           0        2.476345   -1.121794    0.868385
      3          1           0        3.456464    0.172026    0.172851
      4          1           0        2.585792   -0.944812   -0.882127
      5          6           0        1.321359    0.542170    0.075731
      6          1           0        1.292189    1.120578    1.021877
      7          1           0        1.411483    1.300196   -0.731471
      8          6           0        0.043508   -0.265220   -0.078713
      9          1           0       -0.004755   -1.025696    0.729432
     10          1           0        0.053137   -0.841376   -1.028207
     11          6           0       -1.190018    0.614139   -0.005100
     12          1           0       -1.134245    1.280435    0.879852
     13          1           0       -2.080231   -0.026527    0.156563
     14          6           0       -1.388860    1.419120   -1.270600
     15          1           0       -1.473962    0.769988   -2.149792
     16          1           0       -2.301325    2.021638   -1.217009
     17          1           0       -0.554646    2.106742   -1.461822
 ---------------------------------------------------------------------
                    Distance matrix (angstroms):
                    1          2          3          4          5
     1  C    0.000000
     2  H    1.096640   0.000000
     3  H    1.094655   1.765891   0.000000
     4  H    1.096499   1.762836   1.765893   0.000000
     5  C    1.515605   2.175102   2.169127   2.174258   0.000000
     6  H    2.168611   2.540476   2.510912   3.092649   1.109324
     7  H    2.165895   3.091845   2.504499   2.538063   1.110991
     8  C    2.483835   2.747619   3.450035   2.751460   1.519419
     9  H    2.690771   2.486845   3.704640   3.051983   2.155019
    10  H    2.734553   3.089924   3.748621   2.538972   2.177445
    11  C    3.843222   4.149537   4.670859   4.178068   2.513708
    12  H    4.099440   4.336727   4.775252   4.679206   2.687311
    13  H    4.615888   4.740114   5.540278   4.867637   3.449748
    14  C    4.505798   5.096206   5.207299   4.640792   3.150704
    15  H    4.707885   5.319131   5.482822   4.585752   3.580318
    16  H    5.537703   6.087377   6.205232   5.726769   4.121145
    17  H    4.239443   5.004020   4.743868   4.417055   2.886407
                    6          7          8          9         10
     6  H    0.000000
     7  H    1.766557   0.000000
     8  C    2.165857   2.178985   0.000000
     9  H    2.524694   3.090265   1.110743   0.000000
    10  H    3.096346   2.553328   1.110670   1.768225   0.000000
    11  C    2.733590   2.786772   1.516667   2.152544   2.170417
    12  H    2.435838   3.012886   2.166794   2.572278   3.090736
    13  H    3.665765   3.839383   2.150022   2.373629   2.572726
    14  C    3.540142   2.854247   2.511827   3.448622   2.692202
    15  H    4.223031   3.258611   2.768346   3.697699   2.487263
    16  H    4.328725   3.813288   3.467517   4.283585   3.711601
    17  H    3.248396   2.247129   2.810157   3.862142   3.041187
                   11         12         13         14         15
    11  C    0.000000
    12  H    1.109144   0.000000
    13  H    1.108633   1.768102   0.000000
    14  C    1.512951   2.169909   2.145852   0.000000
    15  H    2.169013   3.091069   2.514214   1.096172   0.000000
    16  H    2.164435   2.511629   2.475996   1.094756   1.766704
    17  H    2.180275   2.549933   3.081788   1.097863   1.762202
                   16         17
    16  H    0.000000
    17  H    1.765804   0.000000
 Stoichiometry    C5H12
 Framework group  C1[X(C5H12)]
 Deg. of freedom    45
 Full point group                 C1      NOp   1
 RotChk:  IX=0 Diff= 4.16D-02
 Largest Abelian subgroup         C1      NOp   1
 Largest concise Abelian subgroup C1      NOp   1
                         Standard orientation:                         
[...]
 ! D36   D(13,11,14,17)        173.4192         -DE/DX =    0.0                 !
 --------------------------------------------------------------------------------
 GradGradGradGradGradGradGradGradGradGradGradGradGradGradGradGradGradGrad

 Leave Link  103 at Wed Mar 15 15:24:53 2017, MaxMem=   134217728 cpu:         0.0
 (Enter /n/sw/g09_D.01/g09/l9999.exe)
 1\1\GINC-MVOGELS25\Freq\RPDDG\ZDO\C5H12\ROOT\15-Mar-2017\0\\#P Geom=Al
 lCheck Guess=TCheck SCRF=Check GenChk RPDDG/ZDO Freq\\pentane conforma
 tion 2\\0,1\C,2.5211290346,-0.3867814937,0.0613867795\H,2.4745830581,-
 1.1215150709,0.874152319\H,3.4558960989,0.1709125587,0.1774826641\H,2.
 5901413007,-0.9504663691,-0.876551763\C,1.3202921246,0.5381872094,0.07
 16656018\H,1.2943263783,1.1259544909,1.0127353726\H,1.4107930791,1.286
 4435829,-0.7429597759\C,0.0399105427,-0.2714665246,-0.0820884892\H,-0.
 0051785212,-1.0512604966,0.7078382989\H,0.0538970204,-0.8287358671,-1.
 0440261267\C,-1.1920459306,0.6186245856,0.0047692834\H,-1.120043083,1.
 3021066839,0.8767805708\H,-2.0890879456,-0.005920147,0.1913333079\C,-1
 .3898511414,1.4176705705,-1.2684350525\H,-1.428006749,0.7696129056,-2.
 1523929845\H,-2.3247719006,1.9868336331,-1.2390151323\H,-0.5790303661,
 2.1371411483,-1.434810444\\Version=EM64L-G09RevD.01\State=1-A\HF=-0.05
 48807\RMSD=7.102e-10\RMSF=1.929e-05\ZeroPoint=0.1544909\Thermal=0.1613
 518\Dipole=0.0031188,-0.0011266,-0.0098639\DipoleDeriv=-0.2277762,-0.0
 118296,-0.0062559,-0.042952,-0.1480162,-0.0017322,-0.0096758,-0.000241
 8,-0.1747727,0.0581919,0.0136923,-0.0025534,0.0064121,0.045447,0.01839
 86,0.0154254,0.007481,0.0527897,0.0314767,-0.006994,-0.0034926,0.02227
 8,0.0516656,-0.0001937,-0.0001067,-0.0021775,0.0713276,0.0603169,0.013
 8024,0.007136,0.0104361,0.050375,-0.0167414,-0.0123098,-0.0055648,0.04
 61706,0.0142965,-0.0104567,0.0082679,0.0133054,-0.0794919,0.008115,0.0
 05557,0.0083947,-0.0783314,0.028983,0.0022551,-0.0001664,0.0009922,0.0
 390831,-0.0179911,0.0039053,-0.0030383,0.0384675,0.0396985,-0.0082033,
 0.0100359,-0.0014882,0.0383704,0.0134626,-0.0013021,-0.0038693,0.04713
 42,-0.0216552,0.0137675,-0.0076412,0.0371407,-0.1099021,0.0231977,-0.0
 225333,0.0105866,-0.1092442,0.0237928,0.0021796,-0.0032229,0.0005194,0
 .0357465,0.0209473,-0.0027937,0.0024342,0.044765,0.0328137,0.0010395,-
 0.0021607,-0.0076807,0.0470597,-0.0224178,0.0051802,-0.0047312,0.04252
 74,-0.079444,-0.051367,0.0282077,-0.0801383,0.000171,-0.0592987,0.0404
 212,-0.0450307,-0.0310273,0.0506566,0.0108702,0.0003387,0.0091864,0.03
 43326,0.0054498,-0.0163563,-0.0028997,0.0286793,0.0196618,0.0008475,-0
 .0108666,0.0171098,0.0312179,0.010483,0.0027194,0.0190845,0.0407887,-0
 .2236543,0.0336605,-0.0210332,0.0222069,-0.1979505,0.002475,-0.0090131
 ,-0.0041434,-0.1553652,0.0760725,-0.0050681,0.0007076,0.0025442,0.0502
 767,0.0063214,0.0014696,-0.0146042,0.0371939,0.0517379,0.0087096,0.006
 6818,0.0195041,0.0550565,0.0069239,-0.013747,0.0215737,0.0488051,0.064
 8321,-0.0069055,-0.003983,-0.029377,0.0565605,0.0026027,0.0131611,0.01
 67463,0.0500948\Polar=36.9780581,-0.9570435,35.0042996,0.4443407,-0.23
 9281,34.2167115\HyperPolar=-4.0077078,13.7344231,-0.2249083,-1.7939577
 ,2.3428329,1.8464733,4.9954313,2.2932739,-13.2338604,-5.0765435\PG=C01
  [X(C5H12)]\NImag=0\\0.55619217,0.00417066,0.52700353,0.00224627,0.000
 88418,0.52151208,-0.04112319,-0.01031525,0.01200050,0.04422436,-0.0093
 3322,-0.15120058,0.12496162,0.00659039,0.16472112,0.01077267,0.1264215
 5,-0.18242189,-0.01090168,-0.14233019,0.19764131,-0.22357528,-0.113286
 72,-0.02319411,-0.00257745,-0.00509591,0.00169152,0.24741450,-0.116216
 14,-0.11157082,-0.01467053,-0.01438572,-0.01021239,0.00147322,0.125669
 56,0.11858050,-0.02348045,-0.01448556,-0.04268465,0.01461992,0.0119572
 9,0.00263863,0.02623510,0.01633625,0.03954125,-0.04078591,0.00585999,0
 .00950028,0.00262057,0.00121219,0.00275906,-0.00017168,-0.01084145,-0.
 01728340,0.04287795,0.00643326,-0.10473029,-0.10983786,0.00016853,0.00
 815497,0.01243800,-0.00292403,-0.00701155,-0.01418426,-0.01103681,0.11
 224499,0.01094670,-0.11139436,-0.22957341,0.00062790,-0.00644981,-0.02
 159238,-0.00267127,-0.00483547,-0.00300880,-0.01345478,0.12516166,0.25
 045820,-0.19668576,0.09708763,0.00130726,0.00244349,0.00377547,-0.0027
 5331,-0.01820081,0.01344117,-0.00012936,-0.00008674,0.00482674,0.00321
 355,0.53910316,0.09819793,-0.15584668,-0.00121091,0.01576419,-0.010526
 64,0.00186563,-0.00674018,0.01178377,0.00036305,0.01280185,-0.00761102
 ,-0.00245713,-0.01081238,0.54264549,0.00147601,-0.00134567,-0.07751306
 ,-0.01552684,0.01163441,0.00400816,-0.00209411,0.00171469,0.00344312,0
 .01796361,-0.01355678,0.00374967,-0.00212073,0.00197601,0.51947440,-0.
 00074352,0.01164588,0.01618557,0.00037043,-0.00012511,-0.00003035,-0.0
 0062095,0.00011517,0.00040176,-0.00209017,0.00162624,-0.00055874,-0.03
 995142,0.00224430,0.00447536,0.04850707,0.00476297,-0.00695989,-0.0134
 6430,-0.00017964,-0.00015285,-0.00006229,0.00023732,0.00006170,-0.0001
 5016,0.00156040,-0.00077094,0.00018385,0.00271338,-0.10086031,-0.09967
 430,-0.00226572,0.10824995,0.00232315,-0.00223865,0.00350233,0.0000111
 8,-0.00003941,0.00015034,0.00042972,-0.00013332,-0.00012242,-0.0005197
 9,0.00024231,0.00015741,0.00508187,-0.10310981,-0.21244095,-0.00300827
 ,0.11522284,0.22867901,0.00147843,0.01409006,-0.01409246,-0.00223173,0
 .00153975,0.00055574,-0.00056299,0.00020184,-0.00044037,0.00032919,-0.
 00004762,0.00004267,-0.04109387,-0.01375508,0.01499178,0.00286534,-0.0
 0059676,0.00120897,0.05317219,0.00350054,-0.00948233,0.01171762,0.0014
 9672,-0.00070308,-0.00015875,0.00031960,-0.00002772,0.00022965,-0.0001
 0127,-0.00031078,-0.00003575,-0.01250899,-0.14037935,0.11220969,0.0004
 8409,0.00673489,-0.00595702,0.01308160,0.15411856,-0.00190392,0.001652
 67,0.00397088,0.00048571,-0.00021424,0.00022625,-0.00045057,0.00019217
 ,-0.00017609,-0.00002010,-0.00004784,0.00016312,0.01429876,0.11556009,
 -0.17095042,0.00190596,0.01094146,-0.02059998,-0.01472534,-0.12869995,
 0.18197002,-0.04351409,-0.00544100,-0.00341302,-0.00314792,0.00108257,
 -0.00153206,-0.00149187,0.00161406,0.00005417,-0.00336885,0.00082093,0
 .00129205,-0.19553719,-0.08608084,-0.01576677,0.00009697,-0.00424593,-
 0.00317260,-0.00209138,-0.00640465,0.00177193,0.54480176,0.01186420,0.
 01290476,0.00178067,0.00141262,0.00033930,0.00026097,0.00191451,-0.001
 83016,-0.00007591,0.00095316,0.00037310,-0.00004943,-0.08622007,-0.136
 81838,-0.01079020,-0.01229172,-0.00580715,-0.00393543,-0.01577879,-0.0
 0837323,0.00017873,-0.01298156,0.54072791,-0.00175284,0.00053016,0.003
 09356,-0.00179748,0.00034922,-0.00023631,0.00006636,-0.00009632,0.0003
 3342,0.00151848,-0.00017005,0.00004831,-0.01577328,-0.01066925,-0.0792
 2221,-0.01808318,-0.01264634,0.00096503,0.01499678,0.00999291,0.005848
 71,0.00636611,-0.00642607,0.52592421,-0.00490375,-0.00131688,0.0017068
 8,-0.00059564,0.00048644,-0.00056252,0.00008204,-0.00000858,0.00000363
 ,-0.00008519,-0.00002784,0.00006540,-0.00125177,-0.01585401,0.01425422
 ,0.00041314,0.00019126,0.00003005,-0.00234126,-0.00119527,-0.00080255,
 -0.03963373,-0.00724978,0.00735283,0.05107769,-0.00129154,0.00045747,0
 .00020035,-0.00051277,-0.00032291,0.00012765,0.00008022,-0.00007848,0.
 00000512,-0.00000735,-0.00003287,0.00000646,-0.00569133,-0.00872362,0.
 00989270,0.00020356,-0.00003776,0.00000795,-0.00127400,-0.00051769,-0.
 00032045,-0.00628583,-0.14893638,0.11296322,0.00745273,0.16185433,0.00
 140409,0.00005331,0.00009534,0.00052672,0.00015675,-0.00032644,-0.0000
 1280,-0.00001380,-0.00001171,0.00007855,0.00000238,-0.00005189,0.00157
 034,0.00001847,0.00590768,0.00003805,-0.00004032,0.00015833,-0.0007756
 6,-0.00022033,0.00007606,0.00692128,0.11617782,-0.16248118,-0.00820455
 ,-0.12923892,0.17214849,-0.00346339,-0.00060675,-0.00193217,-0.0000730
 8,-0.00002456,-0.00007379,0.00007059,0.00000113,0.00001105,0.00067781,
 0.00026808,0.00059586,-0.00016375,-0.01164711,-0.01817807,-0.00241191,
 -0.00129843,0.00022818,0.00039833,0.00000542,0.00004894,-0.04034946,0.
 00127315,0.00274502,0.00285093,0.00026580,0.00104560,0.04657874,-0.000
 61169,0.00038035,-0.00012534,0.00002543,-0.00003363,0.00000678,0.00005
 541,-0.00006124,-0.00000674,-0.00033402,-0.00023719,-0.00015750,-0.004
 43694,-0.00531893,-0.01307502,-0.00136196,-0.00060770,-0.00004654,0.00
 003481,-0.00030574,-0.00007443,0.00139235,-0.09364497,-0.09514665,-0.0
 0035352,0.00645464,0.01194616,-0.00405322,0.10558146,-0.00168915,0.000
 05737,-0.00037675,-0.00007657,0.00000039,-0.00007412,0.00004040,-0.000
 01079,-0.00000863,-0.00048925,-0.00006903,-0.00033006,-0.00317832,-0.0
 0386438,0.00101634,0.00028180,-0.00001247,0.00022147,-0.00002637,-0.00
 003612,0.00019573,0.00263447,-0.09776305,-0.21633029,0.00062671,-0.004
 95838,-0.02043606,-0.00031571,0.10928540,0.23378845,-0.00250273,-0.001
 62120,-0.00020889,0.00005224,-0.00010666,0.00002384,-0.00031051,0.0003
 6641,0.00001024,0.00001818,-0.00009110,-0.00005035,-0.04004039,0.01056
 702,0.00027810,-0.00379673,-0.00074795,-0.00169243,-0.00274557,-0.0007
 0116,0.00089376,-0.19248573,0.08722980,0.01228975,0.00063040,0.0037511
 9,-0.00170008,-0.00051867,0.00505396,0.00313574,0.54473787,-0.00178173
 ,-0.00132140,-0.00025837,-0.00000673,-0.00008732,-0.00000916,-0.000288
 47,0.00041199,0.00001050,-0.00000270,-0.00007692,-0.00000141,-0.005797
 28,0.01296713,0.00075286,-0.00105417,0.00058974,0.00004613,-0.00058293
 ,0.00013893,0.00014439,0.08610442,-0.14125802,-0.00922349,0.01446015,-
 0.00922686,0.00065302,0.01145973,-0.00646594,-0.00350454,0.00446049,0.
 52293066,-0.00028056,-0.00015740,0.00029086,0.00001300,-0.00001251,-0.
 00002029,-0.00003531,0.00003746,0.00006477,-0.00003555,0.00000076,-0.0
 0000553,-0.00191576,0.00135209,0.00282637,-0.00215228,-0.00011003,-0.0
 0025089,0.00105284,0.00025055,-0.00006736,0.01224381,-0.01007595,-0.07
 789459,-0.01352697,0.01117422,0.00489422,0.01749622,-0.01414710,0.0021
 3393,-0.00454353,-0.00176872,0.53455615,0.00005274,-0.00004020,-0.0000
 4037,0.00002834,0.00001359,0.00001465,-0.00000307,-0.00002311,-0.00000
 043,0.00003128,-0.00000895,-0.00001324,-0.00473708,0.00158574,0.002277
 64,-0.00267890,-0.00029017,-0.00089613,-0.00005543,-0.00000517,0.00007
 580,0.00248655,0.01573819,0.01531435,0.00005106,-0.00026026,0.00005318
 ,-0.00212291,0.00144558,-0.00030920,-0.04213530,-0.01247527,-0.0152867
 9,0.04814501,-0.00013087,-0.00007262,0.00001356,0.00000834,-0.00000899
 ,-0.00000774,-0.00001789,0.00002744,0.00000332,-0.00001694,-0.00000387
 ,-0.00000120,0.00153450,0.00045659,-0.00032325,0.00072539,-0.00028694,
 -0.00007577,0.00002239,-0.00003229,0.00000243,0.00353860,-0.00865008,-
 0.01126118,-0.00031830,0.00038019,0.00003083,0.00132025,-0.00061458,0.
 00021340,-0.01166904,-0.13078865,-0.11337683,0.00864555,0.14005962,-0.
 00009654,0.00001761,-0.00002028,-0.00000907,0.00000736,0.00001546,-0.0
 0001046,0.00001738,0.00000377,-0.00001207,0.00000063,-0.00001748,0.001
 85799,-0.00026006,0.00002012,0.00054447,-0.00020416,-0.00037525,0.0000
 5757,0.00001278,-0.00005531,0.00290757,-0.00385317,0.00151995,-0.00005
 213,0.00002128,-0.00001809,-0.00035663,-0.00005815,0.00006480,-0.01391
 936,-0.11130145,-0.17961951,0.01406368,0.12469265,0.19726227,-0.000347
 60,-0.00026149,-0.00003737,-0.00000171,-0.00001642,0.00000797,-0.00005
 250,0.00007152,-0.00000038,-0.00000071,-0.00001432,-0.00001125,-0.0014
 3714,0.00187553,0.00032088,0.00008453,0.00007308,0.00003763,0.00008134
 ,0.00005180,-0.00003226,-0.01760270,-0.00738606,0.00254672,-0.00404330
 ,0.00216267,-0.00136124,0.00037090,-0.00018918,-0.00020418,-0.19178567
 ,-0.10784450,0.02974215,-0.00279503,-0.00572997,-0.00139507,0.21193014
 ,0.00037261,0.00035523,0.00006382,-0.00002089,0.00002480,-0.00001296,0
 .00006404,-0.00007498,0.00000018,-0.00002411,0.00002052,0.00001372,0.0
 0143445,-0.00162125,-0.00026888,-0.00001486,-0.00008122,0.00000084,0.0
 0002609,-0.00004794,0.00000196,0.01164431,0.01067396,-0.00121464,0.001
 88720,-0.00063602,0.00065745,-0.00014359,0.00001992,0.00017506,-0.1094
 2272,-0.11696268,0.02016376,-0.01386925,-0.01029047,-0.00186392,0.1163
 4853,0.12622547,-0.00001043,0.00000875,0.00002520,0.00000115,-0.000001
 43,0.00000541,-0.00000025,0.00000231,-0.00000361,0.00000261,0.00000700
 ,-0.00000214,-0.00016145,-0.00018717,0.00025678,-0.00000362,-0.0000156
 9,-0.00000011,-0.00003582,-0.00000366,-0.00002819,0.00259092,0.0012996
 9,0.00357851,-0.00121907,0.00056787,-0.00007745,-0.00016963,0.00007417
 ,0.00001961,0.02757975,0.01831298,-0.04546581,-0.01271813,-0.01157298,
 0.00182739,-0.03028250,-0.02570221,0.04536102,-0.00010048,0.00012582,-
 0.00015301,-0.00001024,0.00001414,0.00004048,0.00001147,-0.00000386,0.
 00001534,0.00004715,-0.00002161,-0.00002263,-0.00185938,0.00091643,-0.
 00127158,-0.00006437,0.00009537,-0.00006484,-0.00174527,0.00052080,-0.
 00043540,-0.00734931,0.02030866,-0.02337160,-0.00223118,0.00146602,0.0
 0037873,-0.00099226,0.00233211,-0.00035851,-0.08000473,0.01086040,-0.0
 1863106,0.00354954,0.00186153,-0.00332911,0.00554433,-0.00888609,0.015
 27227,0.53641664,0.00008969,0.00007057,0.00001370,-0.00003479,-0.00000
 597,-0.00002263,0.00000957,-0.00000645,-0.00000966,-0.00004381,0.00000
 539,0.00001627,0.00033416,0.00006130,0.00058574,0.00007026,-0.00005820
 ,0.00001852,-0.00025617,0.00026623,-0.00030529,0.01376725,-0.01740250,
 0.01899980,0.00170753,-0.00063519,-0.00012106,0.00279179,-0.00404905,0
 .00076933,0.01058705,-0.12984841,0.08675023,-0.00082912,0.01090029,-0.
 00888410,0.00037862,-0.00591016,0.01503914,-0.01372927,0.53539200,0.00
 001713,0.00004328,0.00007886,0.00000283,-0.00000975,-0.00000987,0.0000
 0955,-0.00000506,-0.00001035,-0.00001805,0.00001276,-0.00000437,-0.001
 10253,0.00044658,-0.00023211,-0.00000371,0.00000915,-0.00001002,-0.000
 35102,-0.00008353,-0.00007117,-0.01068630,0.00968295,-0.00051112,0.000
 60799,-0.00052589,-0.00000062,-0.00039222,0.00056124,0.00089107,-0.017
 81650,0.08630407,-0.22015294,-0.00247613,0.01000469,-0.01842064,0.0014
 1346,0.00576790,-0.00305225,0.00279855,-0.00640157,0.52700797,0.000020
 11,-0.00000931,0.00002753,0.00000028,-0.00000339,-0.00000613,-0.000000
 96,-0.00000324,-0.00000515,-0.00001683,0.00001174,-0.00000229,-0.00015
 110,0.00006000,-0.00005244,0.00000874,-0.00000079,0.00001610,-0.000029
 78,-0.00003576,0.00000564,-0.00106517,0.00068544,-0.00224647,-0.000018
 29,-0.00001282,0.00004889,-0.00084677,0.00102114,-0.00008594,0.0034268
 8,-0.00177266,-0.00343451,0.00031790,0.00032397,-0.00035005,-0.0000051
 9,-0.00002348,0.00021084,-0.04029101,-0.00516906,-0.00689399,0.0384915
 6,-0.00000381,-0.00001147,-0.00000945,0.00000284,0.00000305,0.00000398
 ,-0.00000110,-0.00000059,0.00000027,0.00001086,0.00000172,0.00000083,0
 .00001549,-0.00000061,-0.00001114,-0.00001094,-0.00001771,-0.00000841,
 -0.00002259,0.00000719,-0.00002387,0.00090183,-0.00002053,0.00164230,-
 0.00005927,0.00004900,0.00000942,0.00043390,-0.00099249,-0.00031387,0.
 00033756,0.01248858,0.01075281,0.00034832,-0.00139809,0.00165417,-0.00
 000732,0.00021496,-0.00017621,-0.00518988,-0.13394615,-0.12345249,0.00
 447164,0.14440831,0.00004353,0.00002266,0.00002331,-0.00000283,-0.0000
 0428,-0.00000679,0.00000494,-0.00000782,-0.00000175,-0.00001141,0.0000
 0426,0.00000692,-0.00004443,-0.00001573,-0.00003783,0.00003021,0.00000
 201,-0.00000191,-0.00002720,-0.00002081,-0.00000696,-0.00209719,0.0011
 7352,-0.00185434,0.00012424,-0.00009948,-0.00000069,-0.00090225,0.0010
 4549,-0.00073416,-0.00156026,-0.00919079,-0.02008155,-0.00022089,0.001
 68035,-0.00165358,0.00013895,-0.00016508,0.00023232,-0.00667924,-0.121
 29522,-0.20038972,0.01083230,0.13380434,0.22482940,0.00001478,0.000013
 63,-0.00001065,-0.00000484,0.00000271,-0.00000091,0.00000305,-0.000003
 03,0.00000125,0.00000230,-0.00000413,0.00000224,-0.00001201,0.00002877
 ,-0.00003835,-0.00001254,0.00000682,-0.00000873,0.00003253,-0.00001088
 ,0.00002596,0.00021608,0.00003038,0.00002171,0.00003976,-0.00001101,-0
 .00002935,0.00001919,-0.00004944,-0.00000367,0.00032040,0.00356661,-0.
 00296078,-0.00018463,0.00004320,-0.00030392,0.00013006,0.00023097,-0.0
 0014760,-0.22940783,0.11400956,0.00884664,0.00038667,0.00316052,0.0022
 1809,0.24985299,0.00002297,0.00001013,-0.00001364,-0.00000579,0.000002
 67,-0.00000255,0.00000410,-0.00000272,0.00000045,-0.00000173,-0.000002
 30,0.00000306,-0.00009880,0.00006869,-0.00003830,-0.00000119,0.0000011
 8,-0.00000399,0.00002347,-0.00004001,0.00002141,0.00010715,-0.00060474
 ,0.00163223,0.00022769,-0.00011511,-0.00002214,-0.00007261,0.00006444,
 0.00002381,0.01174843,-0.00547559,0.00275457,0.00004624,0.00007550,-0.
 00000698,0.00014438,-0.00159964,0.00103236,0.11272713,-0.10714898,-0.0
 0535611,0.01501111,-0.00855291,-0.00470033,-0.12788961,0.11503120,-0.0
 0003645,-0.00003025,0.00000975,0.00001256,-0.00000363,0.00000715,-0.00
 000568,0.00000335,0.00000114,0.00000911,0.00000239,-0.00000639,0.00012
 941,-0.00000281,0.00002189,-0.00001356,0.00002756,0.00000111,-0.000016
 07,0.00000018,0.00000214,0.00015988,0.00150454,-0.00269294,-0.00045609
 ,0.00025111,0.00013533,0.00013415,-0.00007388,-0.00004963,-0.01883421,
 0.01252778,0.00210068,-0.00018852,-0.00001389,-0.00022270,-0.00002332,
 0.00095994,-0.00034923,0.01113510,-0.00676838,-0.04050487,0.01577700,-
 0.01092275,-0.00190087,-0.01032208,0.00305490,0.04121113,-0.00001248,-
 0.00009474,0.00010757,0.00002615,-0.00001205,-0.00000521,-0.00001360,0
 .00000430,-0.00001289,0.00000164,0.00002088,-0.00000179,-0.00033838,0.
 00084771,-0.00098861,0.00002432,-0.00001523,-0.00000402,-0.00546006,0.
 00150261,-0.00114230,0.00003594,0.00049784,-0.00019327,-0.00004091,-0.
 00003527,0.00001828,-0.00002427,0.00002919,0.00001774,0.00714014,0.000
 69463,0.00225495,0.00004997,-0.00014072,0.00040310,-0.00006977,0.00039
 682,-0.00090901,-0.18151300,-0.12368323,0.02604431,-0.00022709,-0.0043
 8806,-0.00184657,-0.02139600,-0.01199297,0.00253882,0.20181733,-0.0000
 4570,0.00001450,-0.00004523,-0.00000747,0.00000829,0.00000844,-0.00000
 004,0.00001174,0.00000624,0.00001171,-0.00001303,-0.00000378,0.0004026
 5,-0.00027655,0.00031740,0.00001080,0.00000323,0.00000975,0.00329391,-
 0.00104555,0.00099082,0.00046636,-0.00167288,0.00074411,-0.00002953,0.
 00006725,-0.00004889,0.00002702,-0.00016935,0.00000789,-0.00974204,-0.
 00801545,0.00641189,-0.00002174,0.00024698,0.00000813,0.00034314,-0.00
 031050,0.00131513,-0.12339773,-0.14768459,0.02300182,-0.01455452,-0.01
 223220,-0.00223317,0.00687487,0.00828817,-0.00051603,0.13636830,0.1627
 7997,0.00002062,-0.00003978,-0.00001164,0.00001295,-0.00000175,-0.0000
 0457,-0.00000296,-0.00000370,0.00000183,0.00001277,-0.00000631,0.00000
 880,-0.00027993,0.00019524,-0.00032838,-0.00000944,-0.00000677,-0.0000
 3358,-0.00241608,0.00080262,-0.00049739,-0.00027426,0.00091036,-0.0000
 8882,0.00005194,-0.00007476,-0.00001111,0.00001545,-0.00000801,0.00000
 835,0.01611431,0.01650590,-0.00330867,0.00035052,-0.00000835,-0.000310
 97,-0.00086016,0.00142310,-0.00232743,0.02467648,0.02161533,-0.0446077
 7,-0.01384132,-0.01294983,0.00157804,0.00271014,0.00162123,0.00223640,
 -0.02628102,-0.02997452,0.04769699\\0.00001023,-0.00000150,0.00000948,
 -0.00000179,-0.00000112,0.00000171,0.00000080,-0.00000112,-0.00000214,
 0.00000476,-0.00000245,-0.00000171,0.00003519,-0.00001843,0.00003457,0
 .00000649,-0.00000347,-0.00000648,-0.00002198,0.00002166,-0.00002064,-
 0.00004231,0.00005951,-0.00000315,-0.00000790,-0.00001077,-0.00001210,
 -0.00000162,-0.00001698,0.00000465,0.00004719,-0.00002001,-0.00003844,
 -0.00001409,-0.00000197,0.00000949,0.00000162,0.00000979,0.00001462,-0
 .00004634,-0.00000696,0.00000018,-0.00000409,0.00000733,0.00000464,0.0
 0000030,-0.00001597,-0.00000460,0.00003352,0.00000247,0.00000992\\\@


 THE SECRET OF SUCCESS IN LIFE IS TO EAT WHAT YOU LIKE, AND LET THE FOOD
 FIGHT IT OUT INSIDE YOU. -- FROM A FORTUNE COOKIE
 Job cpu time:       0 days  0 hours  0 minutes  1.8 seconds.
 File lengths (MBytes):  RWF=     10 Int=      0 D2E=      0 Chk=      2 Scr=      1
 Normal termination of Gaussian 09 at Wed Mar 15 15:24:53 2017.
