 Entering Gaussian System, Link 0=g16
 Input=cheshire-000-b3lyp_d3bj-tz-pcm_chcl3.gjf
 Output=cheshire-000-b3lyp_d3bj-tz-pcm_chcl3.out
 Initial command:
 /n/sw/g16_nehalem/g16/l1.exe "/scratch/Gau-48694.inp" -scrdir="/scratch/"
 Entering Link 1 = /n/sw/g16_nehalem/g16/l1.exe PID=     48695.
  
 Copyright (c) 1988,1990,1992,1993,1995,1998,2003,2009,2016,
            Gaussian, Inc.  All Rights Reserved.
  
 This is part of the Gaussian(R) 16 program.  It is based on
 the Gaussian(R) 09 system (copyright 2009, Gaussian, Inc.),
 the Gaussian(R) 03 system (copyright 2003, Gaussian, Inc.),
 the Gaussian(R) 98 system (copyright 1998, Gaussian, Inc.),
 the Gaussian(R) 94 system (copyright 1995, Gaussian, Inc.),
 the Gaussian 92(TM) system (copyright 1992, Gaussian, Inc.),
 the Gaussian 90(TM) system (copyright 1990, Gaussian, Inc.),
 the Gaussian 88(TM) system (copyright 1988, Gaussian, Inc.),
 the Gaussian 86(TM) system (copyright 1986, Carnegie Mellon
 University), and the Gaussian 82(TM) system (copyright 1983,
 Carnegie Mellon University). Gaussian is a federally registered
 trademark of Gaussian, Inc.
  
 This software contains proprietary and confidential information,
 including trade secrets, belonging to Gaussian, Inc.
  
 This software is provided under written license and may be
 used, copied, transmitted, or stored only in accord with that
 written license.
  
 The following legend is applicable only to US Government
 contracts under FAR:
  
                    RESTRICTED RIGHTS LEGEND
  
 Use, reproduction and disclosure by the US Government is
 subject to restrictions as set forth in subparagraphs (a)
 and (c) of the Commercial Computer Software - Restricted
 Rights clause in FAR 52.227-19.
  
 Gaussian, Inc.
 340 Quinnipiac St., Bldg. 40, Wallingford CT 06492
  
  
 ---------------------------------------------------------------
 Warning -- This program may not be used in any manner that
 competes with the business of Gaussian, Inc. or will provide
 assistance to any competitor of Gaussian, Inc.  The licensee
 of this program is prohibited from giving any competitor of
 Gaussian, Inc. access to this program.  By using this program,
 the user acknowledges that Gaussian, Inc. is engaged in the
 business of creating and licensing software in the field of
 computational chemistry and represents and warrants to the
 licensee that it is not a competitor of Gaussian, Inc. and that
 it will not use this program in any manner prohibited above.
 ---------------------------------------------------------------
  

 Cite this work as:
 Gaussian 16, Revision A.03,
 M. J. Frisch, G. W. Trucks, H. B. Schlegel, G. E. Scuseria, 
 M. A. Robb, J. R. Cheeseman, G. Scalmani, V. Barone, 
 G. A. Petersson, H. Nakatsuji, X. Li, M. Caricato, A. V. Marenich, 
 J. Bloino, B. G. Janesko, R. Gomperts, B. Mennucci, H. P. Hratchian, 
 J. V. Ortiz, A. F. Izmaylov, J. L. Sonnenberg, D. Williams-Young, 
 F. Ding, F. Lipparini, F. Egidi, J. Goings, B. Peng, A. Petrone, 
 T. Henderson, D. Ranasinghe, V. G. Zakrzewski, J. Gao, N. Rega, 
 G. Zheng, W. Liang, M. Hada, M. Ehara, K. Toyota, R. Fukuda, 
 J. Hasegawa, M. Ishida, T. Nakajima, Y. Honda, O. Kitao, H. Nakai, 
 T. Vreven, K. Throssell, J. A. Montgomery, Jr., J. E. Peralta, 
 F. Ogliaro, M. J. Bearpark, J. J. Heyd, E. N. Brothers, K. N. Kudin, 
 V. N. Staroverov, T. A. Keith, R. Kobayashi, J. Normand, 
 K. Raghavachari, A. P. Rendell, J. C. Burant, S. S. Iyengar, 
 J. Tomasi, M. Cossi, J. M. Millam, M. Klene, C. Adamo, R. Cammi, 
 J. W. Ochterski, R. L. Martin, K. Morokuma, O. Farkas, 
 J. B. Foresman, and D. J. Fox, Gaussian, Inc., Wallingford CT, 2016.
 
 ******************************************
 Gaussian 16:  ES64L-G16RevA.03 25-Dec-2016
                 1-May-2020 
 ******************************************
 %chk=checkpoint.chk
 %mem=3GB
 %nprocshared=4
 Will use up to    4 processors via shared memory.
 ----------------------------------------------------------------------
 #p b3lyp empiricaldispersion=gd3bj cc-pvtz scrf=(pcm,solvent=chlorofor
 m) opt freq=noraman
 ----------------------------------------------------------------------
 1/18=20,19=15,26=3,38=1/1,3;
 2/9=110,12=2,17=6,18=5,40=1/2;
 3/5=16,6=1,11=2,25=1,30=1,70=2201,71=1,72=7,74=-5,124=41/1,2,3;
 4//1;
 5/5=2,38=5,53=7/2;
 6/7=2,8=2,9=2,10=2,28=1/1;
 7//1,2,3,16;
 1/18=20,19=15,26=3/3(2);
 2/9=110/2;
 99//99;
 2/9=110/2;
 3/5=16,6=1,11=2,25=1,30=1,70=2205,71=1,72=7,74=-5,124=41/1,2,3;
 4/5=5,16=3,69=1/1;
 5/5=2,38=5,53=7/2;
 7//1,2,3,16;
 1/18=20,19=15,26=3/3(-5);
 2/9=110/2;
 6/7=2,8=2,9=2,10=2,19=2,28=1/1;
 99/9=1/99;
 Leave Link    1 at Fri May  1 00:36:10 2020, MaxMem=   402653184 cpu:               0.3 elap:               0.1
 (Enter /n/sw/g16_nehalem/g16/l101.exe)
 ---------------------
 H4,H5:5.280@C1:53.700
 ---------------------
 Symbolic Z-matrix:
 Charge =  0 Multiplicity = 1
 6                     0.        0.        0.76788 
 17                    0.        1.49619  -0.21668 
 17                    0.       -1.49619  -0.21668 
 1                    -0.89901   0.        1.37999 
 1                     0.89901   0.        1.37999 
 
 ITRead=  0  0  0  0  0
 MicOpt= -1 -1 -1 -1 -1
 NAtoms=      5 NQM=        5 NQMF=       0 NMMI=      0 NMMIF=      0
                NMic=       0 NMicF=      0.
                    Isotopes and Nuclear Properties:
 (Nuclear quadrupole moments (NQMom) in fm**2, nuclear magnetic moments (NMagM)
  in nuclear magnetons)

  Atom         1           2           3           4           5
 IAtWgt=          12          35          35           1           1
 AtmWgt=  12.0000000  34.9688527  34.9688527   1.0078250   1.0078250
 NucSpn=           0           3           3           1           1
 AtZEff=   0.0000000   0.0000000   0.0000000   0.0000000   0.0000000
 NQMom=    0.0000000  -8.1650000  -8.1650000   0.0000000   0.0000000
 NMagM=    0.0000000   0.8218740   0.8218740   2.7928460   2.7928460
 AtZNuc=   6.0000000  17.0000000  17.0000000   1.0000000   1.0000000
 Leave Link  101 at Fri May  1 00:36:10 2020, MaxMem=   402653184 cpu:               0.6 elap:               0.2
 (Enter /n/sw/g16_nehalem/g16/l103.exe)

 GradGradGradGradGradGradGradGradGradGradGradGradGradGradGradGradGradGrad
 Berny optimization.
 Initialization pass.
                           ----------------------------
                           !    Initial Parameters    !
                           ! (Angstroms and Degrees)  !
 --------------------------                            --------------------------
 ! Name  Definition              Value          Derivative Info.                !
 --------------------------------------------------------------------------------
 ! R1    R(1,2)                  1.7911         estimate D2E/DX2                !
 ! R2    R(1,3)                  1.7911         estimate D2E/DX2                !
 ! R3    R(1,4)                  1.0876         estimate D2E/DX2                !
 ! R4    R(1,5)                  1.0876         estimate D2E/DX2                !
 ! A1    A(2,1,3)              113.3067         estimate D2E/DX2                !
 ! A2    A(2,1,4)              108.0216         estimate D2E/DX2                !
 ! A3    A(2,1,5)              108.0216         estimate D2E/DX2                !
 ! A4    A(3,1,4)              108.0216         estimate D2E/DX2                !
 ! A5    A(3,1,5)              108.0216         estimate D2E/DX2                !
 ! A6    A(4,1,5)              111.5001         estimate D2E/DX2                !
 ! D1    D(2,1,4,3)            122.9136         estimate D2E/DX2                !
 ! D2    D(2,1,5,3)           -122.9136         estimate D2E/DX2                !
 ! D3    D(2,1,5,4)            118.5432         estimate D2E/DX2                !
 ! D4    D(3,1,5,4)           -118.5432         estimate D2E/DX2                !
 --------------------------------------------------------------------------------
 Trust Radius=3.00D-01 FncErr=1.00D-07 GrdErr=1.00D-06 EigMax=2.50D+02 EigMin=1.00D-04
 Number of steps in this run=     24 maximum allowed number of steps=    100.
 GradGradGradGradGradGradGradGradGradGradGradGradGradGradGradGradGradGrad

 Leave Link  103 at Fri May  1 00:36:11 2020, MaxMem=   402653184 cpu:               0.1 elap:               0.1
 (Enter /n/sw/g16_nehalem/g16/l202.exe)
                          Input orientation:                          
 ---------------------------------------------------------------------
 Center     Atomic      Atomic             Coordinates (Angstroms)
 Number     Number       Type             X           Y           Z
 ---------------------------------------------------------------------
      1          6           0        0.000000    0.000000    0.767876
      2         17           0        0.000000    1.496192   -0.216683
      3         17           0        0.000000   -1.496192   -0.216683
      4          1           0       -0.899009    0.000000    1.379988
      5          1           0        0.899009    0.000000    1.379988
 ---------------------------------------------------------------------
                    Distance matrix (angstroms):
                    1          2          3          4          5
     1  C    0.000000
     2  Cl   1.791074   0.000000
     3  Cl   1.791074   2.992384   0.000000
     4  H    1.087611   2.365622   2.365622   0.000000
     5  H    1.087611   2.365622   2.365622   1.798018   0.000000
 Stoichiometry    CH2Cl2
 Framework group  C2V[C2(C),SGV(Cl2),SGV'(H2)]
 Deg. of freedom     4
 Full point group                 C2V     NOp   4
 Largest Abelian subgroup         C2V     NOp   4
 Largest concise Abelian subgroup C2V     NOp   4
                         Standard orientation:                         
 ---------------------------------------------------------------------
 Center     Atomic      Atomic             Coordinates (Angstroms)
 Number     Number       Type             X           Y           Z
 ---------------------------------------------------------------------
      1          6           0        0.000000    0.000000    0.767876
      2         17           0        0.000000    1.496192   -0.216683
      3         17           0        0.000000   -1.496192   -0.216683
      4          1           0       -0.899009    0.000000    1.379988
      5          1           0        0.899009    0.000000    1.379988
 ---------------------------------------------------------------------
 Rotational constants (GHZ):          32.1731555           3.1947400           2.9616523
 Leave Link  202 at Fri May  1 00:36:11 2020, MaxMem=   402653184 cpu:               0.2 elap:               0.1
 (Enter /n/sw/g16_nehalem/g16/l301.exe)
 Standard basis: CC-pVTZ (5D, 7F)
 Ernie: Thresh=  0.10000D-02 Tol=  0.10000D-05 Strict=F.
 Ernie:  29 primitive shells out of 162 were deleted.
 There are    54 symmetry adapted cartesian basis functions of A1  symmetry.
 There are    19 symmetry adapted cartesian basis functions of A2  symmetry.
 There are    31 symmetry adapted cartesian basis functions of B1  symmetry.
 There are    39 symmetry adapted cartesian basis functions of B2  symmetry.
 There are    46 symmetry adapted basis functions of A1  symmetry.
 There are    18 symmetry adapted basis functions of A2  symmetry.
 There are    28 symmetry adapted basis functions of B1  symmetry.
 There are    34 symmetry adapted basis functions of B2  symmetry.
   126 basis functions,   274 primitive gaussians,   143 cartesian basis functions
    21 alpha electrons       21 beta electrons
       nuclear repulsion energy       132.7235970534 Hartrees.
 IExCor=  402 DFT=T Ex+Corr=B3LYP ExCW=0 ScaHFX=  0.200000
 ScaDFX=  0.800000  0.720000  1.000000  0.810000 ScalE2=  1.000000  1.000000
 IRadAn=      5 IRanWt=     -1 IRanGd=            0 ICorTp=0 IEmpDi=141
 NAtoms=    5 NActive=    5 NUniq=    3 SFac= 2.78D+00 NAtFMM=   60 NAOKFM=F Big=F
 Integral buffers will be    131072 words long.
 Raffenetti 2 integral format.
 Two-electron integral symmetry is turned on.
 R6Disp:  Grimme-D3(BJ) Dispersion energy=       -0.0065590378 Hartrees.
 Nuclear repulsion after empirical dispersion term =      132.7170380156 Hartrees.
 ------------------------------------------------------------------------------
 Polarizable Continuum Model (PCM)
 =================================
 Model                : PCM.
 Atomic radii         : UFF (Universal Force Field).
 Polarization charges : Total charges.
 Charge compensation  : None.
 Solution method      : On-the-fly selection.
 Cavity type          : Scaled VdW (van der Waals Surface) (Alpha=1.100).
 Cavity algorithm     : GePol (No added spheres)
                        Default sphere list used, NSphG=    5.
                        Lebedev-Laikov grids with approx.  5.0 points / Ang**2.
                        Smoothing algorithm: York/Karplus (Gamma=1.0000).
                        Polarization charges: spherical gaussians, with
                                              point-specific exponents (IZeta= 3).
                        Self-potential: point-specific (ISelfS= 7).
                        Self-field    : sphere-specific E.n sum rule (ISelfD= 2).
 1st derivatives      : Analytical E(r).r(x)/FMM algorithm (CHGder, D1EAlg=3).
                        Cavity 1st derivative terms included.
 Solvent              : Chloroform, Eps=   4.711300 Eps(inf)=   2.090627
 ------------------------------------------------------------------------------
 Spheres list:
 ISph  on   Nord     Re0    Alpha      Xe            Ye            Ze
    1   C      1    1.9255  1.100      0.000000      0.000000      0.767876
    2  Cl      2    1.9735  1.100      0.000000      1.496192     -0.216683
    3  Cl      3    1.9735  1.100      0.000000     -1.496192     -0.216683
    4   H      4    1.4430  1.100     -0.899009      0.000000      1.379988
    5   H      5    1.4430  1.100      0.899009      0.000000      1.379988
 ------------------------------------------------------------------------------
 GePol: Number of generator spheres                  =       5
 GePol: Total number of spheres                      =       5
 GePol: Number of exposed spheres                    =       5 (100.00%)
 GePol: Number of points                             =     675
 GePol: Average weight of points                     =       0.17
 GePol: Minimum weight of points                     =   0.26D-09
 GePol: Maximum weight of points                     =    0.21616
 GePol: Number of points with low weight             =      30
 GePol: Fraction of low-weight points (<1% of avg)   =       4.44%
 GePol: Cavity surface area                          =    112.798 Ang**2
 GePol: Cavity volume                                =     97.220 Ang**3
 Leave Link  301 at Fri May  1 00:36:11 2020, MaxMem=   402653184 cpu:               0.4 elap:               0.2
 (Enter /n/sw/g16_nehalem/g16/l302.exe)
 NPDir=0 NMtPBC=     1 NCelOv=     1 NCel=       1 NClECP=     1 NCelD=      1
         NCelK=      1 NCelE2=     1 NClLst=     1 CellRange=     0.0.
 One-electron integrals computed using PRISM.
 One-electron integral symmetry used in STVInt
 NBasis=   126 RedAO= T EigKep=  1.78D-03  NBF=    46    18    28    34
 NBsUse=   126 1.00D-06 EigRej= -1.00D+00 NBFU=    46    18    28    34
 Precomputing XC quadrature grid using
 IXCGrd= 4 IRadAn=           5 IRanWt=          -1 IRanGd=           0 AccXCQ= 0.00D+00.
 Generated NRdTot=       0 NPtTot=           0 NUsed=           0 NTot=          32
 NSgBfM=   143   143   143   143   143 MxSgAt=     5 MxSgA2=     5.
 Leave Link  302 at Fri May  1 00:36:11 2020, MaxMem=   402653184 cpu:               0.9 elap:               0.3
 (Enter /n/sw/g16_nehalem/g16/l303.exe)
 DipDrv:  MaxL=1.
 Leave Link  303 at Fri May  1 00:36:12 2020, MaxMem=   402653184 cpu:               0.2 elap:               0.1
 (Enter /n/sw/g16_nehalem/g16/l401.exe)
 ExpMin= 1.03D-01 ExpMax= 4.56D+05 ExpMxC= 1.44D+03 IAcc=3 IRadAn=         5 AccDes= 0.00D+00
 Harris functional with IExCor=  402 and IRadAn=       5 diagonalized for initial guess.
 HarFok:  IExCor=  402 AccDes= 0.00D+00 IRadAn=         5 IDoV= 1 UseB2=F ITyADJ=14
 ICtDFT=  3500011 ScaDFX=  1.000000  1.000000  1.000000  1.000000
 FoFCou: FMM=F IPFlag=           0 FMFlag=      100000 FMFlg1=           0
         NFxFlg=           0 DoJE=T BraDBF=F KetDBF=T FulRan=T
         wScrn=  0.000000 ICntrl=       500 IOpCl=  0 I1Cent=   200000004 NGrid=           0
         NMat0=    1 NMatS0=      1 NMatT0=    0 NMatD0=    1 NMtDS0=    0 NMtDT0=    0
 Petite list used in FoFCou.
 Harris En= -959.650297787382    
 JPrj=0 DoOrth=F DoCkMO=F.
 Initial guess orbital symmetries:
       Occupied  (B2) (A1) (A1) (B2) (A1) (A1) (B2) (A2) (B1) (A1)
                 (B2) (A1) (B2) (A1) (B1) (A1) (B2) (A1) (A2) (B1)
                 (B2)
       Virtual   (A1) (B2) (A1) (B1) (B2) (A1) (B1) (A1) (B2) (A1)
                 (B1) (A2) (A1) (A2) (B2) (A1) (B1) (B2) (B1) (A1)
                 (A2) (A1) (B2) (B2) (A1) (B1) (A2) (A1) (B2) (B1)
                 (A1) (B1) (B2) (A1) (B2) (A2) (B1) (A1) (A1) (B1)
                 (A1) (B2) (A2) (B2) (B1) (A1) (A2) (B2) (A1) (A1)
                 (B1) (A2) (B2) (A1) (B1) (A2) (B2) (B2) (B2) (A1)
                 (B1) (A2) (A1) (A1) (B2) (B1) (B2) (A1) (A2) (B1)
                 (A1) (B2) (B1) (A1) (B1) (A2) (B1) (A1) (A2) (B2)
                 (A1) (B1) (B2) (A1) (A2) (B1) (A1) (A1) (B2) (A1)
                 (B2) (B1) (A2) (B2) (A1) (B2) (B1) (A2) (A1) (B1)
                 (B2) (A1) (A1) (B1) (A1)
 The electronic state of the initial guess is 1-A1.
 Leave Link  401 at Fri May  1 00:36:13 2020, MaxMem=   402653184 cpu:               3.3 elap:               1.1
 (Enter /n/sw/g16_nehalem/g16/l502.exe)
 Keep R1 ints in memory in symmetry-blocked form, NReq=40102167.
 FoFCou: FMM=F IPFlag=           0 FMFlag=           0 FMFlg1=           0
         NFxFlg=           0 DoJE=F BraDBF=F KetDBF=F FulRan=T
         wScrn=  0.000000 ICntrl=       600 IOpCl=  0 I1Cent=           0 NGrid=           0
         NMat0=    1 NMatS0=   8001 NMatT0=    0 NMatD0=    1 NMtDS0=    0 NMtDT0=    0
 Petite list used in FoFCou.
 Closed shell SCF:
 Using DIIS extrapolation, IDIIS=  1040.
 NGot=   402653184 LenX=   394520721 LenY=   394499831
 Requested convergence on RMS density matrix=1.00D-08 within 128 cycles.
 Requested convergence on MAX density matrix=1.00D-06.
 Requested convergence on             energy=1.00D-06.
 No special actions if energy rises.

 Cycle   1  Pass 1  IDiag  1:
 Inv3:  Mode=1 IEnd=     1366875.
 Iteration    1 A*A^-1 deviation from unit magnitude is 3.22D-15 for    245.
 Iteration    1 A*A^-1 deviation from orthogonality  is 2.11D-15 for    193    100.
 Iteration    1 A^-1*A deviation from unit magnitude is 2.78D-15 for    638.
 Iteration    1 A^-1*A deviation from orthogonality  is 1.34D-15 for    665    599.
 E= -959.775353342959    
 DIIS: error= 2.20D-02 at cycle   1 NSaved=   1.
 NSaved= 1 IEnMin= 1 EnMin= -959.775353342959     IErMin= 1 ErrMin= 2.20D-02
 ErrMax= 2.20D-02  0.00D+00 EMaxC= 1.00D-01 BMatC= 4.83D-02 BMatP= 4.83D-02
 IDIUse=3 WtCom= 7.80D-01 WtEn= 2.20D-01
 Coeff-Com:  0.100D+01
 Coeff-En:   0.100D+01
 Coeff:      0.100D+01
 Gap=     0.310 Goal=   None    Shift=    0.000
 GapD=    0.310 DampG=1.000 DampE=0.500 DampFc=0.5000 IDamp=-1.
 Damping current iteration by 5.00D-01
 RMSDP=1.47D-03 MaxDP=2.90D-02              OVMax= 1.04D-01

 Cycle   2  Pass 1  IDiag  1:
 E= -959.785774978466     Delta-E=       -0.010421635507 Rises=F Damp=T
 DIIS: error= 8.98D-03 at cycle   2 NSaved=   2.
 NSaved= 2 IEnMin= 2 EnMin= -959.785774978466     IErMin= 2 ErrMin= 8.98D-03
 ErrMax= 8.98D-03  0.00D+00 EMaxC= 1.00D-01 BMatC= 7.11D-03 BMatP= 4.83D-02
 IDIUse=3 WtCom= 9.10D-01 WtEn= 8.98D-02
 Coeff-Com: -0.181D+00 0.118D+01
 Coeff-En:   0.132D-01 0.987D+00
 Coeff:     -0.163D+00 0.116D+01
 Gap=     0.286 Goal=   None    Shift=    0.000
 RMSDP=5.69D-04 MaxDP=1.46D-02 DE=-1.04D-02 OVMax= 7.26D-02

 Cycle   3  Pass 1  IDiag  1:
 E= -959.793134892227     Delta-E=       -0.007359913761 Rises=F Damp=F
 DIIS: error= 8.48D-03 at cycle   3 NSaved=   3.
 NSaved= 3 IEnMin= 3 EnMin= -959.793134892227     IErMin= 3 ErrMin= 8.48D-03
 ErrMax= 8.48D-03  0.00D+00 EMaxC= 1.00D-01 BMatC= 6.01D-03 BMatP= 7.11D-03
 IDIUse=3 WtCom= 9.15D-01 WtEn= 8.48D-02
 Coeff-Com: -0.253D+00 0.668D+00 0.585D+00
 Coeff-En:   0.000D+00 0.000D+00 0.100D+01
 Coeff:     -0.231D+00 0.611D+00 0.620D+00
 Gap=     0.293 Goal=   None    Shift=    0.000
 RMSDP=4.00D-04 MaxDP=9.45D-03 DE=-7.36D-03 OVMax= 2.85D-02

 Cycle   4  Pass 1  IDiag  1:
 E= -959.798585752110     Delta-E=       -0.005450859883 Rises=F Damp=F
 DIIS: error= 2.56D-03 at cycle   4 NSaved=   4.
 NSaved= 4 IEnMin= 4 EnMin= -959.798585752110     IErMin= 4 ErrMin= 2.56D-03
 ErrMax= 2.56D-03  0.00D+00 EMaxC= 1.00D-01 BMatC= 3.94D-04 BMatP= 6.01D-03
 IDIUse=3 WtCom= 9.74D-01 WtEn= 2.56D-02
 Coeff-Com: -0.908D-01 0.208D+00 0.309D+00 0.573D+00
 Coeff-En:   0.000D+00 0.000D+00 0.712D-02 0.993D+00
 Coeff:     -0.885D-01 0.203D+00 0.301D+00 0.584D+00
 Gap=     0.292 Goal=   None    Shift=    0.000
 RMSDP=9.54D-05 MaxDP=1.87D-03 DE=-5.45D-03 OVMax= 5.80D-03

 Cycle   5  Pass 1  IDiag  1:
 E= -959.798982005934     Delta-E=       -0.000396253824 Rises=F Damp=F
 DIIS: error= 1.87D-04 at cycle   5 NSaved=   5.
 NSaved= 5 IEnMin= 5 EnMin= -959.798982005934     IErMin= 5 ErrMin= 1.87D-04
 ErrMax= 1.87D-04  0.00D+00 EMaxC= 1.00D-01 BMatC= 3.51D-06 BMatP= 3.94D-04
 IDIUse=3 WtCom= 9.98D-01 WtEn= 1.87D-03
 Coeff-Com: -0.160D-01 0.347D-01 0.668D-01 0.190D+00 0.725D+00
 Coeff-En:   0.000D+00 0.000D+00 0.000D+00 0.000D+00 0.100D+01
 Coeff:     -0.159D-01 0.346D-01 0.666D-01 0.189D+00 0.725D+00
 Gap=     0.292 Goal=   None    Shift=    0.000
 RMSDP=1.25D-05 MaxDP=3.14D-04 DE=-3.96D-04 OVMax= 4.67D-04

 Cycle   6  Pass 1  IDiag  1:
 E= -959.798985560186     Delta-E=       -0.000003554253 Rises=F Damp=F
 DIIS: error= 3.13D-05 at cycle   6 NSaved=   6.
 NSaved= 6 IEnMin= 6 EnMin= -959.798985560186     IErMin= 6 ErrMin= 3.13D-05
 ErrMax= 3.13D-05  0.00D+00 EMaxC= 1.00D-01 BMatC= 5.72D-08 BMatP= 3.51D-06
 IDIUse=1 WtCom= 1.00D+00 WtEn= 0.00D+00
 Coeff-Com: -0.472D-03 0.276D-03 0.632D-02 0.258D-01 0.151D+00 0.817D+00
 Coeff:     -0.472D-03 0.276D-03 0.632D-02 0.258D-01 0.151D+00 0.817D+00
 Gap=     0.292 Goal=   None    Shift=    0.000
 RMSDP=1.39D-06 MaxDP=3.07D-05 DE=-3.55D-06 OVMax= 6.53D-05

 Cycle   7  Pass 1  IDiag  1:
 E= -959.798985607682     Delta-E=       -0.000000047496 Rises=F Damp=F
 DIIS: error= 5.55D-06 at cycle   7 NSaved=   7.
 NSaved= 7 IEnMin= 7 EnMin= -959.798985607682     IErMin= 7 ErrMin= 5.55D-06
 ErrMax= 5.55D-06  0.00D+00 EMaxC= 1.00D-01 BMatC= 2.20D-09 BMatP= 5.72D-08
 IDIUse=1 WtCom= 1.00D+00 WtEn= 0.00D+00
 Coeff-Com:  0.398D-03-0.101D-02-0.505D-03-0.205D-03 0.148D-01 0.204D+00
 Coeff-Com:  0.782D+00
 Coeff:      0.398D-03-0.101D-02-0.505D-03-0.205D-03 0.148D-01 0.204D+00
 Coeff:      0.782D+00
 Gap=     0.292 Goal=   None    Shift=    0.000
 RMSDP=2.95D-07 MaxDP=4.63D-06 DE=-4.75D-08 OVMax= 1.36D-05

 Cycle   8  Pass 1  IDiag  1:
 E= -959.798985609952     Delta-E=       -0.000000002270 Rises=F Damp=F
 DIIS: error= 5.61D-07 at cycle   8 NSaved=   8.
 NSaved= 8 IEnMin= 8 EnMin= -959.798985609952     IErMin= 8 ErrMin= 5.61D-07
 ErrMax= 5.61D-07  0.00D+00 EMaxC= 1.00D-01 BMatC= 4.59D-11 BMatP= 2.20D-09
 IDIUse=1 WtCom= 1.00D+00 WtEn= 0.00D+00
 Coeff-Com:  0.388D-04-0.698D-04-0.266D-03-0.913D-03-0.179D-02-0.429D-02
 Coeff-Com:  0.983D-01 0.909D+00
 Coeff:      0.388D-04-0.698D-04-0.266D-03-0.913D-03-0.179D-02-0.429D-02
 Coeff:      0.983D-01 0.909D+00
 Gap=     0.292 Goal=   None    Shift=    0.000
 RMSDP=5.24D-08 MaxDP=9.21D-07 DE=-2.27D-09 OVMax= 3.25D-06

 Cycle   9  Pass 1  IDiag  1:
 E= -959.798985609999     Delta-E=       -0.000000000046 Rises=F Damp=F
 DIIS: error= 7.81D-08 at cycle   9 NSaved=   9.
 NSaved= 9 IEnMin= 9 EnMin= -959.798985609999     IErMin= 9 ErrMin= 7.81D-08
 ErrMax= 7.81D-08  0.00D+00 EMaxC= 1.00D-01 BMatC= 4.69D-13 BMatP= 4.59D-11
 IDIUse=1 WtCom= 1.00D+00 WtEn= 0.00D+00
 Coeff-Com:  0.275D-05-0.232D-05-0.410D-04-0.152D-03-0.454D-03-0.291D-02
 Coeff-Com:  0.105D-01 0.184D+00 0.809D+00
 Coeff:      0.275D-05-0.232D-05-0.410D-04-0.152D-03-0.454D-03-0.291D-02
 Coeff:      0.105D-01 0.184D+00 0.809D+00
 Gap=     0.292 Goal=   None    Shift=    0.000
 RMSDP=5.30D-09 MaxDP=7.90D-08 DE=-4.64D-11 OVMax= 3.01D-07

 Error on total polarization charges =  0.00952
 SCF Done:  E(RB3LYP) =  -959.798985610     A.U. after    9 cycles
            NFock=  9  Conv=0.53D-08     -V/T= 2.0029
 KE= 9.569855465931D+02 PE=-2.544311327376D+03 EE= 4.948097571578D+02
 Leave Link  502 at Fri May  1 00:36:19 2020, MaxMem=   402653184 cpu:              23.9 elap:               6.2
 (Enter /n/sw/g16_nehalem/g16/l601.exe)
 Copying SCF densities to generalized density rwf, IOpCl= 0 IROHF=0.

 **********************************************************************

            Population analysis using the SCF density.

 **********************************************************************

 Orbital symmetries:
       Occupied  (B2) (A1) (A1) (B2) (A1) (A1) (B2) (A1) (B2) (A2)
                 (B1) (A1) (B2) (A1) (B1) (A1) (B2) (A1) (A2) (B2)
                 (B1)
       Virtual   (A1) (B2) (A1) (B1) (B2) (A1) (B1) (A1) (B2) (A1)
                 (B1) (A2) (A1) (B2) (A2) (B1) (A1) (B2) (B1) (A1)
                 (A2) (A1) (B2) (B2) (A1) (B1) (A2) (A1) (B2) (B1)
                 (A1) (B1) (B2) (A1) (B2) (A2) (A1) (B1) (A1) (B1)
                 (A1) (B2) (B2) (A2) (B1) (A1) (A2) (B2) (A1) (B1)
                 (A1) (A2) (B2) (B1) (A1) (A2) (B2) (B2) (B2) (A1)
                 (B1) (A2) (A1) (A1) (B2) (B1) (B2) (A1) (A2) (B1)
                 (A1) (B2) (B1) (A1) (B1) (A2) (B1) (A1) (A2) (B2)
                 (A1) (B1) (B2) (A1) (A2) (B1) (A1) (A1) (B2) (B2)
                 (A1) (B1) (A2) (B2) (A1) (B2) (B1) (A2) (A1) (B1)
                 (B2) (A1) (A1) (B1) (A1)
 The electronic state is 1-A1.
 Alpha  occ. eigenvalues -- -101.57008-101.57007 -10.29821  -9.47570  -9.47570
 Alpha  occ. eigenvalues --   -7.23894  -7.23894  -7.22989  -7.22989  -7.22943
 Alpha  occ. eigenvalues --   -7.22943  -0.90196  -0.83034  -0.66804  -0.49497
 Alpha  occ. eigenvalues --   -0.46146  -0.44751  -0.33553  -0.33340  -0.31749
 Alpha  occ. eigenvalues --   -0.31095
 Alpha virt. eigenvalues --   -0.01938   0.02301   0.05168   0.08350   0.21952
 Alpha virt. eigenvalues --    0.23814   0.26760   0.27588   0.29396   0.33349
 Alpha virt. eigenvalues --    0.33598   0.34428   0.34991   0.36258   0.36367
 Alpha virt. eigenvalues --    0.40792   0.41220   0.45352   0.45944   0.46799
 Alpha virt. eigenvalues --    0.48617   0.49109   0.59800   0.64059   0.68736
 Alpha virt. eigenvalues --    0.69837   0.75900   0.90977   0.91434   0.97834
 Alpha virt. eigenvalues --    0.97889   1.01113   1.03342   1.08305   1.12818
 Alpha virt. eigenvalues --    1.23228   1.26688   1.27480   1.46261   1.80106
 Alpha virt. eigenvalues --    1.83094   1.87296   1.90064   1.90768   1.90894
 Alpha virt. eigenvalues --    1.91529   1.91914   1.92470   1.94463   2.03502
 Alpha virt. eigenvalues --    2.03613   2.03722   2.06571   2.07231   2.07442
 Alpha virt. eigenvalues --    2.07790   2.10493   2.11458   2.15661   2.20661
 Alpha virt. eigenvalues --    2.20844   2.20939   2.24223   2.25666   2.26340
 Alpha virt. eigenvalues --    2.28994   2.29041   2.35940   2.38405   2.38849
 Alpha virt. eigenvalues --    2.54124   2.73301   2.83527   2.88531   2.93473
 Alpha virt. eigenvalues --    3.02570   3.05920   3.10329   3.17799   3.27281
 Alpha virt. eigenvalues --    3.34344   3.39065   3.45125   3.48401   3.59968
 Alpha virt. eigenvalues --    3.72387   3.76156   3.77771   3.87397   3.95198
 Alpha virt. eigenvalues --    3.96268   4.06940   4.07981   4.08859   4.50867
 Alpha virt. eigenvalues --    4.72013   4.75457   4.92127   4.92959   5.05412
 Alpha virt. eigenvalues --    5.11128   5.17371   5.23852   5.74858  10.93650
          Condensed to atoms (all electrons):
               1          2          3          4          5
     1  C    4.695589   0.255282   0.255282   0.422719   0.422719
     2  Cl   0.255282  17.005406  -0.061381  -0.034584  -0.034584
     3  Cl   0.255282  -0.061381  17.005406  -0.034584  -0.034584
     4  H    0.422719  -0.034584  -0.034584   0.519985  -0.029470
     5  H    0.422719  -0.034584  -0.034584  -0.029470   0.519985
 Mulliken charges:
               1
     1  C   -0.051591
     2  Cl  -0.130139
     3  Cl  -0.130139
     4  H    0.155934
     5  H    0.155934
 Sum of Mulliken charges =   0.00000
 Mulliken charges with hydrogens summed into heavy atoms:
               1
     1  C    0.260277
     2  Cl  -0.130139
     3  Cl  -0.130139
 Electronic spatial extent (au):  <R**2>=            380.2720
 Charge=              0.0000 electrons
 Dipole moment (field-independent basis, Debye):
    X=              0.0000    Y=              0.0000    Z=              2.0153  Tot=              2.0153
 Quadrupole moment (field-independent basis, Debye-Ang):
   XX=            -31.3070   YY=            -34.3180   ZZ=            -29.5535
   XY=              0.0000   XZ=              0.0000   YZ=              0.0000
 Traceless Quadrupole moment (field-independent basis, Debye-Ang):
   XX=              0.4192   YY=             -2.5918   ZZ=              2.1727
   XY=              0.0000   XZ=              0.0000   YZ=              0.0000
 Octapole moment (field-independent basis, Debye-Ang**2):
  XXX=              0.0000  YYY=              0.0000  ZZZ=              2.3198  XYY=              0.0000
  XXY=              0.0000  XXZ=              2.0472  XZZ=              0.0000  YZZ=              0.0000
  YYZ=             -3.7397  XYZ=              0.0000
 Hexadecapole moment (field-independent basis, Debye-Ang**3):
 XXXX=            -40.8402 YYYY=           -365.3504 ZZZZ=            -71.3985 XXXY=              0.0000
 XXXZ=              0.0000 YYYX=              0.0000 YYYZ=              0.0000 ZZZX=              0.0000
 ZZZY=              0.0000 XXYY=            -72.1215 XXZZ=            -16.8500 YYZZ=            -72.7512
 XXYZ=              0.0000 YYXZ=              0.0000 ZZXY=              0.0000
 N-N= 1.327170380156D+02 E-N=-2.544311331870D+03  KE= 9.569855465931D+02
 Symmetry A1   KE= 4.484260793517D+02
 Symmetry A2   KE= 4.583559225263D+01
 Symmetry B1   KE= 4.785941113980D+01
 Symmetry B2   KE= 4.148644638489D+02
 No NMR shielding tensors so no spin-rotation constants.
 Leave Link  601 at Fri May  1 00:36:20 2020, MaxMem=   402653184 cpu:               1.2 elap:               0.5
 (Enter /n/sw/g16_nehalem/g16/l701.exe)
 ... and contract with generalized density number  0.
 Compute integral first derivatives.
 R6Disp: Adding Grimme-D3(BJ) dispersion energy 1st derivatives to the gradient.
 D1PCM: PCM CHGder 1st derivatives, ID1Alg=3 FixD1E=F DoIter=F DoCFld=F I1PDM=0.
 GePol: Maximum number of non-zero 1st derivatives   =     259
 Leave Link  701 at Fri May  1 00:36:22 2020, MaxMem=   402653184 cpu:               4.1 elap:               1.3
 (Enter /n/sw/g16_nehalem/g16/l702.exe)
 L702 exits ... SP integral derivatives will be done elsewhere.
 Leave Link  702 at Fri May  1 00:36:22 2020, MaxMem=   402653184 cpu:               0.1 elap:               0.0
 (Enter /n/sw/g16_nehalem/g16/l703.exe)
 Integral derivatives from FoFJK, PRISM(SPDF).
 Compute integral first derivatives, UseDBF=F ICtDFT=           0.
 Calling FoFJK, ICntrl=      2127 FMM=F ISym2X=1 I1Cent= 0 IOpClX= 0 NMat=1 NMatS=1 NMatT=0.
 FoFJK:  IHMeth= 1 ICntrl=    2127 DoSepK=F KAlg= 0 I1Cent=           0 FoldK=F
 IRaf=         0 NMat=       1 IRICut=       1 DoRegI=T DoRafI=F ISym2E= 1 IDoP0=0 IntGTp=1.
 FoFCou: FMM=F IPFlag=           0 FMFlag=      100000 FMFlg1=         800
         NFxFlg=           0 DoJE=F BraDBF=F KetDBF=F FulRan=T
         wScrn=  0.000000 ICntrl=      2127 IOpCl=  0 I1Cent=           0 NGrid=           0
         NMat0=    1 NMatS0=      1 NMatT0=    0 NMatD0=    1 NMtDS0=    0 NMtDT0=    0
 Petite list used in FoFCou.
 Leave Link  703 at Fri May  1 00:36:24 2020, MaxMem=   402653184 cpu:               6.8 elap:               1.7
 (Enter /n/sw/g16_nehalem/g16/l716.exe)
 Dipole        = 0.00000000D+00-2.08052893D-16 7.92889989D-01
 ***** Axes restored to original set *****
 -------------------------------------------------------------------
 Center     Atomic                   Forces (Hartrees/Bohr)
 Number     Number              X              Y              Z
 -------------------------------------------------------------------
      1        6           0.000000000    0.000000000    0.006477998
      2       17           0.000000000   -0.002286099    0.000035181
      3       17           0.000000000    0.002286099    0.000035181
      4        1           0.002919878    0.000000000   -0.003274180
      5        1          -0.002919878    0.000000000   -0.003274180
 -------------------------------------------------------------------
 Cartesian Forces:  Max     0.006477998 RMS     0.002461860
 Leave Link  716 at Fri May  1 00:36:24 2020, MaxMem=   402653184 cpu:               0.1 elap:               0.1
 (Enter /n/sw/g16_nehalem/g16/l103.exe)

 GradGradGradGradGradGradGradGradGradGradGradGradGradGradGradGradGradGrad
 Berny optimization.
 FormGI is forming the generalized inverse of G from B-inverse, IUseBI=4.
 Internal  Forces:  Max     0.004256265 RMS     0.001907630
 Search for a local minimum.
 Step number   1 out of a maximum of   24
 All quantities printed in internal units (Hartrees-Bohrs-Radians)
 RMS Force = .19076D-02 SwitMx=.10000D-02 MixMth= 1
 Mixed Optimization -- RFO/linear search
 Second derivative matrix not updated -- first step.
 The second derivative matrix:
                          R1        R2        R3        R4        A1
           R1           0.26833
           R2           0.00000   0.26833
           R3           0.00000   0.00000   0.35090
           R4           0.00000   0.00000   0.00000   0.35090
           A1           0.00000   0.00000   0.00000   0.00000   0.25000
           A2           0.00000   0.00000   0.00000   0.00000   0.00000
           A3           0.00000   0.00000   0.00000   0.00000   0.00000
           A4           0.00000   0.00000   0.00000   0.00000   0.00000
           A5           0.00000   0.00000   0.00000   0.00000   0.00000
           A6           0.00000   0.00000   0.00000   0.00000   0.00000
           D1           0.00000   0.00000   0.00000   0.00000   0.00000
           D2           0.00000   0.00000   0.00000   0.00000   0.00000
           D3           0.00000   0.00000   0.00000   0.00000   0.00000
           D4           0.00000   0.00000   0.00000   0.00000   0.00000
                          A2        A3        A4        A5        A6
           A2           0.16000
           A3           0.00000   0.16000
           A4           0.00000   0.00000   0.16000
           A5           0.00000   0.00000   0.00000   0.16000
           A6           0.00000   0.00000   0.00000   0.00000   0.16000
           D1           0.00000   0.00000   0.00000   0.00000   0.00000
           D2           0.00000   0.00000   0.00000   0.00000   0.00000
           D3           0.00000   0.00000   0.00000   0.00000   0.00000
           D4           0.00000   0.00000   0.00000   0.00000   0.00000
                          D1        D2        D3        D4
           D1           0.00266
           D2           0.00000   0.00266
           D3           0.00000   0.00000   0.00266
           D4           0.00000   0.00000   0.00000   0.00266
 ITU=  0
     Eigenvalues ---    0.05714   0.07008   0.09135   0.16000   0.16735
     Eigenvalues ---    0.26833   0.26833   0.35090   0.35090
 RFO step:  Lambda=-2.26812643D-04 EMin= 5.71428029D-02
 Linear search not attempted -- first point.
 Iteration  1 RMS(Cart)=  0.00898985 RMS(Int)=  0.00006953
 Iteration  2 RMS(Cart)=  0.00006030 RMS(Int)=  0.00002856
 Iteration  3 RMS(Cart)=  0.00000000 RMS(Int)=  0.00002856
 ITry= 1 IFail=0 DXMaxC= 2.07D-02 DCOld= 1.00D+10 DXMaxT= 3.00D-01 DXLimC= 3.00D+00 Rises=F
 ClnCor:  largest displacement from symmetrization is 1.45D-04 for atom     5.
 Variable       Old X    -DE/DX   Delta X   Delta X   Delta X     New X
                                 (Linear)    (Quad)   (Total)
    R1        3.38464  -0.00193   0.00000  -0.00718  -0.00718   3.37746
    R2        3.38464  -0.00193   0.00000  -0.00718  -0.00718   3.37746
    R3        2.05529  -0.00426   0.00000  -0.01212  -0.01218   2.04311
    R4        2.05529  -0.00426   0.00000  -0.01212  -0.01218   2.04311
    A1        1.97758  -0.00111   0.00000  -0.01576  -0.01576   1.96181
    A2        1.88533  -0.00012   0.00000   0.00052   0.00051   1.88584
    A3        1.88533   0.00009   0.00000   0.00061   0.00051   1.88584
    A4        1.88533  -0.00012   0.00000   0.00052   0.00051   1.88584
    A5        1.88533   0.00009   0.00000   0.00061   0.00051   1.88584
    A6        1.94604   0.00121   0.00000   0.01394   0.01393   1.95998
    D1        2.14525  -0.00149   0.00000  -0.01845  -0.01842   2.12683
    D2       -2.14525   0.00123   0.00000   0.01833   0.01842  -2.12683
    D3        2.06897   0.00062   0.00000   0.00916   0.00921   2.07818
    D4       -2.06897  -0.00062   0.00000  -0.00916  -0.00921  -2.07818
         Item               Value     Threshold  Converged?
 Maximum Force            0.004256     0.000450     NO 
 RMS     Force            0.001908     0.000300     NO 
 Maximum Displacement     0.020719     0.001800     NO 
 RMS     Displacement     0.009021     0.001200     NO 
 Predicted change in Energy=-1.137167D-04
 Lowest energy point so far.  Saving SCF results.
 GradGradGradGradGradGradGradGradGradGradGradGradGradGradGradGradGradGrad

 Leave Link  103 at Fri May  1 00:36:25 2020, MaxMem=   402653184 cpu:               0.3 elap:               0.1
 (Enter /n/sw/g16_nehalem/g16/l202.exe)
                          Input orientation:                          
 ---------------------------------------------------------------------
 Center     Atomic      Atomic             Coordinates (Angstroms)
 Number     Number       Type             X           Y           Z
 ---------------------------------------------------------------------
      1          6           0        0.000000    0.000000    0.775666
      2         17           0        0.000000    1.485228   -0.218539
      3         17           0        0.000000   -1.485228   -0.218539
      4          1           0       -0.897900    0.000000    1.377912
      5          1           0        0.897900    0.000000    1.377912
 ---------------------------------------------------------------------
                    Distance matrix (angstroms):
                    1          2          3          4          5
     1  C    0.000000
     2  Cl   1.787273   0.000000
     3  Cl   1.787273   2.970456   0.000000
     4  H    1.081168   2.358130   2.358130   0.000000
     5  H    1.081168   2.358130   2.358130   1.795799   0.000000
 Stoichiometry    CH2Cl2
 Framework group  C2V[C2(C),SGV(Cl2),SGV'(H2)]
 Deg. of freedom     4
 Full point group                 C2V     NOp   4
 RotChk:  IX=0 Diff= 7.79D-16
 Largest Abelian subgroup         C2V     NOp   4
 Largest concise Abelian subgroup C2V     NOp   4
                         Standard orientation:                         
 ---------------------------------------------------------------------
 Center     Atomic      Atomic             Coordinates (Angstroms)
 Number     Number       Type             X           Y           Z
 ---------------------------------------------------------------------
      1          6           0        0.000000    0.000000    0.776154
      2         17           0        0.000000    1.485228   -0.218051
      3         17           0        0.000000   -1.485228   -0.218051
      4          1           0       -0.897900    0.000000    1.378400
      5          1           0        0.897900    0.000000    1.378400
 ---------------------------------------------------------------------
 Rotational constants (GHZ):          31.8043665           3.2416700           2.9985536
 Leave Link  202 at Fri May  1 00:36:25 2020, MaxMem=   402653184 cpu:               0.1 elap:               0.0
 (Enter /n/sw/g16_nehalem/g16/l301.exe)
 Standard basis: CC-pVTZ (5D, 7F)
 Ernie: Thresh=  0.10000D-02 Tol=  0.10000D-05 Strict=F.
 Ernie:  29 primitive shells out of 162 were deleted.
 There are    54 symmetry adapted cartesian basis functions of A1  symmetry.
 There are    19 symmetry adapted cartesian basis functions of A2  symmetry.
 There are    31 symmetry adapted cartesian basis functions of B1  symmetry.
 There are    39 symmetry adapted cartesian basis functions of B2  symmetry.
 There are    46 symmetry adapted basis functions of A1  symmetry.
 There are    18 symmetry adapted basis functions of A2  symmetry.
 There are    28 symmetry adapted basis functions of B1  symmetry.
 There are    34 symmetry adapted basis functions of B2  symmetry.
   126 basis functions,   274 primitive gaussians,   143 cartesian basis functions
    21 alpha electrons       21 beta electrons
       nuclear repulsion energy       133.3125386692 Hartrees.
 IExCor=  402 DFT=T Ex+Corr=B3LYP ExCW=0 ScaHFX=  0.200000
 ScaDFX=  0.800000  0.720000  1.000000  0.810000 ScalE2=  1.000000  1.000000
 IRadAn=      5 IRanWt=     -1 IRanGd=            0 ICorTp=0 IEmpDi=141
 NAtoms=    5 NActive=    5 NUniq=    3 SFac= 2.78D+00 NAtFMM=   60 NAOKFM=F Big=F
 Integral buffers will be    131072 words long.
 Raffenetti 2 integral format.
 Two-electron integral symmetry is turned on.
 R6Disp:  Grimme-D3(BJ) Dispersion energy=       -0.0065780574 Hartrees.
 Nuclear repulsion after empirical dispersion term =      133.3059606119 Hartrees.
 ------------------------------------------------------------------------------
 Polarizable Continuum Model (PCM)
 =================================
 Model                : PCM.
 Atomic radii         : UFF (Universal Force Field).
 Polarization charges : Total charges.
 Charge compensation  : None.
 Solution method      : On-the-fly selection.
 Cavity type          : Scaled VdW (van der Waals Surface) (Alpha=1.100).
 Cavity algorithm     : GePol (No added spheres)
                        Default sphere list used, NSphG=    5.
                        Lebedev-Laikov grids with approx.  5.0 points / Ang**2.
                        Smoothing algorithm: York/Karplus (Gamma=1.0000).
                        Polarization charges: spherical gaussians, with
                                              point-specific exponents (IZeta= 3).
                        Self-potential: point-specific (ISelfS= 7).
                        Self-field    : sphere-specific E.n sum rule (ISelfD= 2).
 1st derivatives      : Analytical E(r).r(x)/FMM algorithm (CHGder, D1EAlg=3).
                        Cavity 1st derivative terms included.
 Solvent              : Chloroform, Eps=   4.711300 Eps(inf)=   2.090627
 ------------------------------------------------------------------------------
 Spheres list:
 ISph  on   Nord     Re0    Alpha      Xe            Ye            Ze
    1   C      1    1.9255  1.100      0.000000      0.000000      0.776154
    2  Cl      2    1.9735  1.100      0.000000      1.485228     -0.218051
    3  Cl      3    1.9735  1.100      0.000000     -1.485228     -0.218051
    4   H      4    1.4430  1.100     -0.897900      0.000000      1.378400
    5   H      5    1.4430  1.100      0.897900      0.000000      1.378400
 ------------------------------------------------------------------------------
 GePol: Number of generator spheres                  =       5
 GePol: Total number of spheres                      =       5
 GePol: Number of exposed spheres                    =       5 (100.00%)
 GePol: Number of points                             =     675
 GePol: Average weight of points                     =       0.17
 GePol: Minimum weight of points                     =   0.13D-06
 GePol: Maximum weight of points                     =    0.21616
 GePol: Number of points with low weight             =      34
 GePol: Fraction of low-weight points (<1% of avg)   =       5.04%
 GePol: Cavity surface area                          =    112.601 Ang**2
 GePol: Cavity volume                                =     97.072 Ang**3
 Leave Link  301 at Fri May  1 00:36:25 2020, MaxMem=   402653184 cpu:               0.3 elap:               0.1
 (Enter /n/sw/g16_nehalem/g16/l302.exe)
 NPDir=0 NMtPBC=     1 NCelOv=     1 NCel=       1 NClECP=     1 NCelD=      1
         NCelK=      1 NCelE2=     1 NClLst=     1 CellRange=     0.0.
 One-electron integrals computed using PRISM.
 One-electron integral symmetry used in STVInt
 NBasis=   126 RedAO= T EigKep=  1.72D-03  NBF=    46    18    28    34
 NBsUse=   126 1.00D-06 EigRej= -1.00D+00 NBFU=    46    18    28    34
 Precomputing XC quadrature grid using
 IXCGrd= 4 IRadAn=           5 IRanWt=          -1 IRanGd=           0 AccXCQ= 0.00D+00.
 Generated NRdTot=       0 NPtTot=           0 NUsed=           0 NTot=          32
 NSgBfM=   143   143   143   143   143 MxSgAt=     5 MxSgA2=     5.
 Leave Link  302 at Fri May  1 00:36:25 2020, MaxMem=   402653184 cpu:               0.7 elap:               0.2
 (Enter /n/sw/g16_nehalem/g16/l303.exe)
 DipDrv:  MaxL=1.
 Leave Link  303 at Fri May  1 00:36:25 2020, MaxMem=   402653184 cpu:               0.1 elap:               0.0
 (Enter /n/sw/g16_nehalem/g16/l401.exe)
 Initial guess from the checkpoint file:  "checkpoint.chk"
 B after Tr=     0.000000    0.000000    0.000000
         Rot=    1.000000    0.000000    0.000000    0.000000 Ang=   0.00 deg.
 Guess basis will be translated and rotated to current coordinates.
 JPrj=2 DoOrth=T DoCkMO=T.
 Initial guess orbital symmetries:
       Occupied  (B2) (A1) (A1) (B2) (A1) (A1) (B2) (A1) (B2) (A2)
                 (B1) (A1) (B2) (A1) (B1) (A1) (B2) (A1) (A2) (B2)
                 (B1)
       Virtual   (A1) (B2) (A1) (B1) (B2) (A1) (B1) (A1) (B2) (A1)
                 (B1) (A2) (A1) (B2) (A2) (B1) (A1) (B2) (B1) (A1)
                 (A2) (A1) (B2) (B2) (A1) (B1) (A2) (A1) (B2) (B1)
                 (A1) (B1) (B2) (A1) (B2) (A2) (A1) (B1) (A1) (B1)
                 (A1) (B2) (B2) (A2) (B1) (A1) (A2) (B2) (A1) (B1)
                 (A1) (A2) (B2) (B1) (A1) (A2) (B2) (B2) (B2) (A1)
                 (B1) (A2) (A1) (A1) (B2) (B1) (B2) (A1) (A2) (B1)
                 (A1) (B2) (B1) (A1) (B1) (A2) (B1) (A1) (A2) (B2)
                 (A1) (B1) (B2) (A1) (A2) (B1) (A1) (A1) (B2) (B2)
                 (A1) (B1) (A2) (B2) (A1) (B2) (B1) (A2) (A1) (B1)
                 (B2) (A1) (A1) (B1) (A1)
 The electronic state of the initial guess is 1-A1.
 Generating alternative initial guess.
 ExpMin= 1.03D-01 ExpMax= 4.56D+05 ExpMxC= 1.44D+03 IAcc=2 IRadAn=         4 AccDes= 0.00D+00
 Harris functional with IExCor=  402 and IRadAn=       4 diagonalized for initial guess.
 HarFok:  IExCor=  402 AccDes= 0.00D+00 IRadAn=         4 IDoV= 1 UseB2=F ITyADJ=14
 ICtDFT=  3500011 ScaDFX=  1.000000  1.000000  1.000000  1.000000
 FoFCou: FMM=F IPFlag=           0 FMFlag=      100000 FMFlg1=           0
         NFxFlg=           0 DoJE=T BraDBF=F KetDBF=T FulRan=T
         wScrn=  0.000000 ICntrl=       500 IOpCl=  0 I1Cent=   200000004 NGrid=           0
         NMat0=    1 NMatS0=      1 NMatT0=    0 NMatD0=    1 NMtDS0=    0 NMtDT0=    0
 Petite list used in FoFCou.
 Harris En= -959.652821746948    
 Leave Link  401 at Fri May  1 00:36:26 2020, MaxMem=   402653184 cpu:               1.5 elap:               0.4
 (Enter /n/sw/g16_nehalem/g16/l502.exe)
 Keep R1 ints in memory in symmetry-blocked form, NReq=40102167.
 FoFCou: FMM=F IPFlag=           0 FMFlag=           0 FMFlg1=           0
         NFxFlg=           0 DoJE=F BraDBF=F KetDBF=F FulRan=T
         wScrn=  0.000000 ICntrl=       600 IOpCl=  0 I1Cent=           0 NGrid=           0
         NMat0=    1 NMatS0=   8001 NMatT0=    0 NMatD0=    1 NMtDS0=    0 NMtDT0=    0
 Petite list used in FoFCou.
 Closed shell SCF:
 Using DIIS extrapolation, IDIIS=  1040.
 NGot=   402653184 LenX=   394520721 LenY=   394499831
 Requested convergence on RMS density matrix=1.00D-08 within 128 cycles.
 Requested convergence on MAX density matrix=1.00D-06.
 Requested convergence on             energy=1.00D-06.
 No special actions if energy rises.

 Cycle   1  Pass 1  IDiag  1:
 Inv3:  Mode=1 IEnd=     1366875.
 Iteration    1 A*A^-1 deviation from unit magnitude is 4.33D-15 for    668.
 Iteration    1 A*A^-1 deviation from orthogonality  is 1.89D-15 for    673    627.
 Iteration    1 A^-1*A deviation from unit magnitude is 4.11D-15 for    668.
 Iteration    1 A^-1*A deviation from orthogonality  is 1.77D-15 for    189    110.
 E= -959.799032029449    
 DIIS: error= 7.87D-04 at cycle   1 NSaved=   1.
 NSaved= 1 IEnMin= 1 EnMin= -959.799032029449     IErMin= 1 ErrMin= 7.87D-04
 ErrMax= 7.87D-04  0.00D+00 EMaxC= 1.00D-01 BMatC= 5.21D-05 BMatP= 5.21D-05
 IDIUse=3 WtCom= 9.92D-01 WtEn= 7.87D-03
 Coeff-Com:  0.100D+01
 Coeff-En:   0.100D+01
 Coeff:      0.100D+01
 Gap=     0.312 Goal=   None    Shift=    0.000
 RMSDP=7.40D-05 MaxDP=8.61D-04              OVMax= 4.66D-03

 Cycle   2  Pass 1  IDiag  1:
 E= -959.799088119317     Delta-E=       -0.000056089867 Rises=F Damp=F
 DIIS: error= 3.81D-04 at cycle   2 NSaved=   2.
 NSaved= 2 IEnMin= 2 EnMin= -959.799088119317     IErMin= 2 ErrMin= 3.81D-04
 ErrMax= 3.81D-04  0.00D+00 EMaxC= 1.00D-01 BMatC= 1.01D-05 BMatP= 5.21D-05
 IDIUse=3 WtCom= 9.96D-01 WtEn= 3.81D-03
 Coeff-Com:  0.202D+00 0.798D+00
 Coeff-En:   0.000D+00 0.100D+01
 Coeff:      0.202D+00 0.798D+00
 Gap=     0.295 Goal=   None    Shift=    0.000
 RMSDP=2.79D-05 MaxDP=7.51D-04 DE=-5.61D-05 OVMax= 2.10D-03

 Cycle   3  Pass 1  IDiag  1:
 E= -959.799087078976     Delta-E=        0.000001040341 Rises=F Damp=F
 DIIS: error= 3.81D-04 at cycle   3 NSaved=   3.
 NSaved= 3 IEnMin= 2 EnMin= -959.799088119317     IErMin= 3 ErrMin= 3.81D-04
 ErrMax= 3.81D-04  0.00D+00 EMaxC= 1.00D-01 BMatC= 1.15D-05 BMatP= 1.01D-05
 IDIUse=3 WtCom= 3.39D-01 WtEn= 6.61D-01
 Coeff-Com: -0.191D-01 0.522D+00 0.497D+00
 Coeff-En:   0.000D+00 0.520D+00 0.480D+00
 Coeff:     -0.647D-02 0.521D+00 0.486D+00
 Gap=     0.294 Goal=   None    Shift=    0.000
 RMSDP=1.48D-05 MaxDP=3.45D-04 DE= 1.04D-06 OVMax= 1.05D-03

 Cycle   4  Pass 1  IDiag  1:
 E= -959.799098452687     Delta-E=       -0.000011373712 Rises=F Damp=F
 DIIS: error= 2.21D-05 at cycle   4 NSaved=   4.
 NSaved= 4 IEnMin= 4 EnMin= -959.799098452687     IErMin= 4 ErrMin= 2.21D-05
 ErrMax= 2.21D-05  0.00D+00 EMaxC= 1.00D-01 BMatC= 3.17D-08 BMatP= 1.01D-05
 IDIUse=1 WtCom= 1.00D+00 WtEn= 0.00D+00
 Coeff-Com: -0.716D-02 0.101D+00 0.113D+00 0.793D+00
 Coeff:     -0.716D-02 0.101D+00 0.113D+00 0.793D+00
 Gap=     0.294 Goal=   None    Shift=    0.000
 RMSDP=1.81D-06 MaxDP=2.93D-05 DE=-1.14D-05 OVMax= 9.84D-05

 Cycle   5  Pass 1  IDiag  1:
 E= -959.799098488761     Delta-E=       -0.000000036074 Rises=F Damp=F
 DIIS: error= 5.97D-06 at cycle   5 NSaved=   5.
 NSaved= 5 IEnMin= 5 EnMin= -959.799098488761     IErMin= 5 ErrMin= 5.97D-06
 ErrMax= 5.97D-06  0.00D+00 EMaxC= 1.00D-01 BMatC= 3.56D-09 BMatP= 3.17D-08
 IDIUse=1 WtCom= 1.00D+00 WtEn= 0.00D+00
 Coeff-Com: -0.908D-03-0.137D-01-0.713D-02 0.232D+00 0.789D+00
 Coeff:     -0.908D-03-0.137D-01-0.713D-02 0.232D+00 0.789D+00
 Gap=     0.294 Goal=   None    Shift=    0.000
 RMSDP=3.93D-07 MaxDP=5.77D-06 DE=-3.61D-08 OVMax= 1.90D-05

 Cycle   6  Pass 1  IDiag  1:
 E= -959.799098492375     Delta-E=       -0.000000003614 Rises=F Damp=F
 DIIS: error= 9.70D-07 at cycle   6 NSaved=   6.
 NSaved= 6 IEnMin= 6 EnMin= -959.799098492375     IErMin= 6 ErrMin= 9.70D-07
 ErrMax= 9.70D-07  0.00D+00 EMaxC= 1.00D-01 BMatC= 9.87D-11 BMatP= 3.56D-09
 IDIUse=1 WtCom= 1.00D+00 WtEn= 0.00D+00
 Coeff-Com: -0.750D-04-0.708D-02-0.471D-02 0.567D-01 0.237D+00 0.718D+00
 Coeff:     -0.750D-04-0.708D-02-0.471D-02 0.567D-01 0.237D+00 0.718D+00
 Gap=     0.294 Goal=   None    Shift=    0.000
 RMSDP=8.01D-08 MaxDP=1.44D-06 DE=-3.61D-09 OVMax= 3.99D-06

 Cycle   7  Pass 1  IDiag  1:
 E= -959.799098492478     Delta-E=       -0.000000000103 Rises=F Damp=F
 DIIS: error= 2.38D-07 at cycle   7 NSaved=   7.
 NSaved= 7 IEnMin= 7 EnMin= -959.799098492478     IErMin= 7 ErrMin= 2.38D-07
 ErrMax= 2.38D-07  0.00D+00 EMaxC= 1.00D-01 BMatC= 9.06D-12 BMatP= 9.87D-11
 IDIUse=1 WtCom= 1.00D+00 WtEn= 0.00D+00
 Coeff-Com:  0.648D-04-0.168D-02-0.125D-02 0.679D-03 0.109D-01 0.239D+00
 Coeff-Com:  0.752D+00
 Coeff:      0.648D-04-0.168D-02-0.125D-02 0.679D-03 0.109D-01 0.239D+00
 Coeff:      0.752D+00
 Gap=     0.294 Goal=   None    Shift=    0.000
 RMSDP=2.04D-08 MaxDP=3.86D-07 DE=-1.03D-10 OVMax= 8.38D-07

 Cycle   8  Pass 1  IDiag  1:
 E= -959.799098492490     Delta-E=       -0.000000000012 Rises=F Damp=F
 DIIS: error= 3.87D-08 at cycle   8 NSaved=   8.
 NSaved= 8 IEnMin= 8 EnMin= -959.799098492490     IErMin= 8 ErrMin= 3.87D-08
 ErrMax= 3.87D-08  0.00D+00 EMaxC= 1.00D-01 BMatC= 1.53D-13 BMatP= 9.06D-12
 IDIUse=1 WtCom= 1.00D+00 WtEn= 0.00D+00
 Coeff-Com:  0.173D-04-0.254D-03-0.245D-03-0.116D-02-0.435D-02 0.424D-01
 Coeff-Com:  0.172D+00 0.791D+00
 Coeff:      0.173D-04-0.254D-03-0.245D-03-0.116D-02-0.435D-02 0.424D-01
 Coeff:      0.172D+00 0.791D+00
 Gap=     0.294 Goal=   None    Shift=    0.000
 RMSDP=2.68D-09 MaxDP=4.79D-08 DE=-1.23D-11 OVMax= 1.16D-07

 Error on total polarization charges =  0.00949
 SCF Done:  E(RB3LYP) =  -959.799098492     A.U. after    8 cycles
            NFock=  8  Conv=0.27D-08     -V/T= 2.0029
 KE= 9.570199297216D+02 PE=-2.545521819155D+03 EE= 4.953968303295D+02
 Leave Link  502 at Fri May  1 00:36:31 2020, MaxMem=   402653184 cpu:              21.6 elap:               5.5
 (Enter /n/sw/g16_nehalem/g16/l701.exe)
 ... and contract with generalized density number  0.
 Compute integral first derivatives.
 R6Disp: Adding Grimme-D3(BJ) dispersion energy 1st derivatives to the gradient.
 D1PCM: PCM CHGder 1st derivatives, ID1Alg=3 FixD1E=F DoIter=F DoCFld=F I1PDM=0.
 GePol: Maximum number of non-zero 1st derivatives   =     259
 Leave Link  701 at Fri May  1 00:36:32 2020, MaxMem=   402653184 cpu:               4.1 elap:               1.1
 (Enter /n/sw/g16_nehalem/g16/l702.exe)
 L702 exits ... SP integral derivatives will be done elsewhere.
 Leave Link  702 at Fri May  1 00:36:32 2020, MaxMem=   402653184 cpu:               0.1 elap:               0.0
 (Enter /n/sw/g16_nehalem/g16/l703.exe)
 Integral derivatives from FoFJK, PRISM(SPDF).
 Compute integral first derivatives, UseDBF=F ICtDFT=           0.
 Calling FoFJK, ICntrl=      2127 FMM=F ISym2X=1 I1Cent= 0 IOpClX= 0 NMat=1 NMatS=1 NMatT=0.
 FoFJK:  IHMeth= 1 ICntrl=    2127 DoSepK=F KAlg= 0 I1Cent=           0 FoldK=F
 IRaf=         0 NMat=       1 IRICut=       1 DoRegI=T DoRafI=F ISym2E= 1 IDoP0=0 IntGTp=1.
 FoFCou: FMM=F IPFlag=           0 FMFlag=      100000 FMFlg1=         800
         NFxFlg=           0 DoJE=F BraDBF=F KetDBF=F FulRan=T
         wScrn=  0.000000 ICntrl=      2127 IOpCl=  0 I1Cent=           0 NGrid=           0
         NMat0=    1 NMatS0=      1 NMatT0=    0 NMatD0=    1 NMtDS0=    0 NMtDT0=    0
 Petite list used in FoFCou.
 Leave Link  703 at Fri May  1 00:36:34 2020, MaxMem=   402653184 cpu:               6.4 elap:               1.6
 (Enter /n/sw/g16_nehalem/g16/l716.exe)
 Dipole        = 0.00000000D+00-2.07796158D-16 7.96716088D-01
 ***** Axes restored to original set *****
 -------------------------------------------------------------------
 Center     Atomic                   Forces (Hartrees/Bohr)
 Number     Number              X              Y              Z
 -------------------------------------------------------------------
      1        6           0.000000000    0.000000000    0.000782721
      2       17           0.000000000    0.000415588   -0.000235988
      3       17           0.000000000   -0.000415588   -0.000235988
      4        1           0.000004786    0.000000000   -0.000155372
      5        1          -0.000004786    0.000000000   -0.000155372
 -------------------------------------------------------------------
 Cartesian Forces:  Max     0.000782721 RMS     0.000272982
 Leave Link  716 at Fri May  1 00:36:34 2020, MaxMem=   402653184 cpu:               0.1 elap:               0.0
 (Enter /n/sw/g16_nehalem/g16/l103.exe)

 GradGradGradGradGradGradGradGradGradGradGradGradGradGradGradGradGradGrad
 Berny optimization.
 Using GEDIIS/GDIIS optimizer.
 FormGI is forming the generalized inverse of G from B-inverse, IUseBI=4.
 Internal  Forces:  Max     0.000476627 RMS     0.000194322
 Search for a local minimum.
 Step number   2 out of a maximum of   24
 All quantities printed in internal units (Hartrees-Bohrs-Radians)
 RMS Force = .19432D-03 SwitMx=.10000D-02 MixMth= 2
 Mixed Optimization -- En-DIIS/RFO-DIIS
 Update second derivatives using D2CorX and points    1    2
 DE= -1.13D-04 DEPred=-1.14D-04 R= 9.93D-01
 TightC=F SS=  1.41D+00  RLast= 4.11D-02 DXNew= 5.0454D-01 1.2338D-01
 Trust test= 9.93D-01 RLast= 4.11D-02 DXMaxT set to 3.00D-01
 The second derivative matrix:
                          R1        R2        R3        R4        A1
           R1           0.27711
           R2           0.00879   0.27711
           R3           0.00729   0.00729   0.34594
           R4           0.00729   0.00729  -0.00496   0.34594
           A1          -0.02117  -0.02117  -0.05286  -0.05286   0.18767
           A2           0.00132   0.00132   0.00263   0.00263   0.00172
           A3          -0.00092  -0.00092  -0.00126  -0.00126   0.00063
           A4           0.00132   0.00132   0.00263   0.00263   0.00172
           A5          -0.00092  -0.00092  -0.00126  -0.00126   0.00063
           A6           0.00827   0.00827   0.02349   0.02349   0.03346
           D1           0.01516   0.01516   0.02605   0.02605   0.00674
           D2          -0.01247  -0.01247  -0.02140  -0.02140  -0.00543
           D3          -0.00624  -0.00624  -0.01070  -0.01070  -0.00271
           D4           0.00624   0.00624   0.01070   0.01070   0.00271
                          A2        A3        A4        A5        A6
           A2           0.15999
           A3          -0.00007   0.16007
           A4          -0.00001  -0.00007   0.15999
           A5          -0.00007   0.00007  -0.00007   0.16007
           A6          -0.00107  -0.00012  -0.00107  -0.00012   0.14264
           D1           0.00041  -0.00098   0.00041  -0.00098  -0.00611
           D2          -0.00034   0.00081  -0.00034   0.00081   0.00497
           D3          -0.00017   0.00041  -0.00017   0.00041   0.00249
           D4           0.00017  -0.00041   0.00017  -0.00041  -0.00249
                          D1        D2        D3        D4
           D1           0.01231
           D2          -0.00798   0.00926
           D3          -0.00399   0.00330   0.00431
           D4           0.00399  -0.00330  -0.00165   0.00431
 ITU=  1  0
 Use linear search instead of GDIIS.
     Eigenvalues ---    0.05596   0.06912   0.09234   0.16000   0.16638
     Eigenvalues ---    0.26833   0.28257   0.34490   0.35090
 RFO step:  Lambda=-2.00579257D-06 EMin= 5.59585420D-02
 Quartic linear search produced a step of -0.01250.
 Iteration  1 RMS(Cart)=  0.00066440 RMS(Int)=  0.00000042
 Iteration  2 RMS(Cart)=  0.00000020 RMS(Int)=  0.00000037
 ITry= 1 IFail=0 DXMaxC= 1.49D-03 DCOld= 1.00D+10 DXMaxT= 3.00D-01 DXLimC= 3.00D+00 Rises=F
 ClnCor:  largest displacement from symmetrization is 1.57D-06 for atom     5.
 Variable       Old X    -DE/DX   Delta X   Delta X   Delta X     New X
                                 (Linear)    (Quad)   (Total)
    R1        3.37746   0.00048   0.00009   0.00160   0.00169   3.37915
    R2        3.37746   0.00048   0.00009   0.00160   0.00169   3.37915
    R3        2.04311  -0.00009   0.00015  -0.00052  -0.00036   2.04275
    R4        2.04311  -0.00009   0.00015  -0.00052  -0.00036   2.04275
    A1        1.96181   0.00006   0.00020  -0.00010   0.00010   1.96191
    A2        1.88584  -0.00006  -0.00001  -0.00035  -0.00036   1.88549
    A3        1.88584  -0.00006  -0.00001  -0.00035  -0.00036   1.88549
    A4        1.88584  -0.00006  -0.00001  -0.00035  -0.00036   1.88549
    A5        1.88584  -0.00006  -0.00001  -0.00035  -0.00036   1.88549
    A6        1.95998   0.00020  -0.00017   0.00154   0.00137   1.96135
    D1        2.12683   0.00000   0.00023  -0.00053  -0.00030   2.12653
    D2       -2.12683   0.00000  -0.00023   0.00053   0.00030  -2.12653
    D3        2.07818   0.00000  -0.00012   0.00027   0.00015   2.07833
    D4       -2.07818   0.00000   0.00012  -0.00027  -0.00015  -2.07833
         Item               Value     Threshold  Converged?
 Maximum Force            0.000477     0.000450     NO 
 RMS     Force            0.000194     0.000300     YES
 Maximum Displacement     0.001495     0.001800     YES
 RMS     Displacement     0.000664     0.001200     YES
 Predicted change in Energy=-1.020404D-06
 Lowest energy point so far.  Saving SCF results.
 GradGradGradGradGradGradGradGradGradGradGradGradGradGradGradGradGradGrad

 Leave Link  103 at Fri May  1 00:36:34 2020, MaxMem=   402653184 cpu:               0.2 elap:               0.1
 (Enter /n/sw/g16_nehalem/g16/l202.exe)
                          Input orientation:                          
 ---------------------------------------------------------------------
 Center     Atomic      Atomic             Coordinates (Angstroms)
 Number     Number       Type             X           Y           Z
 ---------------------------------------------------------------------
      1          6           0        0.000000    0.000000    0.776125
      2         17           0        0.000000    1.486019   -0.218505
      3         17           0        0.000000   -1.486019   -0.218505
      4          1           0       -0.898152    0.000000    1.377648
      5          1           0        0.898152    0.000000    1.377648
 ---------------------------------------------------------------------
                    Distance matrix (angstroms):
                    1          2          3          4          5
     1  C    0.000000
     2  Cl   1.788167   0.000000
     3  Cl   1.788167   2.972038   0.000000
     4  H    1.080975   2.358524   2.358524   0.000000
     5  H    1.080975   2.358524   2.358524   1.796304   0.000000
 Stoichiometry    CH2Cl2
 Framework group  C2V[C2(C),SGV(Cl2),SGV'(H2)]
 Deg. of freedom     4
 Full point group                 C2V     NOp   4
 RotChk:  IX=0 Diff= 7.22D-16
 Largest Abelian subgroup         C2V     NOp   4
 Largest concise Abelian subgroup C2V     NOp   4
                         Standard orientation:                         
 ---------------------------------------------------------------------
 Center     Atomic      Atomic             Coordinates (Angstroms)
 Number     Number       Type             X           Y           Z
 ---------------------------------------------------------------------
      1          6           0        0.000000    0.000000    0.776533
      2         17           0        0.000000    1.486019   -0.218097
      3         17           0        0.000000   -1.486019   -0.218097
      4          1           0       -0.898152    0.000000    1.378056
      5          1           0        0.898152    0.000000    1.378056
 ---------------------------------------------------------------------
 Rotational constants (GHZ):          31.7893089           3.2382373           2.9955150
 Leave Link  202 at Fri May  1 00:36:34 2020, MaxMem=   402653184 cpu:               0.0 elap:               0.0
 (Enter /n/sw/g16_nehalem/g16/l301.exe)
 Standard basis: CC-pVTZ (5D, 7F)
 Ernie: Thresh=  0.10000D-02 Tol=  0.10000D-05 Strict=F.
 Ernie:  29 primitive shells out of 162 were deleted.
 There are    54 symmetry adapted cartesian basis functions of A1  symmetry.
 There are    19 symmetry adapted cartesian basis functions of A2  symmetry.
 There are    31 symmetry adapted cartesian basis functions of B1  symmetry.
 There are    39 symmetry adapted cartesian basis functions of B2  symmetry.
 There are    46 symmetry adapted basis functions of A1  symmetry.
 There are    18 symmetry adapted basis functions of A2  symmetry.
 There are    28 symmetry adapted basis functions of B1  symmetry.
 There are    34 symmetry adapted basis functions of B2  symmetry.
   126 basis functions,   274 primitive gaussians,   143 cartesian basis functions
    21 alpha electrons       21 beta electrons
       nuclear repulsion energy       133.2533657950 Hartrees.
 IExCor=  402 DFT=T Ex+Corr=B3LYP ExCW=0 ScaHFX=  0.200000
 ScaDFX=  0.800000  0.720000  1.000000  0.810000 ScalE2=  1.000000  1.000000
 IRadAn=      5 IRanWt=     -1 IRanGd=            0 ICorTp=0 IEmpDi=141
 NAtoms=    5 NActive=    5 NUniq=    3 SFac= 2.78D+00 NAtFMM=   60 NAOKFM=F Big=F
 Integral buffers will be    131072 words long.
 Raffenetti 2 integral format.
 Two-electron integral symmetry is turned on.
 R6Disp:  Grimme-D3(BJ) Dispersion energy=       -0.0065767096 Hartrees.
 Nuclear repulsion after empirical dispersion term =      133.2467890855 Hartrees.
 ------------------------------------------------------------------------------
 Polarizable Continuum Model (PCM)
 =================================
 Model                : PCM.
 Atomic radii         : UFF (Universal Force Field).
 Polarization charges : Total charges.
 Charge compensation  : None.
 Solution method      : On-the-fly selection.
 Cavity type          : Scaled VdW (van der Waals Surface) (Alpha=1.100).
 Cavity algorithm     : GePol (No added spheres)
                        Default sphere list used, NSphG=    5.
                        Lebedev-Laikov grids with approx.  5.0 points / Ang**2.
                        Smoothing algorithm: York/Karplus (Gamma=1.0000).
                        Polarization charges: spherical gaussians, with
                                              point-specific exponents (IZeta= 3).
                        Self-potential: point-specific (ISelfS= 7).
                        Self-field    : sphere-specific E.n sum rule (ISelfD= 2).
 1st derivatives      : Analytical E(r).r(x)/FMM algorithm (CHGder, D1EAlg=3).
                        Cavity 1st derivative terms included.
 Solvent              : Chloroform, Eps=   4.711300 Eps(inf)=   2.090627
 ------------------------------------------------------------------------------
 Spheres list:
 ISph  on   Nord     Re0    Alpha      Xe            Ye            Ze
    1   C      1    1.9255  1.100      0.000000      0.000000      0.776533
    2  Cl      2    1.9735  1.100      0.000000      1.486019     -0.218097
    3  Cl      3    1.9735  1.100      0.000000     -1.486019     -0.218097
    4   H      4    1.4430  1.100     -0.898152      0.000000      1.378056
    5   H      5    1.4430  1.100      0.898152      0.000000      1.378056
 ------------------------------------------------------------------------------
 GePol: Number of generator spheres                  =       5
 GePol: Total number of spheres                      =       5
 GePol: Number of exposed spheres                    =       5 (100.00%)
 GePol: Number of points                             =     675
 GePol: Average weight of points                     =       0.17
 GePol: Minimum weight of points                     =   0.20D-06
 GePol: Maximum weight of points                     =    0.21616
 GePol: Number of points with low weight             =      34
 GePol: Fraction of low-weight points (<1% of avg)   =       5.04%
 GePol: Cavity surface area                          =    112.623 Ang**2
 GePol: Cavity volume                                =     97.092 Ang**3
 Leave Link  301 at Fri May  1 00:36:34 2020, MaxMem=   402653184 cpu:               0.3 elap:               0.1
 (Enter /n/sw/g16_nehalem/g16/l302.exe)
 NPDir=0 NMtPBC=     1 NCelOv=     1 NCel=       1 NClECP=     1 NCelD=      1
         NCelK=      1 NCelE2=     1 NClLst=     1 CellRange=     0.0.
 One-electron integrals computed using PRISM.
 One-electron integral symmetry used in STVInt
 NBasis=   126 RedAO= T EigKep=  1.72D-03  NBF=    46    18    28    34
 NBsUse=   126 1.00D-06 EigRej= -1.00D+00 NBFU=    46    18    28    34
 Precomputing XC quadrature grid using
 IXCGrd= 4 IRadAn=           5 IRanWt=          -1 IRanGd=           0 AccXCQ= 0.00D+00.
 Generated NRdTot=       0 NPtTot=           0 NUsed=           0 NTot=          32
 NSgBfM=   143   143   143   143   143 MxSgAt=     5 MxSgA2=     5.
 Leave Link  302 at Fri May  1 00:36:35 2020, MaxMem=   402653184 cpu:               0.7 elap:               0.2
 (Enter /n/sw/g16_nehalem/g16/l303.exe)
 DipDrv:  MaxL=1.
 Leave Link  303 at Fri May  1 00:36:35 2020, MaxMem=   402653184 cpu:               0.1 elap:               0.0
 (Enter /n/sw/g16_nehalem/g16/l401.exe)
 Initial guess from the checkpoint file:  "checkpoint.chk"
 B after Tr=     0.000000    0.000000    0.000000
         Rot=    1.000000    0.000000    0.000000    0.000000 Ang=   0.00 deg.
 Guess basis will be translated and rotated to current coordinates.
 JPrj=2 DoOrth=T DoCkMO=T.
 Initial guess orbital symmetries:
       Occupied  (B2) (A1) (A1) (B2) (A1) (A1) (B2) (A1) (B2) (A2)
                 (B1) (A1) (B2) (A1) (B1) (A1) (B2) (A1) (A2) (B2)
                 (B1)
       Virtual   (A1) (B2) (A1) (B1) (B2) (A1) (B1) (A1) (B2) (B1)
                 (A1) (A2) (A1) (B2) (A2) (B1) (A1) (B2) (B1) (A1)
                 (A2) (A1) (B2) (B2) (A1) (B1) (A2) (A1) (B2) (B1)
                 (A1) (B1) (B2) (A1) (B2) (A2) (A1) (B1) (A1) (B1)
                 (A1) (B2) (B2) (A2) (B1) (A1) (A2) (B2) (A1) (A1)
                 (B1) (A2) (B2) (B1) (A1) (A2) (B2) (B2) (B2) (B1)
                 (A1) (A2) (A1) (A1) (B2) (B1) (B2) (A1) (A2) (B1)
                 (A1) (B2) (B1) (A1) (B1) (A2) (B1) (A1) (A2) (B2)
                 (A1) (B1) (B2) (A1) (A2) (B1) (A1) (A1) (B2) (B2)
                 (A1) (B1) (A2) (B2) (A1) (B2) (B1) (A2) (A1) (B1)
                 (B2) (A1) (A1) (B1) (A1)
 The electronic state of the initial guess is 1-A1.
 Leave Link  401 at Fri May  1 00:36:35 2020, MaxMem=   402653184 cpu:               0.5 elap:               0.1
 (Enter /n/sw/g16_nehalem/g16/l502.exe)
 Keep R1 ints in memory in symmetry-blocked form, NReq=40102167.
 FoFCou: FMM=F IPFlag=           0 FMFlag=           0 FMFlg1=           0
         NFxFlg=           0 DoJE=F BraDBF=F KetDBF=F FulRan=T
         wScrn=  0.000000 ICntrl=       600 IOpCl=  0 I1Cent=           0 NGrid=           0
         NMat0=    1 NMatS0=   8001 NMatT0=    0 NMatD0=    1 NMtDS0=    0 NMtDT0=    0
 Petite list used in FoFCou.
 Closed shell SCF:
 Using DIIS extrapolation, IDIIS=  1040.
 NGot=   402653184 LenX=   394520721 LenY=   394499831
 Requested convergence on RMS density matrix=1.00D-08 within 128 cycles.
 Requested convergence on MAX density matrix=1.00D-06.
 Requested convergence on             energy=1.00D-06.
 No special actions if energy rises.

 Cycle   1  Pass 1  IDiag  1:
 Inv3:  Mode=1 IEnd=     1366875.
 Iteration    1 A*A^-1 deviation from unit magnitude is 3.66D-15 for    669.
 Iteration    1 A*A^-1 deviation from orthogonality  is 2.54D-15 for    202     52.
 Iteration    1 A^-1*A deviation from unit magnitude is 3.55D-15 for    669.
 Iteration    1 A^-1*A deviation from orthogonality  is 1.51D-15 for    188    108.
 E= -959.799099404860    
 DIIS: error= 5.35D-05 at cycle   1 NSaved=   1.
 NSaved= 1 IEnMin= 1 EnMin= -959.799099404860     IErMin= 1 ErrMin= 5.35D-05
 ErrMax= 5.35D-05  0.00D+00 EMaxC= 1.00D-01 BMatC= 3.30D-07 BMatP= 3.30D-07
 IDIUse=1 WtCom= 1.00D+00 WtEn= 0.00D+00
 Coeff-Com:  0.100D+01
 Coeff:      0.100D+01
 Gap=     0.294 Goal=   None    Shift=    0.000
 RMSDP=4.91D-06 MaxDP=7.58D-05              OVMax= 2.32D-04

 Cycle   2  Pass 1  IDiag  1:
 E= -959.799099777071     Delta-E=       -0.000000372211 Rises=F Damp=F
 DIIS: error= 2.46D-05 at cycle   2 NSaved=   2.
 NSaved= 2 IEnMin= 2 EnMin= -959.799099777071     IErMin= 2 ErrMin= 2.46D-05
 ErrMax= 2.46D-05  0.00D+00 EMaxC= 1.00D-01 BMatC= 4.54D-08 BMatP= 3.30D-07
 IDIUse=1 WtCom= 1.00D+00 WtEn= 0.00D+00
 Coeff-Com:  0.154D+00 0.846D+00
 Coeff:      0.154D+00 0.846D+00
 Gap=     0.294 Goal=   None    Shift=    0.000
 RMSDP=1.98D-06 MaxDP=5.04D-05 DE=-3.72D-07 OVMax= 1.28D-04

 Cycle   3  Pass 1  IDiag  1:
 E= -959.799099760964     Delta-E=        0.000000016108 Rises=F Damp=F
 DIIS: error= 2.97D-05 at cycle   3 NSaved=   3.
 NSaved= 3 IEnMin= 2 EnMin= -959.799099777071     IErMin= 2 ErrMin= 2.46D-05
 ErrMax= 2.97D-05  0.00D+00 EMaxC= 1.00D-01 BMatC= 6.16D-08 BMatP= 4.54D-08
 IDIUse=1 WtCom= 1.00D+00 WtEn= 0.00D+00
 Coeff-Com: -0.189D-01 0.544D+00 0.475D+00
 Coeff:     -0.189D-01 0.544D+00 0.475D+00
 Gap=     0.294 Goal=   None    Shift=    0.000
 RMSDP=1.09D-06 MaxDP=2.49D-05 DE= 1.61D-08 OVMax= 7.98D-05

 Cycle   4  Pass 1  IDiag  1:
 E= -959.799099822566     Delta-E=       -0.000000061602 Rises=F Damp=F
 DIIS: error= 1.73D-06 at cycle   4 NSaved=   4.
 NSaved= 4 IEnMin= 4 EnMin= -959.799099822566     IErMin= 4 ErrMin= 1.73D-06
 ErrMax= 1.73D-06  0.00D+00 EMaxC= 1.00D-01 BMatC= 3.06D-10 BMatP= 4.54D-08
 IDIUse=1 WtCom= 1.00D+00 WtEn= 0.00D+00
 Coeff-Com: -0.940D-02 0.142D+00 0.152D+00 0.716D+00
 Coeff:     -0.940D-02 0.142D+00 0.152D+00 0.716D+00
 Gap=     0.294 Goal=   None    Shift=    0.000
 RMSDP=1.12D-07 MaxDP=2.20D-06 DE=-6.16D-08 OVMax= 5.86D-06

 Cycle   5  Pass 1  IDiag  1:
 E= -959.799099822832     Delta-E=       -0.000000000266 Rises=F Damp=F
 DIIS: error= 3.59D-07 at cycle   5 NSaved=   5.
 NSaved= 5 IEnMin= 5 EnMin= -959.799099822832     IErMin= 5 ErrMin= 3.59D-07
 ErrMax= 3.59D-07  0.00D+00 EMaxC= 1.00D-01 BMatC= 2.59D-11 BMatP= 3.06D-10
 IDIUse=1 WtCom= 1.00D+00 WtEn= 0.00D+00
 Coeff-Com: -0.157D-02 0.831D-02 0.200D-01 0.262D+00 0.711D+00
 Coeff:     -0.157D-02 0.831D-02 0.200D-01 0.262D+00 0.711D+00
 Gap=     0.294 Goal=   None    Shift=    0.000
 RMSDP=3.30D-08 MaxDP=7.56D-07 DE=-2.66D-10 OVMax= 1.33D-06

 Cycle   6  Pass 1  IDiag  1:
 E= -959.799099822859     Delta-E=       -0.000000000026 Rises=F Damp=F
 DIIS: error= 4.84D-08 at cycle   6 NSaved=   6.
 NSaved= 6 IEnMin= 6 EnMin= -959.799099822859     IErMin= 6 ErrMin= 4.84D-08
 ErrMax= 4.84D-08  0.00D+00 EMaxC= 1.00D-01 BMatC= 4.18D-13 BMatP= 2.59D-11
 IDIUse=1 WtCom= 1.00D+00 WtEn= 0.00D+00
 Coeff-Com: -0.907D-05-0.415D-02-0.212D-02 0.291D-01 0.158D+00 0.820D+00
 Coeff:     -0.907D-05-0.415D-02-0.212D-02 0.291D-01 0.158D+00 0.820D+00
 Gap=     0.294 Goal=   None    Shift=    0.000
 RMSDP=6.63D-09 MaxDP=1.34D-07 DE=-2.61D-11 OVMax= 3.38D-07

 Error on total polarization charges =  0.00950
 SCF Done:  E(RB3LYP) =  -959.799099823     A.U. after    6 cycles
            NFock=  6  Conv=0.66D-08     -V/T= 2.0029
 KE= 9.570179119436D+02 PE=-2.545402140058D+03 EE= 4.953383392065D+02
 Leave Link  502 at Fri May  1 00:36:40 2020, MaxMem=   402653184 cpu:              18.4 elap:               4.7
 (Enter /n/sw/g16_nehalem/g16/l701.exe)
 ... and contract with generalized density number  0.
 Compute integral first derivatives.
 R6Disp: Adding Grimme-D3(BJ) dispersion energy 1st derivatives to the gradient.
 D1PCM: PCM CHGder 1st derivatives, ID1Alg=3 FixD1E=F DoIter=F DoCFld=F I1PDM=0.
 GePol: Maximum number of non-zero 1st derivatives   =     259
 Leave Link  701 at Fri May  1 00:36:41 2020, MaxMem=   402653184 cpu:               4.1 elap:               1.0
 (Enter /n/sw/g16_nehalem/g16/l702.exe)
 L702 exits ... SP integral derivatives will be done elsewhere.
 Leave Link  702 at Fri May  1 00:36:41 2020, MaxMem=   402653184 cpu:               0.1 elap:               0.0
 (Enter /n/sw/g16_nehalem/g16/l703.exe)
 Integral derivatives from FoFJK, PRISM(SPDF).
 Compute integral first derivatives, UseDBF=F ICtDFT=           0.
 Calling FoFJK, ICntrl=      2127 FMM=F ISym2X=1 I1Cent= 0 IOpClX= 0 NMat=1 NMatS=1 NMatT=0.
 FoFJK:  IHMeth= 1 ICntrl=    2127 DoSepK=F KAlg= 0 I1Cent=           0 FoldK=F
 IRaf=         0 NMat=       1 IRICut=       1 DoRegI=T DoRafI=F ISym2E= 1 IDoP0=0 IntGTp=1.
 FoFCou: FMM=F IPFlag=           0 FMFlag=      100000 FMFlg1=         800
         NFxFlg=           0 DoJE=F BraDBF=F KetDBF=F FulRan=T
         wScrn=  0.000000 ICntrl=      2127 IOpCl=  0 I1Cent=           0 NGrid=           0
         NMat0=    1 NMatS0=      1 NMatT0=    0 NMatD0=    1 NMtDS0=    0 NMtDT0=    0
 Petite list used in FoFCou.
 Leave Link  703 at Fri May  1 00:36:42 2020, MaxMem=   402653184 cpu:               6.5 elap:               1.6
 (Enter /n/sw/g16_nehalem/g16/l716.exe)
 Dipole        = 0.00000000D+00-2.07854549D-16 7.97401964D-01
 ***** Axes restored to original set *****
 -------------------------------------------------------------------
 Center     Atomic                   Forces (Hartrees/Bohr)
 Number     Number              X              Y              Z
 -------------------------------------------------------------------
      1        6           0.000000000    0.000000000    0.000251468
      2       17           0.000000000    0.000105623   -0.000071745
      3       17           0.000000000   -0.000105623   -0.000071745
      4        1          -0.000043693    0.000000000   -0.000053989
      5        1           0.000043693    0.000000000   -0.000053989
 -------------------------------------------------------------------
 Cartesian Forces:  Max     0.000251468 RMS     0.000083861
 Leave Link  716 at Fri May  1 00:36:43 2020, MaxMem=   402653184 cpu:               0.1 elap:               0.0
 (Enter /n/sw/g16_nehalem/g16/l103.exe)

 GradGradGradGradGradGradGradGradGradGradGradGradGradGradGradGradGradGrad
 Berny optimization.
 Using GEDIIS/GDIIS optimizer.
 FormGI is forming the generalized inverse of G from B-inverse, IUseBI=4.
 Internal  Forces:  Max     0.000127682 RMS     0.000057957
 Search for a local minimum.
 Step number   3 out of a maximum of   24
 All quantities printed in internal units (Hartrees-Bohrs-Radians)
 RMS Force = .57957D-04 SwitMx=.10000D-02 MixMth= 2
 Mixed Optimization -- En-DIIS/RFO-DIIS
 Swapping is turned off.
 Update second derivatives using D2CorX and points    1    2    3
 DE= -1.33D-06 DEPred=-1.02D-06 R= 1.30D+00
 TightC=F SS=  1.41D+00  RLast= 2.93D-03 DXNew= 5.0454D-01 8.7955D-03
 Trust test= 1.30D+00 RLast= 2.93D-03 DXMaxT set to 3.00D-01
 The second derivative matrix:
                          R1        R2        R3        R4        A1
           R1           0.25140
           R2          -0.01692   0.25140
           R3           0.00476   0.00476   0.34993
           R4           0.00476   0.00476  -0.00097   0.34993
           A1          -0.01539  -0.01539  -0.05543  -0.05543   0.18872
           A2           0.00611   0.00611   0.00233   0.00233   0.00122
           A3           0.00384   0.00384  -0.00151  -0.00151   0.00009
           A4           0.00611   0.00611   0.00233   0.00233   0.00122
           A5           0.00384   0.00384  -0.00151  -0.00151   0.00009
           A6          -0.01793  -0.01793   0.02736   0.02736   0.03451
           D1           0.01556   0.01556   0.02570   0.02570   0.00695
           D2          -0.01286  -0.01286  -0.02109  -0.02109  -0.00561
           D3          -0.00643  -0.00643  -0.01054  -0.01054  -0.00280
           D4           0.00643   0.00643   0.01054   0.01054   0.00280
                          A2        A3        A4        A5        A6
           A2           0.15923
           A3          -0.00083   0.15932
           A4          -0.00077  -0.00083   0.15923
           A5          -0.00083  -0.00068  -0.00083   0.15932
           A6           0.00264   0.00363   0.00264   0.00363   0.12587
           D1           0.00041  -0.00099   0.00041  -0.00099  -0.00632
           D2          -0.00033   0.00082  -0.00033   0.00082   0.00513
           D3          -0.00017   0.00041  -0.00017   0.00041   0.00256
[...]
 
                                                        H4,H5:5.280@C1:53.700
                                                             IR Spectrum
 
     3   3                                                                 1      1   1                                              
     2   1                                                                 4      2   1          9      66               2           
     1   3                                                                 5      8   7          0      99               7           
     3   2                                                                 6      7   2          0      94               8           
 
     X   X                                                                 X      X              X      XX               X           
                                                                                  X                     XX                           
                                                                                  X                     X                            
                                                                                  X                     X                            
                                                                                  X                     X                            
                                                                                                        X                            
                                                                                                        X                            
                                                                                                        X                            
                                                                                                        X                            
                                                                                                        X                            
                                                                                                        X                            
                                                                                                        X                            
                                                                                                        X                            
                                                                                                        X                            
                                                                                                        X                            
                                                                                                        X                            
                                                                                                        X                            
                                                                                                        X                            
                                                                                                        X                            
                                                                                                        X                            
 
 ***** Axes restored to original set *****
 -------------------------------------------------------------------
 Center     Atomic                   Forces (Hartrees/Bohr)
 Number     Number              X              Y              Z
 -------------------------------------------------------------------
      1        6           0.000000000    0.000000000    0.000251447
      2       17           0.000000000    0.000105612   -0.000071730
      3       17           0.000000000   -0.000105612   -0.000071730
      4        1          -0.000043693    0.000000000   -0.000053994
      5        1           0.000043693    0.000000000   -0.000053994
 -------------------------------------------------------------------
 Cartesian Forces:  Max     0.000251447 RMS     0.000083854
 Force constants in Cartesian coordinates: 
                1             2             3             4             5 
      1  0.597199D+00
      2  0.000000D+00  0.222142D+00
      3  0.000000D+00  0.000000D+00  0.412862D+00
      4 -0.375995D-01  0.000000D+00  0.000000D+00  0.221283D-01
      5  0.000000D+00 -0.776266D-01  0.593073D-01  0.000000D+00  0.143146D+00
      6  0.000000D+00  0.384106D-01 -0.747882D-01  0.000000D+00 -0.790226D-01
      7 -0.375995D-01  0.000000D+00  0.000000D+00  0.334837D-02  0.000000D+00
      8  0.000000D+00 -0.776266D-01 -0.593073D-01  0.000000D+00 -0.406970D-01
      9  0.000000D+00 -0.384106D-01 -0.747882D-01  0.000000D+00 -0.442067D-03
     10 -0.261000D+00  0.000000D+00  0.132922D+00  0.606140D-02  0.197286D-02
     11  0.000000D+00 -0.334443D-01  0.000000D+00 -0.156611D-01 -0.124110D-01
     12  0.133243D+00  0.000000D+00 -0.131643D+00  0.100168D-01  0.100787D-01
     13 -0.261000D+00  0.000000D+00 -0.132922D+00  0.606140D-02 -0.197286D-02
     14  0.000000D+00 -0.334443D-01  0.000000D+00  0.156611D-01 -0.124110D-01
     15 -0.133243D+00  0.000000D+00 -0.131643D+00 -0.100168D-01  0.100787D-01
                6             7             8             9            10 
      6  0.816915D-01
      7  0.000000D+00  0.221283D-01
      8  0.442067D-03  0.000000D+00  0.143146D+00
      9  0.130801D-01  0.000000D+00  0.790226D-01  0.816915D-01
     10 -0.397686D-02  0.606140D-02 -0.197286D-02 -0.397686D-02  0.265429D+00
     11  0.200849D-01  0.156611D-01 -0.124110D-01 -0.200849D-01  0.000000D+00
     12 -0.999173D-02  0.100168D-01 -0.100787D-01 -0.999173D-02 -0.139122D+00
     13  0.397686D-02  0.606140D-02  0.197286D-02  0.397686D-02 -0.165518D-01
     14  0.200849D-01 -0.156611D-01 -0.124110D-01 -0.200849D-01  0.000000D+00
     15 -0.999173D-02 -0.100168D-01 -0.100787D-01 -0.999173D-02  0.141542D-01
               11            12            13            14            15 
     11  0.550540D-01
     12  0.000000D+00  0.138193D+00
     13  0.000000D+00 -0.141542D-01  0.265429D+00
     14  0.321222D-02  0.000000D+00  0.000000D+00  0.550540D-01
     15  0.000000D+00  0.134333D-01  0.139122D+00  0.000000D+00  0.138193D+00
 FormGI is forming the generalized inverse of G from B-inverse, IUseBI=4.
 Force constants in internal coordinates: 
                1             2             3             4             5 
      1  0.197197D+00
      2  0.325522D-01  0.197197D+00
      3  0.455325D-02  0.455325D-02  0.354678D+00
      4  0.455325D-02  0.455325D-02  0.249705D-02  0.354678D+00
      5  0.327731D-02  0.327731D-02  0.158148D-02  0.140946D-02  0.302630D-01
      6  0.962511D-02 -0.865710D-03 -0.220382D-02 -0.331544D-02 -0.924189D-02
      7  0.176981D-01 -0.115571D-01 -0.313103D-02 -0.197529D-02 -0.168201D-01
      8 -0.865710D-03  0.962512D-02 -0.220382D-02 -0.331544D-02 -0.924189D-02
      9 -0.115571D-01  0.176981D-01 -0.313103D-02 -0.197529D-02 -0.168201D-01
     10 -0.186082D-01 -0.186082D-01  0.939412D-02  0.947545D-02  0.233417D-01
     11  0.907140D-02  0.907140D-02 -0.676453D-03 -0.218476D-02  0.256043D-01
     12 -0.753880D-02 -0.753880D-02  0.176186D-02  0.615956D-03 -0.167331D-01
     13  0.122600D-01 -0.197988D-01  0.880930D-03  0.307978D-03 -0.836653D-02
     14  0.197988D-01 -0.122600D-01 -0.880930D-03 -0.307978D-03  0.836653D-02
                6             7             8             9            10 
      6  0.447502D-01
      7 -0.298326D-01  0.839070D-01
      8  0.921535D-03  0.208120D-01  0.447502D-01
      9  0.208120D-01 -0.333825D-01 -0.298326D-01  0.839070D-01
     10 -0.284577D-01 -0.258670D-01 -0.284577D-01 -0.258670D-01  0.884181D-01
     11  0.156091D-01 -0.255238D-01  0.156091D-01 -0.255238D-01 -0.522023D-02
     12  0.164030D-01 -0.932858D-02  0.164030D-01 -0.932858D-02  0.218754D-02
     13  0.188059D-01  0.224391D-02 -0.240292D-02 -0.115725D-01  0.109377D-02
     14  0.240292D-02  0.115725D-01 -0.188059D-01 -0.224391D-02 -0.109377D-02
               11            12            13            14 
     11  0.490886D-01
     12 -0.937427D-03  0.310594D-01
     13 -0.468714D-03  0.155297D-01  0.253917D-01
     14  0.468714D-03 -0.155297D-01  0.986202D-02  0.253917D-01
 Leave Link  716 at Fri May  1 00:37:22 2020, MaxMem=   402653184 cpu:               0.3 elap:               0.1
 (Enter /n/sw/g16_nehalem/g16/l103.exe)

 GradGradGradGradGradGradGradGradGradGradGradGradGradGradGradGradGradGrad
 Berny optimization.
 Red2BG is reusing G-inverse.
 Internal  Forces:  Max     0.000127665 RMS     0.000057953
 Search for a local minimum.
 Step number   1 out of a maximum of    2
 All quantities printed in internal units (Hartrees-Bohrs-Radians)
 Second derivative matrix not updated -- analytic derivatives used.
 The second derivative matrix:
                          R1        R2        R3        R4        A1
           R1           0.19720
           R2           0.03255   0.19720
           R3           0.00455   0.00455   0.35468
           R4           0.00455   0.00455   0.00250   0.35468
           A1           0.00328   0.00328   0.00158   0.00141   0.03026
           A2           0.00963  -0.00087  -0.00220  -0.00332  -0.00924
           A3           0.01770  -0.01156  -0.00313  -0.00198  -0.01682
           A4          -0.00087   0.00963  -0.00220  -0.00332  -0.00924
           A5          -0.01156   0.01770  -0.00313  -0.00198  -0.01682
           A6          -0.01861  -0.01861   0.00939   0.00948   0.02334
           D1           0.00907   0.00907  -0.00068  -0.00218   0.02560
           D2          -0.00754  -0.00754   0.00176   0.00062  -0.01673
           D3           0.01226  -0.01980   0.00088   0.00031  -0.00837
           D4           0.01980  -0.01226  -0.00088  -0.00031   0.00837
                          A2        A3        A4        A5        A6
           A2           0.04475
           A3          -0.02983   0.08391
           A4           0.00092   0.02081   0.04475
           A5           0.02081  -0.03338  -0.02983   0.08391
           A6          -0.02846  -0.02587  -0.02846  -0.02587   0.08842
           D1           0.01561  -0.02552   0.01561  -0.02552  -0.00522
           D2           0.01640  -0.00933   0.01640  -0.00933   0.00219
           D3           0.01881   0.00224  -0.00240  -0.01157   0.00109
           D4           0.00240   0.01157  -0.01881  -0.00224  -0.00109
                          D1        D2        D3        D4
           D1           0.04909
           D2          -0.00094   0.03106
           D3          -0.00047   0.01553   0.02539
           D4           0.00047  -0.01553   0.00986   0.02539
 ITU=  0
     Eigenvalues ---    0.04061   0.06345   0.10517   0.13199   0.13331
     Eigenvalues ---    0.18710   0.23818   0.35220   0.35866
 Angle between quadratic step and forces=  28.55 degrees.
 Linear search not attempted -- first point.
 Iteration  1 RMS(Cart)=  0.00036075 RMS(Int)=  0.00000016
 Iteration  2 RMS(Cart)=  0.00000015 RMS(Int)=  0.00000005
 ITry= 1 IFail=0 DXMaxC= 6.84D-04 DCOld= 1.00D+10 DXMaxT= 3.00D-01 DXLimC= 3.00D+00 Rises=F
 ClnCor:  largest displacement from symmetrization is 3.78D-08 for atom     5.
 Variable       Old X    -DE/DX   Delta X   Delta X   Delta X     New X
                                 (Linear)    (Quad)   (Total)
    R1        3.37915   0.00013   0.00000   0.00072   0.00072   3.37986
    R2        3.37915   0.00013   0.00000   0.00072   0.00072   3.37986
    R3        2.04275   0.00001   0.00000  -0.00004  -0.00004   2.04270
    R4        2.04275   0.00001   0.00000  -0.00004  -0.00004   2.04270
    A1        1.96191   0.00001   0.00000  -0.00021  -0.00021   1.96171
    A2        1.88549  -0.00003   0.00000  -0.00024  -0.00024   1.88525
    A3        1.88549  -0.00003   0.00000  -0.00024  -0.00024   1.88525
    A4        1.88549  -0.00003   0.00000  -0.00024  -0.00024   1.88525
    A5        1.88549  -0.00003   0.00000  -0.00024  -0.00024   1.88525
    A6        1.96135   0.00010   0.00000   0.00118   0.00118   1.96252
    D1        2.12653  -0.00002   0.00000  -0.00052  -0.00052   2.12600
    D2       -2.12653   0.00002   0.00000   0.00052   0.00052  -2.12600
    D3        2.07833   0.00001   0.00000   0.00026   0.00026   2.07859
    D4       -2.07833  -0.00001   0.00000  -0.00026  -0.00026  -2.07859
         Item               Value     Threshold  Converged?
 Maximum Force            0.000128     0.000450     YES
 RMS     Force            0.000058     0.000300     YES
 Maximum Displacement     0.000684     0.001800     YES
 RMS     Displacement     0.000361     0.001200     YES
 Predicted change in Energy=-1.746832D-07
 Optimization completed.
    -- Stationary point found.
                           ----------------------------
                           !   Optimized Parameters   !
                           ! (Angstroms and Degrees)  !
 --------------------------                            --------------------------
 ! Name  Definition              Value          Derivative Info.                !
 --------------------------------------------------------------------------------
 ! R1    R(1,2)                  1.7882         -DE/DX =    0.0001              !
 ! R2    R(1,3)                  1.7882         -DE/DX =    0.0001              !
 ! R3    R(1,4)                  1.081          -DE/DX =    0.0                 !
 ! R4    R(1,5)                  1.081          -DE/DX =    0.0                 !
 ! A1    A(2,1,3)              112.4092         -DE/DX =    0.0                 !
 ! A2    A(2,1,4)              108.0304         -DE/DX =    0.0                 !
 ! A3    A(2,1,5)              108.0304         -DE/DX =    0.0                 !
 ! A4    A(3,1,4)              108.0304         -DE/DX =    0.0                 !
 ! A5    A(3,1,5)              108.0304         -DE/DX =    0.0                 !
 ! A6    A(4,1,5)              112.3769         -DE/DX =    0.0001              !
 ! D1    D(2,1,4,3)            121.8411         -DE/DX =    0.0                 !
 ! D2    D(2,1,5,3)           -121.8411         -DE/DX =    0.0                 !
 ! D3    D(2,1,5,4)            119.0795         -DE/DX =    0.0                 !
 ! D4    D(3,1,5,4)           -119.0795         -DE/DX =    0.0                 !
 --------------------------------------------------------------------------------
 GradGradGradGradGradGradGradGradGradGradGradGradGradGradGradGradGradGrad

 Leave Link  103 at Fri May  1 00:37:22 2020, MaxMem=   402653184 cpu:               0.1 elap:               0.1
 (Enter /n/sw/g16_nehalem/g16/l9999.exe)

 ----------------------------------------------------------------------

 Electric dipole moment (input orientation):
 (Debye = 10**-18 statcoulomb cm , SI units = C m)
                  (au)            (Debye)         (10**-30 SI)
   Tot        0.797403D+00      0.202680D+01      0.676066D+01
   x          0.000000D+00      0.000000D+00      0.000000D+00
   y          0.000000D+00      0.000000D+00      0.000000D+00
   z          0.797403D+00      0.202680D+01      0.676066D+01

 Dipole polarizability, Alpha (input orientation).
 (esu units = cm**3 , SI units = C**2 m**2 J**-1)
 Alpha(0;0):
               (au)            (10**-24 esu)      (10**-40 SI)
   iso        0.417324D+02      0.618411D+01      0.688075D+01
   aniso      0.253246D+02      0.375272D+01      0.417546D+01
   xx         0.299396D+02      0.443659D+01      0.493637D+01
   yx         0.000000D+00      0.000000D+00      0.000000D+00
   yy         0.580919D+02      0.860833D+01      0.957806D+01
   zx         0.000000D+00      0.000000D+00      0.000000D+00
   zy         0.000000D+00      0.000000D+00      0.000000D+00
   zz         0.371658D+02      0.550740D+01      0.612781D+01

 ----------------------------------------------------------------------

 Dipole orientation:
     6          0.00000000          0.00000000          1.46666369
    17          0.00000000          2.80816888         -0.41291445
    17          0.00000000         -2.80816888         -0.41291445
     1         -1.69726120          0.00000000          2.60337727
     1          1.69726120          0.00000000          2.60337727

 Electric dipole moment (dipole orientation):
 (Debye = 10**-18 statcoulomb cm , SI units = C m)
                  (au)            (Debye)         (10**-30 SI)
   Tot        0.797403D+00      0.202680D+01      0.676066D+01
   x          0.000000D+00      0.000000D+00      0.000000D+00
   y          0.000000D+00      0.000000D+00      0.000000D+00
   z          0.797403D+00      0.202680D+01      0.676066D+01

 Dipole polarizability, Alpha (dipole orientation).
 (esu units = cm**3 , SI units = C**2 m**2 J**-1)
 Alpha(0;0):
               (au)            (10**-24 esu)      (10**-40 SI)
   iso        0.417324D+02      0.618411D+01      0.688075D+01
   aniso      0.253246D+02      0.375272D+01      0.417546D+01
   xx         0.299396D+02      0.443659D+01      0.493637D+01
   yx         0.000000D+00      0.000000D+00      0.000000D+00
   yy         0.580919D+02      0.860833D+01      0.957806D+01
   zx         0.000000D+00      0.000000D+00      0.000000D+00
   zy         0.000000D+00      0.000000D+00      0.000000D+00
   zz         0.371658D+02      0.550740D+01      0.612781D+01

 ----------------------------------------------------------------------
 1\1\GINC-HOLYSTAT13\Freq\RB3LYP\CC-pVTZ\C1H2Cl2\EKWAN\01-May-2020\0\\#
 P Geom=AllCheck Guess=TCheck SCRF=Check GenChk RB3LYP/CC-pVTZ Freq\\H4
 ,H5:5.280@C1:53.700\\0,1\C,0.,0.,0.7761250018\Cl,0.,1.4860189748,-0.21
 85049188\Cl,0.,-1.4860189748,-0.2185049188\H,-0.8981519476,0.,1.377647
 9236\H,0.8981519476,0.,1.3776479236\\Version=ES64L-G16RevA.03\State=1-
 A1\HF=-959.7990998\RMSD=1.287e-09\RMSF=8.385e-05\ZeroPoint=0.0292321\T
 hermal=0.0328312\Dipole=0.,0.,0.7974026\DipoleDeriv=0.1699321,0.,0.,0.
 ,1.6555969,0.,0.,0.,0.473324,-0.140341,0.,0.,0.,-0.7408507,0.119535,0.
 ,0.3194747,-0.2435088,-0.140341,0.,0.,0.,-0.7408507,-0.119535,0.,-0.31
 94747,-0.2435088,0.055375,0.,0.0457373,0.,-0.0869478,0.,0.0393455,0.,0
 .0068468,0.055375,0.,-0.0457373,0.,-0.0869478,0.,-0.0393455,0.,0.00684
 68\Polar=29.9396014,0.,58.0918778,0.,0.,37.1657711\Quadrupole=0.325982
 1,-1.9611152,1.6351331,0.,0.,0.\PG=C02V [C2(C1),SGV(Cl2),SGV'(H2)]\NIm
 ag=0\\0.59719928,0.,0.22214174,0.,0.,0.41286202,-0.03759949,0.,0.,0.02
 212833,0.,-0.07762658,0.05930733,0.,0.14314551,0.,0.03841064,-0.074788
 21,0.,-0.07902257,0.08169154,-0.03759949,0.,0.,0.00334837,0.,0.,0.0221
 2833,0.,-0.07762658,-0.05930733,0.,-0.04069700,0.00044207,0.,0.1431455
 1,0.,-0.03841064,-0.07478821,0.,-0.00044207,0.01308013,0.,0.07902257,0
 .08169154,-0.26100015,0.,0.13292197,0.00606140,0.00197286,-0.00397686,
 0.00606140,-0.00197286,-0.00397686,0.26542921,0.,-0.03344429,0.,-0.015
 66110,-0.01241096,0.02008493,0.01566110,-0.01241096,-0.02008493,0.,0.0
 5505399,0.13324306,0.,-0.13164280,0.01001680,0.01007865,-0.00999173,0.
 01001680,-0.01007865,-0.00999173,-0.13912245,0.,0.13819297,-0.26100015
 ,0.,-0.13292197,0.00606140,-0.00197286,0.00397686,0.00606140,0.0019728
 6,0.00397686,-0.01655185,0.,-0.01415421,0.26542921,0.,-0.03344429,0.,0
 .01566110,-0.01241096,0.02008493,-0.01566110,-0.01241096,-0.02008493,0
 .,0.00321222,0.,0.,0.05505399,-0.13324306,0.,-0.13164280,-0.01001680,0
 .01007865,-0.00999173,-0.01001680,-0.01007865,-0.00999173,0.01415421,0
 .,0.01343330,0.13912245,0.,0.13819297\\0.,0.,-0.00025145,0.,-0.0001056
 1,0.00007173,0.,0.00010561,0.00007173,0.00004369,0.,0.00005399,-0.0000
 4369,0.,0.00005399\\\@


 THE DIFFERENCE BETWEEN A NOOSE AND A HALO IS ONLY 12 INCHES.
 Job cpu time:       0 days  0 hours  2 minutes 26.1 seconds.
 Elapsed time:       0 days  0 hours  0 minutes 37.1 seconds.
 File lengths (MBytes):  RWF=     21 Int=      0 D2E=      0 Chk=      5 Scr=      1
 Normal termination of Gaussian 16 at Fri May  1 00:37:22 2020.
