 Entering Gaussian System, Link 0=g16
 Input=Me2N-tBu-S-CF3_E_free_b3lyp_631gd.gjf
 Output=Me2N-tBu-S-CF3_E_free_b3lyp_631gd.out
 Initial command:
 /n/sw/g16_nehalem/g16/l1.exe "/scratch/cwagen_Me2N-tBu-S-CF3_E_free_b3lyp_631gd/Gau-169852.inp" -scrdir="/scratch/cwagen_Me2N-tBu-S-CF3_E_free_b3lyp_631gd/"
 Entering Link 1 = /n/sw/g16_nehalem/g16/l1.exe PID=    169853.
  
 Copyright (c) 1988,1990,1992,1993,1995,1998,2003,2009,2016,
            Gaussian, Inc.  All Rights Reserved.
  
 This is part of the Gaussian(R) 16 program.  It is based on
 the Gaussian(R) 09 system (copyright 2009, Gaussian, Inc.),
 the Gaussian(R) 03 system (copyright 2003, Gaussian, Inc.),
 the Gaussian(R) 98 system (copyright 1998, Gaussian, Inc.),
 the Gaussian(R) 94 system (copyright 1995, Gaussian, Inc.),
 the Gaussian 92(TM) system (copyright 1992, Gaussian, Inc.),
 the Gaussian 90(TM) system (copyright 1990, Gaussian, Inc.),
 the Gaussian 88(TM) system (copyright 1988, Gaussian, Inc.),
 the Gaussian 86(TM) system (copyright 1986, Carnegie Mellon
 University), and the Gaussian 82(TM) system (copyright 1983,
 Carnegie Mellon University). Gaussian is a federally registered
 trademark of Gaussian, Inc.
  
 This software contains proprietary and confidential information,
 including trade secrets, belonging to Gaussian, Inc.
  
 This software is provided under written license and may be
 used, copied, transmitted, or stored only in accord with that
 written license.
  
 The following legend is applicable only to US Government
 contracts under FAR:
  
                    RESTRICTED RIGHTS LEGEND
  
 Use, reproduction and disclosure by the US Government is
 subject to restrictions as set forth in subparagraphs (a)
 and (c) of the Commercial Computer Software - Restricted
 Rights clause in FAR 52.227-19.
  
 Gaussian, Inc.
 340 Quinnipiac St., Bldg. 40, Wallingford CT 06492
  
  
 ---------------------------------------------------------------
 Warning -- This program may not be used in any manner that
 competes with the business of Gaussian, Inc. or will provide
 assistance to any competitor of Gaussian, Inc.  The licensee
 of this program is prohibited from giving any competitor of
 Gaussian, Inc. access to this program.  By using this program,
 the user acknowledges that Gaussian, Inc. is engaged in the
 business of creating and licensing software in the field of
 computational chemistry and represents and warrants to the
 licensee that it is not a competitor of Gaussian, Inc. and that
 it will not use this program in any manner prohibited above.
 ---------------------------------------------------------------
  

 Cite this work as:
 Gaussian 16, Revision A.03,
 M. J. Frisch, G. W. Trucks, H. B. Schlegel, G. E. Scuseria, 
 M. A. Robb, J. R. Cheeseman, G. Scalmani, V. Barone, 
 G. A. Petersson, H. Nakatsuji, X. Li, M. Caricato, A. V. Marenich, 
 J. Bloino, B. G. Janesko, R. Gomperts, B. Mennucci, H. P. Hratchian, 
 J. V. Ortiz, A. F. Izmaylov, J. L. Sonnenberg, D. Williams-Young, 
 F. Ding, F. Lipparini, F. Egidi, J. Goings, B. Peng, A. Petrone, 
 T. Henderson, D. Ranasinghe, V. G. Zakrzewski, J. Gao, N. Rega, 
 G. Zheng, W. Liang, M. Hada, M. Ehara, K. Toyota, R. Fukuda, 
 J. Hasegawa, M. Ishida, T. Nakajima, Y. Honda, O. Kitao, H. Nakai, 
 T. Vreven, K. Throssell, J. A. Montgomery, Jr., J. E. Peralta, 
 F. Ogliaro, M. J. Bearpark, J. J. Heyd, E. N. Brothers, K. N. Kudin, 
 V. N. Staroverov, T. A. Keith, R. Kobayashi, J. Normand, 
 K. Raghavachari, A. P. Rendell, J. C. Burant, S. S. Iyengar, 
 J. Tomasi, M. Cossi, J. M. Millam, M. Klene, C. Adamo, R. Cammi, 
 J. W. Ochterski, R. L. Martin, K. Morokuma, O. Farkas, 
 J. B. Foresman, and D. J. Fox, Gaussian, Inc., Wallingford CT, 2016.
 
 ******************************************
 Gaussian 16:  ES64L-G16RevA.03 25-Dec-2016
                24-Sep-2019 
 ******************************************
 %nprocshared=16
 Will use up to   16 processors via shared memory.
 %mem=50GB
 ----------------------------------------------------------------------
 #p opt freq=noraman b3lyp/6-31g(d) empiricaldispersion=gd3bj scrf=(smd
 ,solvent=diethylether)
 ----------------------------------------------------------------------
 1/18=20,19=15,26=3,38=1/1,3;
 2/9=110,12=2,17=6,18=5,40=1/2;
 3/5=1,6=6,7=1,11=2,25=1,30=1,70=32201,71=1,72=8,74=-5,124=41/1,2,3;
 4//1;
 5/5=2,38=5,53=8/2;
 6/7=2,8=2,9=2,10=2,28=1/1;
 7//1,2,3,16;
 1/18=20,19=15,26=3/3(2);
 2/9=110/2;
 99//99;
 2/9=110/2;
 3/5=1,6=6,7=1,11=2,25=1,30=1,70=32205,71=1,72=8,74=-5,124=41/1,2,3;
 4/5=5,16=3,69=1/1;
 5/5=2,38=5,53=8/2;
 7//1,2,3,16;
 1/18=20,19=15,26=3/3(-5);
 2/9=110/2;
 6/7=2,8=2,9=2,10=2,19=2,28=1/1;
 99/9=1/99;
 Leave Link    1 at Tue Sep 24 11:24:03 2019, MaxMem=  6710886400 cpu:               1.2 elap:               0.1
 (Enter /n/sw/g16_nehalem/g16/l101.exe)
 -----
 title
 -----
 Symbolic Z-matrix:
 Charge =  0 Multiplicity = 1
 C                     3.64792  -0.0838    2.07861 
 H                     2.80416  -0.65454   2.40607 
 H                     4.44565  -0.74612   1.81432 
 N                     3.27143   0.71901   0.91001 
 C                     3.27991   0.34782  -0.38839 
 O                     3.07254   1.15574  -1.29444 
 C                     3.41242  -1.14935  -0.7155 
 H                     3.40861  -1.74063   0.20682 
 C                     1.0405   -1.60134  -0.67153 
 C                    -1.39954  -1.24459  -0.85437 
 C                    -1.78676  -1.76888   0.38371 
 C                    -2.31514  -0.47875  -1.59203 
 C                    -3.06429  -1.48865   0.87056 
 H                    -1.0952   -2.37532   0.96276 
 C                    -3.5814   -0.22581  -1.08382 
 H                    -2.01818  -0.0578   -2.55418 
 C                    -3.97675  -0.71629   0.16116 
 H                    -4.96701  -0.50068   0.56094 
 C                    -4.56059   0.57477  -1.89875 
 C                    -3.42275  -2.00921   2.23633 
 F                    -5.35089   1.33918  -1.12922 
 F                    -3.95237   1.38455  -2.77935 
 F                    -5.38021  -0.22467  -2.61451 
 F                    -4.74023  -1.94233   2.48167 
 F                    -2.80939  -1.30686   3.21086 
 F                    -3.05234  -3.29101   2.40225 
 N                    -0.12732  -1.44248  -1.40283 
 N                     2.18755  -1.503    -1.43349 
 C                     4.68232  -1.51807  -1.51865 
 C                     4.76942  -3.04612  -1.59004 
 C                     4.66529  -0.94487  -2.94028 
 C                     5.89959  -0.97249  -0.7644 
 H                     4.84146  -3.48785  -0.58334 
 H                     3.88356  -3.47143  -2.08495 
 H                     5.66067  -3.35181  -2.1596 
 H                     4.5751    0.14978  -2.93862 
 H                     5.59905  -1.21875  -3.45537 
 H                     3.83792  -1.36415  -3.53556 
 H                     6.82628  -1.25525  -1.28619 
 H                     5.87718   0.12724  -0.69603 
 H                     5.9559   -1.38377   0.25635 
 H                     2.07905  -0.96732  -2.29375 
 H                    -0.01908  -1.12772  -2.36165 
 C                     2.87474   2.08705   1.27334 
 H                     3.74135   2.64554   1.55967 
 H                     2.40829   2.55811   0.43345 
 H                     2.18585   2.05328   2.09138 
 H                     3.96855   0.56367   2.86783 
 S                     1.05459  -1.89111   0.86777 
 
 ITRead=  0  0  0  0  0  0  0  0  0  0  0  0  0  0  0  0  0  0  0  0
 ITRead=  0  0  0  0  0  0  0  0  0  0  0  0  0  0  0  0  0  0  0  0
 ITRead=  0  0  0  0  0  0  0  0  0
 MicOpt= -1 -1 -1 -1 -1 -1 -1 -1 -1 -1 -1 -1 -1 -1 -1 -1 -1 -1 -1 -1
 MicOpt= -1 -1 -1 -1 -1 -1 -1 -1 -1 -1 -1 -1 -1 -1 -1 -1 -1 -1 -1 -1
 MicOpt= -1 -1 -1 -1 -1 -1 -1 -1 -1
 NAtoms=     49 NQM=       49 NQMF=       0 NMMI=      0 NMMIF=      0
                NMic=       0 NMicF=      0.
                    Isotopes and Nuclear Properties:
 (Nuclear quadrupole moments (NQMom) in fm**2, nuclear magnetic moments (NMagM)
  in nuclear magnetons)

  Atom         1           2           3           4           5           6           7           8           9          10
 IAtWgt=          12           1           1          14          12          16          12           1          12          12
 AtmWgt=  12.0000000   1.0078250   1.0078250  14.0030740  12.0000000  15.9949146  12.0000000   1.0078250  12.0000000  12.0000000
 NucSpn=           0           1           1           2           0           0           0           1           0           0
 AtZEff=   0.0000000   0.0000000   0.0000000   0.0000000   0.0000000   0.0000000   0.0000000   0.0000000   0.0000000   0.0000000
 NQMom=    0.0000000   0.0000000   0.0000000   2.0440000   0.0000000   0.0000000   0.0000000   0.0000000   0.0000000   0.0000000
 NMagM=    0.0000000   2.7928460   2.7928460   0.4037610   0.0000000   0.0000000   0.0000000   2.7928460   0.0000000   0.0000000
 AtZNuc=   6.0000000   1.0000000   1.0000000   7.0000000   6.0000000   8.0000000   6.0000000   1.0000000   6.0000000   6.0000000

  Atom        11          12          13          14          15          16          17          18          19          20
 IAtWgt=          12          12          12           1          12           1          12           1          12          12
 AtmWgt=  12.0000000  12.0000000  12.0000000   1.0078250  12.0000000   1.0078250  12.0000000   1.0078250  12.0000000  12.0000000
 NucSpn=           0           0           0           1           0           1           0           1           0           0
 AtZEff=   0.0000000   0.0000000   0.0000000   0.0000000   0.0000000   0.0000000   0.0000000   0.0000000   0.0000000   0.0000000
 NQMom=    0.0000000   0.0000000   0.0000000   0.0000000   0.0000000   0.0000000   0.0000000   0.0000000   0.0000000   0.0000000
 NMagM=    0.0000000   0.0000000   0.0000000   2.7928460   0.0000000   2.7928460   0.0000000   2.7928460   0.0000000   0.0000000
 AtZNuc=   6.0000000   6.0000000   6.0000000   1.0000000   6.0000000   1.0000000   6.0000000   1.0000000   6.0000000   6.0000000

  Atom        21          22          23          24          25          26          27          28          29          30
 IAtWgt=          19          19          19          19          19          19          14          14          12          12
 AtmWgt=  18.9984033  18.9984033  18.9984033  18.9984033  18.9984033  18.9984033  14.0030740  14.0030740  12.0000000  12.0000000
 NucSpn=           1           1           1           1           1           1           2           2           0           0
 AtZEff=   0.0000000   0.0000000   0.0000000   0.0000000   0.0000000   0.0000000   0.0000000   0.0000000   0.0000000   0.0000000
 NQMom=    0.0000000   0.0000000   0.0000000   0.0000000   0.0000000   0.0000000   2.0440000   2.0440000   0.0000000   0.0000000
 NMagM=    2.6288670   2.6288670   2.6288670   2.6288670   2.6288670   2.6288670   0.4037610   0.4037610   0.0000000   0.0000000
 AtZNuc=   9.0000000   9.0000000   9.0000000   9.0000000   9.0000000   9.0000000   7.0000000   7.0000000   6.0000000   6.0000000

  Atom        31          32          33          34          35          36          37          38          39          40
 IAtWgt=          12          12           1           1           1           1           1           1           1           1
 AtmWgt=  12.0000000  12.0000000   1.0078250   1.0078250   1.0078250   1.0078250   1.0078250   1.0078250   1.0078250   1.0078250
 NucSpn=           0           0           1           1           1           1           1           1           1           1
 AtZEff=   0.0000000   0.0000000   0.0000000   0.0000000   0.0000000   0.0000000   0.0000000   0.0000000   0.0000000   0.0000000
 NQMom=    0.0000000   0.0000000   0.0000000   0.0000000   0.0000000   0.0000000   0.0000000   0.0000000   0.0000000   0.0000000
 NMagM=    0.0000000   0.0000000   2.7928460   2.7928460   2.7928460   2.7928460   2.7928460   2.7928460   2.7928460   2.7928460
 AtZNuc=   6.0000000   6.0000000   1.0000000   1.0000000   1.0000000   1.0000000   1.0000000   1.0000000   1.0000000   1.0000000

  Atom        41          42          43          44          45          46          47          48          49
 IAtWgt=           1           1           1          12           1           1           1           1          32
 AtmWgt=   1.0078250   1.0078250   1.0078250  12.0000000   1.0078250   1.0078250   1.0078250   1.0078250  31.9720718
 NucSpn=           1           1           1           0           1           1           1           1           0
 AtZEff=   0.0000000   0.0000000   0.0000000   0.0000000   0.0000000   0.0000000   0.0000000   0.0000000   0.0000000
 NQMom=    0.0000000   0.0000000   0.0000000   0.0000000   0.0000000   0.0000000   0.0000000   0.0000000   0.0000000
 NMagM=    2.7928460   2.7928460   2.7928460   0.0000000   2.7928460   2.7928460   2.7928460   2.7928460   0.0000000
 AtZNuc=   1.0000000   1.0000000   1.0000000   6.0000000   1.0000000   1.0000000   1.0000000   1.0000000  16.0000000
 Leave Link  101 at Tue Sep 24 11:24:03 2019, MaxMem=  6710886400 cpu:               5.6 elap:               0.4
 (Enter /n/sw/g16_nehalem/g16/l103.exe)

 GradGradGradGradGradGradGradGradGradGradGradGradGradGradGradGradGradGrad
 Berny optimization.
 Initialization pass.
                           ----------------------------
                           !    Initial Parameters    !
                           ! (Angstroms and Degrees)  !
 --------------------------                            --------------------------
 ! Name  Definition              Value          Derivative Info.                !
 --------------------------------------------------------------------------------
 ! R1    R(1,2)                  1.07           estimate D2E/DX2                !
 ! R2    R(1,3)                  1.07           estimate D2E/DX2                !
 ! R3    R(1,4)                  1.4669         estimate D2E/DX2                !
 ! R4    R(1,48)                 1.07           estimate D2E/DX2                !
 ! R5    R(4,5)                  1.3504         estimate D2E/DX2                !
 ! R6    R(4,44)                 1.47           estimate D2E/DX2                !
 ! R7    R(5,6)                  1.2315         estimate D2E/DX2                !
 ! R8    R(5,7)                  1.5382         estimate D2E/DX2                !
 ! R9    R(7,8)                  1.0956         estimate D2E/DX2                !
 ! R10   R(7,28)                 1.4632         estimate D2E/DX2                !
 ! R11   R(7,29)                 1.5471         estimate D2E/DX2                !
 ! R12   R(9,27)                 1.387          estimate D2E/DX2                !
 ! R13   R(9,28)                 1.3806         estimate D2E/DX2                !
 ! R14   R(9,49)                 1.5664         estimate D2E/DX2                !
 ! R15   R(10,11)                1.3992         estimate D2E/DX2                !
 ! R16   R(10,12)                1.4032         estimate D2E/DX2                !
 ! R17   R(10,27)                1.3995         estimate D2E/DX2                !
 ! R18   R(11,13)                1.3956         estimate D2E/DX2                !
 ! R19   R(11,14)                1.0869         estimate D2E/DX2                !
 ! R20   R(12,15)                1.3877         estimate D2E/DX2                !
 ! R21   R(12,16)                1.0914         estimate D2E/DX2                !
 ! R22   R(13,17)                1.3901         estimate D2E/DX2                !
 ! R23   R(13,20)                1.5049         estimate D2E/DX2                !
 ! R24   R(15,17)                1.3953         estimate D2E/DX2                !
 ! R25   R(15,19)                1.5046         estimate D2E/DX2                !
 ! R26   R(17,18)                1.0895         estimate D2E/DX2                !
 ! R27   R(19,21)                1.342          estimate D2E/DX2                !
 ! R28   R(19,22)                1.3421         estimate D2E/DX2                !
 ! R29   R(19,23)                1.3503         estimate D2E/DX2                !
 ! R30   R(20,24)                1.3418         estimate D2E/DX2                !
 ! R31   R(20,25)                1.3488         estimate D2E/DX2                !
 ! R32   R(20,26)                1.3445         estimate D2E/DX2                !
 ! R33   R(27,43)                1.015          estimate D2E/DX2                !
 ! R34   R(28,42)                1.0192         estimate D2E/DX2                !
 ! R35   R(29,30)                1.5322         estimate D2E/DX2                !
 ! R36   R(29,31)                1.5329         estimate D2E/DX2                !
 ! R37   R(29,32)                1.5324         estimate D2E/DX2                !
 ! R38   R(30,33)                1.1017         estimate D2E/DX2                !
 ! R39   R(30,34)                1.1003         estimate D2E/DX2                !
 ! R40   R(30,35)                1.101          estimate D2E/DX2                !
 ! R41   R(31,36)                1.0984         estimate D2E/DX2                !
 ! R42   R(31,37)                1.101          estimate D2E/DX2                !
 ! R43   R(31,38)                1.1021         estimate D2E/DX2                !
 ! R44   R(32,39)                1.1004         estimate D2E/DX2                !
 ! R45   R(32,40)                1.1021         estimate D2E/DX2                !
 ! R46   R(32,41)                1.1019         estimate D2E/DX2                !
 ! R47   R(44,45)                1.07           estimate D2E/DX2                !
 ! R48   R(44,46)                1.07           estimate D2E/DX2                !
 ! R49   R(44,47)                1.07           estimate D2E/DX2                !
 ! A1    A(2,1,3)              109.4712         estimate D2E/DX2                !
 ! A2    A(2,1,4)              109.4712         estimate D2E/DX2                !
 ! A3    A(2,1,48)             109.4712         estimate D2E/DX2                !
 ! A4    A(3,1,4)              109.4712         estimate D2E/DX2                !
 ! A5    A(3,1,48)             109.4712         estimate D2E/DX2                !
 ! A6    A(4,1,48)             109.4712         estimate D2E/DX2                !
 ! A7    A(1,4,5)              127.8714         estimate D2E/DX2                !
 ! A8    A(1,4,44)             112.4373         estimate D2E/DX2                !
 ! A9    A(5,4,44)             119.6789         estimate D2E/DX2                !
 ! A10   A(4,5,6)              121.7345         estimate D2E/DX2                !
 ! A11   A(4,5,7)              118.1992         estimate D2E/DX2                !
 ! A12   A(6,5,7)              119.7736         estimate D2E/DX2                !
 ! A13   A(5,7,8)              110.241          estimate D2E/DX2                !
 ! A14   A(5,7,28)             105.5149         estimate D2E/DX2                !
 ! A15   A(5,7,29)             114.3976         estimate D2E/DX2                !
 ! A16   A(8,7,28)             106.2451         estimate D2E/DX2                !
 ! A17   A(8,7,29)             108.135          estimate D2E/DX2                !
 ! A18   A(28,7,29)            112.0109         estimate D2E/DX2                !
 ! A19   A(27,9,28)            113.603          estimate D2E/DX2                !
 ! A20   A(27,9,49)            123.1536         estimate D2E/DX2                !
 ! A21   A(28,9,49)            123.2343         estimate D2E/DX2                !
 ! A22   A(11,10,12)           119.2818         estimate D2E/DX2                !
 ! A23   A(11,10,27)           123.0511         estimate D2E/DX2                !
 ! A24   A(12,10,27)           117.6668         estimate D2E/DX2                !
 ! A25   A(10,11,13)           119.1298         estimate D2E/DX2                !
 ! A26   A(10,11,14)           120.2924         estimate D2E/DX2                !
 ! A27   A(13,11,14)           120.573          estimate D2E/DX2                !
 ! A28   A(10,12,15)           120.1566         estimate D2E/DX2                !
 ! A29   A(10,12,16)           119.7632         estimate D2E/DX2                !
 ! A30   A(15,12,16)           120.0559         estimate D2E/DX2                !
 ! A31   A(11,13,17)           122.3041         estimate D2E/DX2                !
 ! A32   A(11,13,20)           117.7217         estimate D2E/DX2                !
 ! A33   A(17,13,20)           119.9329         estimate D2E/DX2                !
 ! A34   A(12,15,17)           121.4163         estimate D2E/DX2                !
 ! A35   A(12,15,19)           119.5031         estimate D2E/DX2                !
 ! A36   A(17,15,19)           119.0728         estimate D2E/DX2                !
 ! A37   A(13,17,15)           117.6894         estimate D2E/DX2                !
 ! A38   A(13,17,18)           121.2868         estimate D2E/DX2                !
 ! A39   A(15,17,18)           121.0237         estimate D2E/DX2                !
 ! A40   A(15,19,21)           112.0703         estimate D2E/DX2                !
 ! A41   A(15,19,22)           112.4272         estimate D2E/DX2                !
 ! A42   A(15,19,23)           111.5381         estimate D2E/DX2                !
 ! A43   A(21,19,22)           107.4235         estimate D2E/DX2                !
 ! A44   A(21,19,23)           106.4828         estimate D2E/DX2                !
 ! A45   A(22,19,23)           106.53           estimate D2E/DX2                !
 ! A46   A(13,20,24)           112.493          estimate D2E/DX2                !
 ! A47   A(13,20,25)           111.5477         estimate D2E/DX2                !
 ! A48   A(13,20,26)           112.0952         estimate D2E/DX2                !
 ! A49   A(24,20,25)           106.7649         estimate D2E/DX2                !
 ! A50   A(24,20,26)           107.1849         estimate D2E/DX2                !
 ! A51   A(25,20,26)           106.3788         estimate D2E/DX2                !
 ! A52   A(9,27,10)            125.0976         estimate D2E/DX2                !
 ! A53   A(9,27,43)            116.3471         estimate D2E/DX2                !
 ! A54   A(10,27,43)           115.0448         estimate D2E/DX2                !
 ! A55   A(7,28,9)             116.2267         estimate D2E/DX2                !
 ! A56   A(7,28,42)            112.1031         estimate D2E/DX2                !
 ! A57   A(9,28,42)            114.5085         estimate D2E/DX2                !
 ! A58   A(7,29,30)            107.9706         estimate D2E/DX2                !
 ! A59   A(7,29,31)            112.5319         estimate D2E/DX2                !
 ! A60   A(7,29,32)            108.1585         estimate D2E/DX2                !
 ! A61   A(30,29,31)           109.2889         estimate D2E/DX2                !
 ! A62   A(30,29,32)           109.4413         estimate D2E/DX2                !
 ! A63   A(31,29,32)           109.3994         estimate D2E/DX2                !
 ! A64   A(29,30,33)           111.1621         estimate D2E/DX2                !
 ! A65   A(29,30,34)           111.1427         estimate D2E/DX2                !
 ! A66   A(29,30,35)           110.3055         estimate D2E/DX2                !
 ! A67   A(33,30,34)           107.9801         estimate D2E/DX2                !
 ! A68   A(33,30,35)           107.966          estimate D2E/DX2                !
 ! A69   A(34,30,35)           108.1633         estimate D2E/DX2                !
 ! A70   A(29,31,36)           111.8495         estimate D2E/DX2                !
 ! A71   A(29,31,37)           109.3554         estimate D2E/DX2                !
 ! A72   A(29,31,38)           111.53           estimate D2E/DX2                !
 ! A73   A(36,31,37)           108.5579         estimate D2E/DX2                !
 ! A74   A(36,31,38)           108.5609         estimate D2E/DX2                !
 ! A75   A(37,31,38)           106.8189         estimate D2E/DX2                !
 ! A76   A(29,32,39)           110.1247         estimate D2E/DX2                !
 ! A77   A(29,32,40)           111.6946         estimate D2E/DX2                !
 ! A78   A(29,32,41)           111.3243         estimate D2E/DX2                !
 ! A79   A(39,32,40)           107.6346         estimate D2E/DX2                !
 ! A80   A(39,32,41)           107.4745         estimate D2E/DX2                !
 ! A81   A(40,32,41)           108.4217         estimate D2E/DX2                !
 ! A82   A(4,44,45)            109.4712         estimate D2E/DX2                !
 ! A83   A(4,44,46)            109.4712         estimate D2E/DX2                !
 ! A84   A(4,44,47)            109.4712         estimate D2E/DX2                !
 ! A85   A(45,44,46)           109.4713         estimate D2E/DX2                !
 ! A86   A(45,44,47)           109.4712         estimate D2E/DX2                !
 ! A87   A(46,44,47)           109.4712         estimate D2E/DX2                !
 ! D1    D(2,1,4,5)            -85.9897         estimate D2E/DX2                !
 ! D2    D(2,1,4,44)            95.3159         estimate D2E/DX2                !
 ! D3    D(3,1,4,5)             34.0103         estimate D2E/DX2                !
 ! D4    D(3,1,4,44)          -144.6841         estimate D2E/DX2                !
 ! D5    D(48,1,4,5)           154.0103         estimate D2E/DX2                !
 ! D6    D(48,1,4,44)          -24.6841         estimate D2E/DX2                !
 ! D7    D(1,4,5,6)           -172.3773         estimate D2E/DX2                !
 ! D8    D(1,4,5,7)             13.8539         estimate D2E/DX2                !
 ! D9    D(44,4,5,6)             6.2337         estimate D2E/DX2                !
 ! D10   D(44,4,5,7)          -167.5351         estimate D2E/DX2                !
 ! D11   D(1,4,44,45)           72.4613         estimate D2E/DX2                !
 ! D12   D(1,4,44,46)         -167.5387         estimate D2E/DX2                !
 ! D13   D(1,4,44,47)          -47.5387         estimate D2E/DX2                !
 ! D14   D(5,4,44,45)         -106.3524         estimate D2E/DX2                !
 ! D15   D(5,4,44,46)           13.6476         estimate D2E/DX2                !
 ! D16   D(5,4,44,47)          133.6476         estimate D2E/DX2                !
 ! D17   D(4,5,7,8)              4.2875         estimate D2E/DX2                !
 ! D18   D(4,5,7,28)           118.6054         estimate D2E/DX2                !
 ! D19   D(4,5,7,29)          -117.8209         estimate D2E/DX2                !
 ! D20   D(6,5,7,8)           -169.6074         estimate D2E/DX2                !
 ! D21   D(6,5,7,28)           -55.2895         estimate D2E/DX2                !
 ! D22   D(6,5,7,29)            68.2842         estimate D2E/DX2                !
 ! D23   D(5,7,28,9)           -74.0298         estimate D2E/DX2                !
 ! D24   D(5,7,28,42)           60.332          estimate D2E/DX2                !
 ! D25   D(8,7,28,9)            43.0271         estimate D2E/DX2                !
 ! D26   D(8,7,28,42)          177.3889         estimate D2E/DX2                !
 ! D27   D(29,7,28,9)          160.8978         estimate D2E/DX2                !
 ! D28   D(29,7,28,42)         -64.7404         estimate D2E/DX2                !
 ! D29   D(5,7,29,30)          172.1005         estimate D2E/DX2                !
 ! D30   D(5,7,29,31)          -67.2            estimate D2E/DX2                !
 ! D31   D(5,7,29,32)           53.7651         estimate D2E/DX2                !
 ! D32   D(8,7,29,30)           48.8495         estimate D2E/DX2                !
 ! D33   D(8,7,29,31)          169.549          estimate D2E/DX2                !
 ! D34   D(8,7,29,32)          -69.4859         estimate D2E/DX2                !
 ! D35   D(28,7,29,30)         -67.8887         estimate D2E/DX2                !
 ! D36   D(28,7,29,31)          52.8108         estimate D2E/DX2                !
 ! D37   D(28,7,29,32)         173.7759         estimate D2E/DX2                !
 ! D38   D(28,9,27,10)        -167.2762         estimate D2E/DX2                !
 ! D39   D(28,9,27,43)          -9.5442         estimate D2E/DX2                !
 ! D40   D(49,9,27,10)          13.7939         estimate D2E/DX2                !
 ! D41   D(49,9,27,43)         171.526          estimate D2E/DX2                !
 ! D42   D(27,9,28,7)          157.4079         estimate D2E/DX2                !
 ! D43   D(27,9,28,42)          24.1259         estimate D2E/DX2                !
 ! D44   D(49,9,28,7)          -23.6633         estimate D2E/DX2                !
 ! D45   D(49,9,28,42)        -156.9452         estimate D2E/DX2                !
 ! D46   D(12,10,11,13)         -1.6073         estimate D2E/DX2                !
 ! D47   D(12,10,11,14)        179.1899         estimate D2E/DX2                !
 ! D48   D(27,10,11,13)        178.179          estimate D2E/DX2                !
 ! D49   D(27,10,11,14)         -1.0239         estimate D2E/DX2                !
 ! D50   D(11,10,12,15)          1.1914         estimate D2E/DX2                !
 ! D51   D(11,10,12,16)        179.4014         estimate D2E/DX2                !
 ! D52   D(27,10,12,15)       -178.6064         estimate D2E/DX2                !
 ! D53   D(27,10,12,16)         -0.3963         estimate D2E/DX2                !
 ! D54   D(11,10,27,9)         -30.6419         estimate D2E/DX2                !
 ! D55   D(11,10,27,43)        171.371          estimate D2E/DX2                !
 ! D56   D(12,10,27,9)         149.1476         estimate D2E/DX2                !
 ! D57   D(12,10,27,43)         -8.8395         estimate D2E/DX2                !
 ! D58   D(10,11,13,17)          0.7323         estimate D2E/DX2                !
 ! D59   D(10,11,13,20)       -176.925          estimate D2E/DX2                !
 ! D60   D(14,11,13,17)        179.9328         estimate D2E/DX2                !
 ! D61   D(14,11,13,20)          2.2755         estimate D2E/DX2                !
 ! D62   D(10,12,15,17)          0.1428         estimate D2E/DX2                !
 ! D63   D(10,12,15,19)       -178.8292         estimate D2E/DX2                !
 ! D64   D(16,12,15,17)       -178.062          estimate D2E/DX2                !
 ! D65   D(16,12,15,19)          2.966          estimate D2E/DX2                !
 ! D66   D(11,13,17,15)          0.5773         estimate D2E/DX2                !
 ! D67   D(11,13,17,18)       -179.4666         estimate D2E/DX2                !
 ! D68   D(20,13,17,15)        178.1842         estimate D2E/DX2                !
 ! D69   D(20,13,17,18)         -1.8596         estimate D2E/DX2                !
 ! D70   D(11,13,20,24)       -166.3143         estimate D2E/DX2                !
 ! D71   D(11,13,20,25)         73.7415         estimate D2E/DX2                !
 ! D72   D(11,13,20,26)        -45.4354         estimate D2E/DX2                !
 ! D73   D(17,13,20,24)         15.9705         estimate D2E/DX2                !
 ! D74   D(17,13,20,25)       -103.9737         estimate D2E/DX2                !
 ! D75   D(17,13,20,26)        136.8495         estimate D2E/DX2                !
 ! D76   D(12,15,17,13)         -1.0166         estimate D2E/DX2                !
 ! D77   D(12,15,17,18)        179.0271         estimate D2E/DX2                !
 ! D78   D(19,15,17,13)        177.9597         estimate D2E/DX2                !
 ! D79   D(19,15,17,18)         -1.9965         estimate D2E/DX2                !
 ! D80   D(12,15,19,21)       -145.6789         estimate D2E/DX2                !
 ! D81   D(12,15,19,22)        -24.5553         estimate D2E/DX2                !
 ! D82   D(12,15,19,23)         95.0351         estimate D2E/DX2                !
 ! D83   D(17,15,19,21)         35.3249         estimate D2E/DX2                !
 ! D84   D(17,15,19,22)        156.4485         estimate D2E/DX2                !
 ! D85   D(17,15,19,23)        -83.9611         estimate D2E/DX2                !
 ! D86   D(7,29,30,33)         -60.5227         estimate D2E/DX2                !
 ! D87   D(7,29,30,34)          59.7824         estimate D2E/DX2                !
 ! D88   D(7,29,30,35)         179.7472         estimate D2E/DX2                !
 ! D89   D(31,29,30,33)        176.7715         estimate D2E/DX2                !
 ! D90   D(31,29,30,34)        -62.9233         estimate D2E/DX2                !
 ! D91   D(31,29,30,35)         57.0414         estimate D2E/DX2                !
 ! D92   D(32,29,30,33)         56.9886         estimate D2E/DX2                !
 ! D93   D(32,29,30,34)        177.2938         estimate D2E/DX2                !
 ! D94   D(32,29,30,35)        -62.7414         estimate D2E/DX2                !
 ! D95   D(7,29,31,36)          58.4708         estimate D2E/DX2                !
 ! D96   D(7,29,31,37)         178.755          estimate D2E/DX2                !
 ! D97   D(7,29,31,38)         -63.323          estimate D2E/DX2                !
 ! D98   D(30,29,31,36)        178.4103         estimate D2E/DX2                !
 ! D99   D(30,29,31,37)        -61.3055         estimate D2E/DX2                !
 ! D100  D(30,29,31,38)         56.6165         estimate D2E/DX2                !
 ! D101  D(32,29,31,36)        -61.7811         estimate D2E/DX2                !
 ! D102  D(32,29,31,37)         58.5031         estimate D2E/DX2                !
 ! D103  D(32,29,31,38)        176.4251         estimate D2E/DX2                !
 ! D104  D(7,29,32,39)         177.5397         estimate D2E/DX2                !
 ! D105  D(7,29,32,40)         -62.9208         estimate D2E/DX2                !
 ! D106  D(7,29,32,41)          58.4382         estimate D2E/DX2                !
 ! D107  D(30,29,32,39)         60.1463         estimate D2E/DX2                !
 ! D108  D(30,29,32,40)        179.6858         estimate D2E/DX2                !
 ! D109  D(30,29,32,41)        -58.9552         estimate D2E/DX2                !
 ! D110  D(31,29,32,39)        -59.5687         estimate D2E/DX2                !
 ! D111  D(31,29,32,40)         59.9708         estimate D2E/DX2                !
 ! D112  D(31,29,32,41)       -178.6701         estimate D2E/DX2                !
 --------------------------------------------------------------------------------
 Trust Radius=3.00D-01 FncErr=1.00D-07 GrdErr=1.00D-06 EigMax=2.50D+02 EigMin=1.00D-04
 Number of steps in this run=    258 maximum allowed number of steps=    294.
 GradGradGradGradGradGradGradGradGradGradGradGradGradGradGradGradGradGrad

 Leave Link  103 at Tue Sep 24 11:24:03 2019, MaxMem=  6710886400 cpu:               0.8 elap:               0.1
 (Enter /n/sw/g16_nehalem/g16/l202.exe)
                          Input orientation:                          
 ---------------------------------------------------------------------
 Center     Atomic      Atomic             Coordinates (Angstroms)
 Number     Number       Type             X           Y           Z
 ---------------------------------------------------------------------
      1          6           0        3.647917   -0.083802    2.078610
      2          1           0        2.804158   -0.654538    2.406070
      3          1           0        4.445655   -0.746121    1.814321
      4          7           0        3.271434    0.719013    0.910006
      5          6           0        3.279915    0.347823   -0.388385
      6          8           0        3.072540    1.155738   -1.294438
      7          6           0        3.412420   -1.149351   -0.715498
      8          1           0        3.408607   -1.740631    0.206821
      9          6           0        1.040497   -1.601335   -0.671532
     10          6           0       -1.399541   -1.244594   -0.854372
     11          6           0       -1.786763   -1.768882    0.383710
     12          6           0       -2.315138   -0.478748   -1.592031
     13          6           0       -3.064294   -1.488645    0.870564
     14          1           0       -1.095205   -2.375323    0.962764
     15          6           0       -3.581404   -0.225811   -1.083818
     16          1           0       -2.018180   -0.057798   -2.554181
     17          6           0       -3.976750   -0.716294    0.161156
     18          1           0       -4.967006   -0.500677    0.560937
     19          6           0       -4.560585    0.574766   -1.898747
     20          6           0       -3.422749   -2.009208    2.236329
     21          9           0       -5.350891    1.339183   -1.129221
     22          9           0       -3.952368    1.384552   -2.779352
     23          9           0       -5.380212   -0.224674   -2.614507
     24          9           0       -4.740228   -1.942326    2.481673
     25          9           0       -2.809385   -1.306861    3.210859
     26          9           0       -3.052340   -3.291007    2.402253
     27          7           0       -0.127319   -1.442484   -1.402829
     28          7           0        2.187551   -1.502995   -1.433487
     29          6           0        4.682315   -1.518070   -1.518646
     30          6           0        4.769420   -3.046118   -1.590036
     31          6           0        4.665290   -0.944871   -2.940281
     32          6           0        5.899585   -0.972485   -0.764402
     33          1           0        4.841458   -3.487846   -0.583339
     34          1           0        3.883563   -3.471425   -2.084955
     35          1           0        5.660666   -3.351811   -2.159599
     36          1           0        4.575096    0.149779   -2.938622
     37          1           0        5.599054   -1.218753   -3.455367
     38          1           0        3.837918   -1.364154   -3.535563
     39          1           0        6.826277   -1.255250   -1.286187
     40          1           0        5.877181    0.127236   -0.696025
     41          1           0        5.955904   -1.383772    0.256354
     42          1           0        2.079045   -0.967320   -2.293750
     43          1           0       -0.019076   -1.127718   -2.361653
     44          6           0        2.874744    2.087050    1.273342
     45          1           0        3.741347    2.645543    1.559671
     46          1           0        2.408290    2.558109    0.433446
     47          1           0        2.185847    2.053279    2.091377
     48          1           0        3.968551    0.563669    2.867835
     49         16           0        1.054594   -1.891111    0.867767
 ---------------------------------------------------------------------
                    Distance matrix (angstroms):
                    1          2          3          4          5
     1  C    0.000000
     2  H    1.070000   0.000000
     3  H    1.070000   1.747303   0.000000
     4  N    1.466931   2.084034   2.084034   0.000000
     5  C    2.531361   3.006668   2.721687   1.350434   0.000000
     6  O    3.639364   4.128303   3.894470   2.256072   1.231529
     7  C    2.999649   3.218541   2.762274   2.480509   1.538210
     8  H    2.511164   2.526193   2.156056   2.561861   2.175425
     9  C    4.082258   3.671315   4.301855   3.586413   2.982345
    10  C    5.952029   5.352544   6.444898   5.365332   4.964901
    11  C    5.936996   5.138896   6.475780   5.661446   5.545070
    12  C    7.013388   6.497915   7.575160   6.237356   5.782439
    13  C    6.963242   6.123090   7.605350   6.709453   6.723582
    14  H    5.384551   4.499918   5.837857   5.352124   5.327551
    15  C    7.892034   7.289617   8.550065   7.199265   6.920288
    16  H    7.319022   6.943711   7.831907   6.370561   5.738032
    17  C    7.887473   7.143120   8.583167   7.426780   7.354830
    18  H    8.757512   7.988690   9.498916   8.335550   8.344631
    19  C    9.145085   8.618705   9.830767   8.321684   7.987874
    20  C    7.329828   6.374818   7.980304   7.349450   7.574327
    21  F    9.658862   9.109227  10.439600   8.881866   8.719085
    22  F    9.138938   8.757689   9.806548   8.138650   7.687486
    23  F   10.176065   9.611185  10.790463   9.389554   8.959976
    24  F    8.601020   7.653879   9.287449   8.587176   8.820698
    25  F    6.668929   5.708333   7.409477   6.809879   7.264442
    26  F    7.435345   6.422581   7.939902   7.635259   7.818324
    27  N    5.312141   4.870536   5.634454   4.644653   3.980394
    28  N    4.059754   3.980236   4.027425   3.406476   2.389775
    29  C    4.008410   4.435826   3.429371   3.590749   2.593409
    30  C    4.846860   5.054777   4.121221   4.761343   3.896335
    31  C    5.192856   5.668472   4.763821   4.419961   3.178442
    32  C    3.733964   4.442370   2.969001   3.545700   2.957579
    33  H    4.483082   4.595083   3.663672   4.732094   4.145935
    34  H    5.372783   5.410108   4.790364   5.186932   4.222487
    35  H    5.717819   6.023309   4.904887   5.630498   4.742622
    36  H    5.107528   5.687608   4.838374   4.103109   2.867128
    37  H    5.976617   6.518146   5.415102   5.313119   4.151981
    38  H    5.761453   6.072497   5.419647   4.942021   3.625874
    39  H    4.774528   5.492819   3.942046   4.621459   3.994067
    40  H    3.565495   4.435948   3.018917   3.117604   2.624708
    41  H    3.215174   3.884143   2.261573   3.472081   3.251927
    42  H    4.728583   4.765703   4.746159   3.811766   2.608085
    43  H    5.852566   5.561090   6.125210   4.994159   4.117566
    44  C    2.441076   2.967214   3.284399   1.470000   2.439346
    45  H    2.779811   3.533447   3.473367   2.086720   3.047516
    46  H    3.350064   3.790654   4.120146   2.086720   2.514060
    47  H    2.589387   2.795284   3.608341   2.086720   3.202309
    48  H    1.070000   1.747303   1.747303   2.084034   3.335233
    49  S    3.384942   2.637510   3.702197   3.424749   3.397469
                    6          7          8          9         10
     6  O    0.000000
     7  C    2.400859   0.000000
     8  H    3.279584   1.095582   0.000000
     9  C    3.481187   2.415003   2.529595   0.000000
    10  C    5.094581   4.814907   4.948785   2.472747   0.000000
    11  C    5.914593   5.350101   5.198457   3.022417   1.399166
    12  C    5.638012   5.832919   6.131026   3.656201   1.403203
    13  C    7.024295   6.676716   6.511720   4.386350   2.409641
    14  H    5.910453   4.963694   4.610706   2.798429   2.161747
    15  C    6.799118   7.064146   7.267784   4.839836   2.418903
    16  H    5.382848   5.836408   6.317046   3.909268   2.163458
    17  C    7.437456   7.453583   7.456195   5.162309   2.820001
    18  H    8.415487   8.500873   8.474301   6.230612   3.909389
    19  C    7.679018   8.242661   8.561688   6.132992   3.793809
    20  C    8.041889   7.494810   7.131512   5.342526   3.772325
    21  F    8.427048   9.119188   9.380782   7.050246   4.729124
    22  F    7.183777   8.057311   8.536273   6.187659   4.139430
    23  F    8.665860   9.042767   9.354216   6.848055   4.470353
    24  F    9.213922   8.792973   8.462809   6.593615   4.772443
    25  F    7.807633   7.358801   6.919236   5.475515   4.303213
    26  F    8.423373   7.490006   6.997673   5.390219   4.186306
    27  N    4.123300   3.617748   3.896490   1.387020   1.399469
    28  N    2.805602   1.463173   2.058655   1.380572   3.642715
    29  C    3.129040   1.547137   2.156178   3.739970   6.124134
    30  C    4.541186   2.490781   2.604766   4.103159   6.468599
    31  C    3.107766   2.561475   3.480910   4.326348   6.420516
    32  C    3.578052   2.493925   2.781779   4.900491   7.304750
    33  H    5.019722   2.743752   2.393778   4.244291   6.637447
    34  H    4.763750   2.736680   2.910922   3.684837   5.863813
    35  H    5.269241   3.462783   3.642474   5.159891   7.482680
    36  H    2.443966   2.825214   3.850735   4.549669   6.479557
    37  H    4.085474   3.506147   4.299074   5.355049   7.466336
    38  H    3.458078   2.860062   3.785694   4.010548   5.885071
    39  H    4.461331   3.462849   3.761002   5.828621   8.237151
    40  H    3.046625   2.775806   3.224580   5.136348   7.406597
    41  H    4.143411   2.732903   2.572649   5.006948   7.440138
    42  H    2.548143   2.074103   2.935745   2.027843   3.774818
    43  H    3.988886   3.805977   4.326862   2.050248   2.047252
    44  C    2.738605   3.836518   4.009191   4.555346   5.822072
    45  H    3.288276   4.436869   4.602112   5.505345   6.884003
    46  H    2.322381   4.009190   4.419407   4.515840   5.533408
    47  H    3.613246   4.431689   4.409132   4.722467   5.692839
    48  H    4.298592   4.010485   3.564313   5.078175   6.777982
    49  S    4.246236   2.935350   2.449667   1.566400   3.067006
                   11         12         13         14         15
    11  C    0.000000
    12  C    2.418094   0.000000
    13  C    1.395581   2.765050   0.000000
    14  H    1.086889   3.407669   2.161483   0.000000
    15  C    2.784860   1.387691   2.383645   3.871703   0.000000
    16  H    3.407721   1.091382   3.856236   4.311810   2.152641
    17  C    2.439983   2.427148   1.390094   3.420271   1.395289
    18  H    3.428367   3.415868   2.166163   4.320487   2.168101
    19  C    4.289101   2.499200   3.763726   5.375884   1.504602
    20  C    2.483225   4.269128   1.504922   2.678333   3.772142
    21  F    4.965082   3.568594   4.150214   6.023688   2.362700
    22  F    4.963764   2.749935   4.729252   6.025236   2.367640
    23  F    4.928160   3.241094   4.371135   5.981926   2.361931
    24  F    3.626912   4.961672   2.368597   3.972501   4.123351
    25  F    3.041709   4.898755   2.361145   3.022243   4.495435
    26  F    2.827201   4.940301   2.365317   2.596340   4.672047
    27  N    2.460084   2.398153   3.714333   2.720850   3.675971
    28  N    4.378136   4.620436   5.735044   4.156857   5.918979
    29  C    6.747654   7.074597   8.106734   6.346024   8.375444
    30  C    6.964951   7.535407   8.357473   6.431219   8.828740
    31  C    7.304581   7.124705   8.635085   7.103749   8.483600
    32  C    7.812321   8.271059   9.126372   7.340173   9.515708
    33  H    6.915442   7.828729   8.283209   6.234750   9.046323
    34  H    6.414480   6.900941   7.806358   5.939542   8.201342
    35  H    8.027346   8.496474   9.422219   7.506296   9.815551
    36  H    7.429159   7.048665   8.692216   7.331389   8.373163
    37  H    8.342149   8.164194   9.687111   8.103742   9.533676
    38  H    6.867426   6.513168   8.189627   6.752267   7.896405
    39  H    8.788449   9.179432  10.125682   8.310368  10.460426
    40  H    7.968509   8.263421   9.220371   7.591347   9.473112
    41  H    7.753285   8.523247   9.041694   7.155440   9.700370
    42  H    4.770300   4.476601   6.061237   4.760590   5.835619
    43  H    3.327586   2.507066   4.455429   3.710299   3.890563
    44  C    6.114679   6.459764   6.944062   5.980779   7.251715
    45  H    7.171473   7.508357   7.992692   6.996973   8.297915
    46  H    6.026922   5.969575   6.820298   6.073994   6.777074
    47  H    5.771194   6.343305   6.449775   5.625974   6.966872
    48  H    6.688446   7.775717   7.593549   6.156995   8.558075
    49  S    2.884885   4.404596   4.138505   2.205702   5.298527
                   16         17         18         19         20
    16  H    0.000000
    17  C    3.412135   0.000000
    18  H    4.312270   1.089460   0.000000
    19  C    2.700658   2.500180   2.715106   0.000000
    20  C    5.360019   2.506968   2.732642   5.007040   0.000000
    21  F    3.884460   2.788964   2.527664   1.342046   5.124098
    22  F    2.423254   3.613964   3.967507   1.342068   6.079076
    23  F    3.366711   3.148921   3.214088   1.350261   5.526919
    24  F    6.026675   2.733286   2.412262   5.055304   1.341796
    25  F    5.951626   3.318463   3.511032   5.719729   1.348783
    26  F    6.007442   3.536410   3.852575   5.976421   1.344523
    27  N    2.611192   4.218000   5.307160   4.895823   4.942116
    28  N    4.586145   6.415636   7.494668   7.076079   6.723040
    29  C    6.935514   8.856861   9.923162   9.484495   8.946123
    30  C    7.478713   9.219015  10.290964  10.012747   9.100983
    31  C    6.753128   9.184553  10.258507   9.408021   9.661598
    32  C    8.168902   9.922917  10.957277  10.634655   9.848101
    33  H    7.918591   9.273433  10.316904  10.326351   8.856298
    34  H    6.834003   8.626719   9.703539   9.365360   8.613580
    35  H    8.364861  10.257273  11.334800  10.952626  10.180137
    36  H    6.607736   9.137438  10.184386   9.204489   9.767644
    37  H    7.757719  10.248304  11.326427  10.433506  10.696408
    38  H    6.079766   8.669169   9.749543   8.773450   9.297748
    39  H    9.014772  10.912867  11.960885  11.549234  10.863660
    40  H    8.113181   9.927047  10.934835  10.516358   9.982574
    41  H    8.558232   9.955511  10.962782  10.912235   9.605759
    42  H    4.205034   6.539284   7.616681   6.827792   7.202561
    43  H    2.275569   4.711371   5.780720   4.872170   5.788217
    44  C    6.571987   7.485898   8.288359   8.223945   7.573974
    45  H    7.576542   8.533863   9.312979   9.228805   8.570230
    46  H    5.946640   7.180849   7.985450   7.611701   7.623109
    47  H    6.611482   7.026656   7.747790   7.976305   6.926844
    48  H    8.100952   8.490714   9.289714   9.770700   7.851739
    49  S    4.951030   5.214779   6.187659   6.727881   4.683323
                   21         22         23         24         25
    21  F    0.000000
    22  F    2.163529   0.000000
    23  F    2.156985   2.157666   0.000000
    24  F    4.917293   6.274331   5.415806   0.000000
    25  F    5.683053   6.665789   6.458728   2.159556   0.000000
    26  F    6.260456   7.037040   6.323707   2.161993   2.156318
    27  N    5.924377   4.951560   5.526673   6.051291   5.338351
    28  N    8.062175   6.917217   7.765304   7.969668   6.824792
    29  C   10.439385   9.196322  10.204324  10.245334   8.862189
    30  C   11.039199   9.854689  10.584192  10.403393   9.138484
    31  C   10.431717   8.928389  10.076553  10.902122   9.687018
    32  C   11.491306  10.328438  11.454952  11.166164   9.579179
    33  H   11.290800  10.290486  10.920461  10.177998   8.814081
    34  H   10.456123   9.244702   9.830531   9.877348   8.804915
    35  H   12.013388  10.734414  11.484203  11.476352  10.235497
    36  H   10.159421   8.617869   9.967619  10.978696   9.719490
    37  H   11.482826   9.922896  11.056198  11.944570  10.730712
    38  H    9.875866   8.295529   9.333846  10.494094   9.471226
    39  H   12.451471  11.197200  12.321724  12.184124  10.633535
    40  H   11.301596  10.126259  11.425118  11.274317   9.632072
    41  H   11.712298  10.726275  11.751293  10.939436   9.250152
    42  H    7.866386   6.491922   7.502994   8.381992   7.369719
    43  H    6.002728   4.685804   5.442536   6.812538   6.234646
    44  C    8.601900   7.970401   9.412956   8.699640   6.897965
    45  H    9.571077   8.922470  10.433827   9.686885   7.826877
    46  H    8.008283   7.222000   8.814458   8.691977   7.062305
    47  H    8.227066   7.864406   9.196720   8.005480   6.123408
    48  H   10.170048   9.762455  10.866320   9.070389   7.039670
    49  S    7.446677   7.007218   7.503997   6.015586   4.556508
                   26         27         28         29         30
    26  F    0.000000
    27  N    5.143096   0.000000
    28  N    6.735454   2.315864   0.000000
    29  C    8.851081   4.811622   2.496263   0.000000
    30  C    8.785116   5.156039   3.011940   1.532193   0.000000
    31  C    9.675166   5.057715   2.953154   1.532936   2.499849
    32  C    9.774467   6.078821   3.808978   1.532414   2.501779
    33  H    8.441833   5.435422   3.421346   2.186354   1.101704
    34  H    8.262829   4.546325   2.678728   2.185019   1.100261
    35  H    9.835175   6.141580   4.000986   2.174994   1.100986
    36  H    9.926819   5.196794   3.270698   2.193068   3.474220
    37  H   10.651411   6.087226   3.975820   2.163536   2.739893
    38  H    9.297638   4.503087   2.676137   2.191951   2.735283
    39  H   10.739459   6.957094   4.647672   2.172484   2.744120
    40  H   10.050873   6.246408   4.100594   2.193500   3.478012
    41  H    9.454675   6.305707   4.131617   2.188764   2.753233
    42  H    7.333695   2.426430   1.019202   2.771485   3.471993
    43  H    6.047752   1.014957   2.423124   4.792297   5.215874
    44  C    8.082590   5.350877   4.548360   4.905038   6.175608
    45  H    9.061278   6.360420   5.346367   5.262806   6.585787
    46  H    8.240560   5.079957   4.475123   5.059356   6.409116
    47  H    7.489769   5.457158   5.007170   5.658546   6.799375
    48  H    8.022979   6.248149   5.093567   4.907577   5.791767
    49  S    4.602311   2.598805   2.594223   4.358266   4.601605
                   31         32         33         34         35
    31  C    0.000000
    32  C    2.501739   0.000000
    33  H    3.471733   2.734860   0.000000
    34  H    2.779596   3.471730   1.781203   0.000000
    35  H    2.719117   2.768546   1.781629   1.782687   0.000000
    36  H    1.098361   2.782262   4.341730   3.784189   3.747862
    37  H    1.101018   2.718871   3.737817   3.145707   2.496547
    38  H    1.102136   3.476091   3.772637   2.558699   3.027617
    39  H    2.739019   1.100442   3.068874   3.769486   2.552854
    40  H    2.766727   1.102072   3.762212   4.342119   3.780568
    41  H    3.475168   1.101940   2.524718   3.759604   3.130043
    42  H    2.665928   4.115271   4.112114   3.093610   4.304858
    43  H    4.723508   6.132361   5.688356   4.560714   6.103023
    44  C    5.491194   4.760548   6.196345   6.572101   7.009112
    45  H    5.830464   4.811385   6.589476   7.121855   7.313344
    46  H    5.361618   5.107746   6.596039   6.698810   7.226962
    47  H    6.360355   5.576967   6.701525   7.130662   7.704554
    48  H    6.041138   4.391105   5.393268   6.389001   6.593127
    49  S    5.332328   5.194399   4.358395   4.383951   5.702147
                   36         37         38         39         40
    36  H    0.000000
    37  H    1.785608   0.000000
    38  H    1.786551   1.768947   0.000000
    39  H    3.126094   2.492539   3.741904   0.000000
    40  H    2.593294   3.082695   3.800765   1.777735   0.000000
    41  H    3.803456   3.732485   4.343372   1.775810   1.787839
    42  H    2.809634   3.715244   2.189340   4.861512   4.263404
    43  H    4.803260   5.724324   4.038610   6.930494   6.254204
    44  C    4.938102   6.380508   5.997005   5.773800   4.090709
    45  H    5.211393   6.598065   6.484474   5.729911   3.998977
    46  H    4.676103   6.290352   5.760296   6.084197   4.383840
    47  H    5.884956   7.288521   6.787535   6.624793   5.010508
    48  H    5.852704   6.768933   6.688578   5.360127   4.066256
    49  S    5.572052   6.308222   5.235827   6.193235   5.456786
                   41         42         43         44         45
    41  H    0.000000
    42  H    4.659023   0.000000
    43  H    6.528393   2.105338   0.000000
    44  C    4.751254   4.763030   5.649966   0.000000
    45  H    4.778940   5.537588   6.614761   1.070000   0.000000
    46  H    5.306161   4.469301   5.223984   1.070000   1.747303
    47  H    5.421619   5.325858   5.899992   1.070000   1.747303
    48  H    3.816010   5.705797   6.790398   2.461607   2.469233
    49  S    4.965285   3.449359   3.487791   4.393540   5.317762
                   46         47         48         49
    46  H    0.000000
    47  H    1.747303   0.000000
    48  H    3.512613   2.449461   0.000000
    49  S    4.670833   4.281958   4.303180   0.000000
 Stoichiometry    C17H21F6N3OS
 Framework group  C1[X(C17H21F6N3OS)]
 Deg. of freedom   141
 Full point group                 C1      NOp   1
 Largest Abelian subgroup         C1      NOp   1
 Largest concise Abelian subgroup C1      NOp   1
                         Standard orientation:                         
 ---------------------------------------------------------------------
 Center     Atomic      Atomic             Coordinates (Angstroms)
 Number     Number       Type             X           Y           Z
 ---------------------------------------------------------------------
      1          6           0       -3.569917    2.004774    1.762973
      2          1           0       -2.716048    2.492162    1.340765
      3          1           0       -4.396620    2.085820    1.088515
      4          7           0       -3.261753    0.588794    1.990838
      5          6           0       -3.368756   -0.434166    1.115751
      6          8           0       -3.210637   -1.604527    1.464918
      7          6           0       -3.552129   -0.099765   -0.374430
      8          1           0       -3.494402    0.983211   -0.529766
      9          6           0       -1.191931   -0.005116   -0.877169
     10          6           0        1.235414   -0.457017   -0.742028
     11          6           0        1.699055    0.862967   -0.723416
     12          6           0        2.110950   -1.496935   -0.394199
     13          6           0        3.012782    1.116029   -0.326269
     14          1           0        1.038774    1.679953   -1.002501
     15          6           0        3.414435   -1.212485   -0.012490
     16          1           0        1.754848   -2.528585   -0.396568
     17          6           0        3.887300    0.099210    0.039326
     18          1           0        4.907163    0.316364    0.354996
     19          6           0        4.348589   -2.340563    0.331929
     20          6           0        3.456808    2.551932   -0.250018
     21          9           0        5.205430   -2.005305    1.308921
     22          9           0        3.695120   -3.442694    0.731220
     23          9           0        5.100521   -2.703090   -0.729381
     24          9           0        4.789333    2.672501   -0.148735
     25          9           0        2.927012    3.178087    0.820711
     26          9           0        3.074984    3.257351   -1.329063
     27          7           0       -0.075814   -0.800580   -1.090108
     28          7           0       -2.387810   -0.672854   -1.050305
     29          6           0       -4.882210   -0.603380   -0.983438
     30          6           0       -5.002851   -0.026646   -2.397806
     31          6           0       -4.954707   -2.133046   -1.052442
     32          6           0       -6.032784   -0.077788   -0.118438
     33          1           0       -5.012010    1.074855   -2.378723
     34          1           0       -4.162256   -0.348392   -3.030620
     35          1           0       -5.937635   -0.365897   -2.870308
     36          1           0       -4.844052   -2.592664   -0.061028
     37          1           0       -5.927455   -2.433727   -1.471479
     38          1           0       -4.179406   -2.545072   -1.718659
     39          1           0       -6.999118   -0.381245   -0.548653
     40          1           0       -5.984938   -0.475167    0.908385
     41          1           0       -6.024702    1.022902   -0.066591
     42          1           0       -2.330187   -1.682683   -0.925005
     43          1           0       -0.245467   -1.795599   -1.196372
     44          6           0       -2.814773    0.326185    3.366391
     45          1           0       -3.648371    0.402099    4.032913
     46          1           0       -2.399936   -0.658396    3.424779
     47          1           0       -2.070660    1.043703    3.642733
     48          1           0       -3.821863    2.469176    2.693432
     49         16           0       -1.102886    1.513068   -0.501936
 ---------------------------------------------------------------------
 Rotational constants (GHZ):           0.2391553           0.0808471           0.0710406
 Leave Link  202 at Tue Sep 24 11:24:03 2019, MaxMem=  6710886400 cpu:               1.6 elap:               0.1
 (Enter /n/sw/g16_nehalem/g16/l301.exe)
 Standard basis: 6-31G(d) (6D, 7F)
 Ernie: Thresh=  0.10000D-02 Tol=  0.10000D-05 Strict=F.
 There are   466 symmetry adapted cartesian basis functions of A   symmetry.
 There are   466 symmetry adapted basis functions of A   symmetry.
   466 basis functions,   892 primitive gaussians,   466 cartesian basis functions
   111 alpha electrons      111 beta electrons
       nuclear repulsion energy      3030.7297689125 Hartrees.
 IExCor=  402 DFT=T Ex+Corr=B3LYP ExCW=0 ScaHFX=  0.200000
 ScaDFX=  0.800000  0.720000  1.000000  0.810000 ScalE2=  1.000000  1.000000
 IRadAn=      5 IRanWt=     -1 IRanGd=            0 ICorTp=0 IEmpDi=141
 NAtoms=   49 NActive=   49 NUniq=   49 SFac= 1.00D+00 NAtFMM=   60 NAOKFM=F Big=F
 Integral buffers will be    131072 words long.
 Raffenetti 2 integral format.
 Two-electron integral symmetry is turned on.
 R6Disp:  Grimme-D3(BJ) Dispersion energy=       -0.1090676317 Hartrees.
 Nuclear repulsion after empirical dispersion term =     3030.6207012808 Hartrees.
 ------------------------------------------------------------------------------
 Polarizable Continuum Model (PCM)
 =================================
 Model                : PCM.
 Atomic radii         : SMD-Coulomb.
 Polarization charges : Total charges.
 Charge compensation  : None.
 Solution method      : On-the-fly selection.
 Cavity type          : VdW (van der Waals Surface) (Alpha=1.000).
 Cavity algorithm     : GePol (No added spheres)
                        Default sphere list used, NSphG=   49.
                        Lebedev-Laikov grids with approx.  5.0 points / Ang**2.
                        Smoothing algorithm: York/Karplus (Gamma=1.0000).
                        Polarization charges: spherical gaussians, with
                                              point-specific exponents (IZeta= 3).
                        Self-potential: point-specific (ISelfS= 7).
                        Self-field    : sphere-specific E.n sum rule (ISelfD= 2).
 1st derivatives      : Analytical E(r).r(x)/FMM algorithm (CHGder, D1EAlg=3).
                        Cavity 1st derivative terms included.
 Solvent              : DiethylEther, Eps=   4.240000 Eps(inf)=   1.829527
 ------------------------------------------------------------------------------
 GePol: Number of generator spheres                  =      49
 GePol: Total number of spheres                      =      49
 GePol: Number of exposed spheres                    =      49 (100.00%)
 GePol: Number of points                             =    3431
 GePol: Average weight of points                     =       0.12
 GePol: Minimum weight of points                     =   0.67D-09
 GePol: Maximum weight of points                     =    0.21501
 GePol: Number of points with low weight             =     199
 GePol: Fraction of low-weight points (<1% of avg)   =       5.80%
 GePol: Cavity surface area                          =    428.220 Ang**2
 GePol: Cavity volume                                =    431.127 Ang**3
 ------------------------------------------------------------------------------
 Atomic radii for non-electrostatic terms: SMD-CDS.
 ------------------------------------------------------------------------------
 PCM non-electrostatic energy =        -0.0069595030 Hartrees.
 Nuclear repulsion after PCM non-electrostatic terms =     3030.6137417778 Hartrees.
 Leave Link  301 at Tue Sep 24 11:24:04 2019, MaxMem=  6710886400 cpu:               3.7 elap:               0.3
 (Enter /n/sw/g16_nehalem/g16/l302.exe)
 NPDir=0 NMtPBC=     1 NCelOv=     1 NCel=       1 NClECP=     1 NCelD=      1
         NCelK=      1 NCelE2=     1 NClLst=     1 CellRange=     0.0.
 One-electron integrals computed using PRISM.
 One-electron integral symmetry used in STVInt
 NBasis=   466 RedAO= T EigKep=  3.98D-04  NBF=   466
 NBsUse=   466 1.00D-06 EigRej= -1.00D+00 NBFU=   466
 Precomputing XC quadrature grid using
 IXCGrd= 4 IRadAn=           5 IRanWt=          -1 IRanGd=           0 AccXCQ= 0.00D+00.
 Generated NRdTot=       0 NPtTot=           0 NUsed=           0 NTot=          32
 NSgBfM=   458   458   458   458   458 MxSgAt=    49 MxSgA2=    49.
 Leave Link  302 at Tue Sep 24 11:24:05 2019, MaxMem=  6710886400 cpu:              12.5 elap:               0.8
 (Enter /n/sw/g16_nehalem/g16/l303.exe)
 DipDrv:  MaxL=1.
 Leave Link  303 at Tue Sep 24 11:24:05 2019, MaxMem=  6710886400 cpu:               3.3 elap:               0.3
 (Enter /n/sw/g16_nehalem/g16/l401.exe)
 ExpMin= 1.17D-01 ExpMax= 2.19D+04 ExpMxC= 3.30D+03 IAcc=3 IRadAn=         5 AccDes= 0.00D+00
 Harris functional with IExCor=  402 and IRadAn=       5 diagonalized for initial guess.
 HarFok:  IExCor=  402 AccDes= 0.00D+00 IRadAn=         5 IDoV= 1 UseB2=F ITyADJ=14
 ICtDFT=  3500011 ScaDFX=  1.000000  1.000000  1.000000  1.000000
 FoFCou: FMM=F IPFlag=           0 FMFlag=      100000 FMFlg1=           0
         NFxFlg=           0 DoJE=T BraDBF=F KetDBF=T FulRan=T
         wScrn=  0.000000 ICntrl=       500 IOpCl=  0 I1Cent=   200000004 NGrid=           0
         NMat0=    1 NMatS0=      1 NMatT0=    0 NMatD0=    1 NMtDS0=    0 NMtDT0=    0
 Petite list used in FoFCou.
 Harris En= -1897.19687251808    
 JPrj=0 DoOrth=F DoCkMO=F.
 Leave Link  401 at Tue Sep 24 11:24:08 2019, MaxMem=  6710886400 cpu:              47.8 elap:               3.1
 (Enter /n/sw/g16_nehalem/g16/l502.exe)
 Integral symmetry usage will be decided dynamically.
 Closed shell SCF:
 Using DIIS extrapolation, IDIIS=  1040.
 NGot=  6710886400 LenX=  6710439524 LenY=  6710221902
 Requested convergence on RMS density matrix=1.00D-08 within 128 cycles.
 Requested convergence on MAX density matrix=1.00D-06.
 Requested convergence on             energy=1.00D-06.
 No special actions if energy rises.
 Fock matrices will be formed incrementally for  20 cycles.

 Cycle   1  Pass 1  IDiag  1:
 FoFJK:  IHMeth= 1 ICntrl=       0 DoSepK=F KAlg= 0 I1Cent=           0 FoldK=F
 IRaf= 660000000 NMat=       1 IRICut=       1 DoRegI=T DoRafI=F ISym2E= 0 IDoP0=0 IntGTp=1.
 FoFCou: FMM=F IPFlag=           0 FMFlag=      100000 FMFlg1=           0
         NFxFlg=           0 DoJE=F BraDBF=F KetDBF=F FulRan=T
         wScrn=  0.000000 ICntrl=         0 IOpCl=  0 I1Cent=           0 NGrid=           0
         NMat0=    1 NMatS0=      1 NMatT0=    0 NMatD0=    1 NMtDS0=    0 NMtDT0=    0
 Symmetry not used in FoFCou.
 Inv3:  Mode=1 IEnd=    35315283.
 Iteration    1 A*A^-1 deviation from unit magnitude is 1.31D-14 for    425.
 Iteration    1 A*A^-1 deviation from orthogonality  is 3.25D-15 for   2275    417.
 Iteration    1 A^-1*A deviation from unit magnitude is 1.27D-14 for    425.
 Iteration    1 A^-1*A deviation from orthogonality  is 2.56D-15 for   3421   3224.
 E= -1896.70004280706    
 DIIS: error= 3.32D-02 at cycle   1 NSaved=   1.
 NSaved= 1 IEnMin= 1 EnMin= -1896.70004280706     IErMin= 1 ErrMin= 3.32D-02
 ErrMax= 3.32D-02  0.00D+00 EMaxC= 1.00D-01 BMatC= 6.95D-01 BMatP= 6.95D-01
 IDIUse=3 WtCom= 6.68D-01 WtEn= 3.32D-01
 Coeff-Com:  0.100D+01
 Coeff-En:   0.100D+01
 Coeff:      0.100D+01
 Gap=     0.250 Goal=   None    Shift=    0.000
 GapD=    0.250 DampG=1.000 DampE=0.500 DampFc=0.5000 IDamp=-1.
 Damping current iteration by 5.00D-01
 RMSDP=3.72D-03 MaxDP=2.19D-01              OVMax= 2.92D-01

 Cycle   2  Pass 1  IDiag  1:
 RMSU=  1.85D-03    CP:  9.86D-01
 E= -1896.93285593714     Delta-E=       -0.232813130073 Rises=F Damp=T
 DIIS: error= 7.92D-03 at cycle   2 NSaved=   2.
 NSaved= 2 IEnMin= 2 EnMin= -1896.93285593714     IErMin= 2 ErrMin= 7.92D-03
 ErrMax= 7.92D-03  0.00D+00 EMaxC= 1.00D-01 BMatC= 6.17D-02 BMatP= 6.95D-01
 IDIUse=3 WtCom= 9.21D-01 WtEn= 7.92D-02
 Coeff-Com:  0.139D+00 0.861D+00
 Coeff-En:   0.227D+00 0.773D+00
 Coeff:      0.146D+00 0.854D+00
 Gap=     0.247 Goal=   None    Shift=    0.000
 RMSDP=1.07D-03 MaxDP=7.99D-02 DE=-2.33D-01 OVMax= 1.82D-01

 Cycle   3  Pass 1  IDiag  1:
 RMSU=  1.01D-03    CP:  9.80D-01  8.21D-01
 E= -1897.26599171691     Delta-E=       -0.333135779773 Rises=F Damp=F
 DIIS: error= 1.22D-02 at cycle   3 NSaved=   3.
 NSaved= 3 IEnMin= 3 EnMin= -1897.26599171691     IErMin= 2 ErrMin= 7.92D-03
 ErrMax= 1.22D-02  0.00D+00 EMaxC= 1.00D-01 BMatC= 5.71D-02 BMatP= 6.17D-02
 IDIUse=3 WtCom= 8.78D-01 WtEn= 1.22D-01
 Coeff-Com:  0.297D-01 0.489D+00 0.482D+00
 Coeff-En:   0.000D+00 0.000D+00 0.100D+01
 Coeff:      0.261D-01 0.429D+00 0.545D+00
 Gap=     0.176 Goal=   None    Shift=    0.000
 RMSDP=7.40D-04 MaxDP=7.60D-02 DE=-3.33D-01 OVMax= 1.13D-01

 Cycle   4  Pass 1  IDiag  1:
 RMSU=  4.88D-04    CP:  9.84D-01  9.01D-01  4.72D-01
 E= -1897.29780151641     Delta-E=       -0.031809799498 Rises=F Damp=F
 DIIS: error= 6.71D-03 at cycle   4 NSaved=   4.
 NSaved= 4 IEnMin= 4 EnMin= -1897.29780151641     IErMin= 4 ErrMin= 6.71D-03
 ErrMax= 6.71D-03  0.00D+00 EMaxC= 1.00D-01 BMatC= 1.95D-02 BMatP= 5.71D-02
 IDIUse=3 WtCom= 9.33D-01 WtEn= 6.71D-02
 Coeff-Com: -0.431D-02 0.105D+00 0.372D+00 0.528D+00
 Coeff-En:   0.000D+00 0.000D+00 0.289D+00 0.711D+00
 Coeff:     -0.402D-02 0.980D-01 0.366D+00 0.540D+00
 Gap=     0.180 Goal=   None    Shift=    0.000
 RMSDP=3.15D-04 MaxDP=3.20D-02 DE=-3.18D-02 OVMax= 5.22D-02

 Cycle   5  Pass 1  IDiag  1:
 RMSU=  1.31D-04    CP:  9.83D-01  8.71D-01  6.40D-01  5.40D-01
 E= -1897.31269080515     Delta-E=       -0.014889288741 Rises=F Damp=F
 DIIS: error= 9.52D-04 at cycle   5 NSaved=   5.
 NSaved= 5 IEnMin= 5 EnMin= -1897.31269080515     IErMin= 5 ErrMin= 9.52D-04
 ErrMax= 9.52D-04  0.00D+00 EMaxC= 1.00D-01 BMatC= 9.91D-04 BMatP= 1.95D-02
 IDIUse=3 WtCom= 9.90D-01 WtEn= 9.52D-03
 Coeff-Com: -0.367D-02 0.181D-01 0.158D+00 0.299D+00 0.529D+00
 Coeff-En:   0.000D+00 0.000D+00 0.000D+00 0.000D+00 0.100D+01
 Coeff:     -0.363D-02 0.180D-01 0.156D+00 0.296D+00 0.533D+00
 Gap=     0.176 Goal=   None    Shift=    0.000
 RMSDP=6.99D-05 MaxDP=5.12D-03 DE=-1.49D-02 OVMax= 9.26D-03

 Cycle   6  Pass 1  IDiag  1:
 RMSU=  3.70D-05    CP:  9.83D-01  8.80D-01  6.39D-01  5.90D-01  6.06D-01
 E= -1897.31347328997     Delta-E=       -0.000782484817 Rises=F Damp=F
 DIIS: error= 2.50D-04 at cycle   6 NSaved=   6.
 NSaved= 6 IEnMin= 6 EnMin= -1897.31347328997     IErMin= 6 ErrMin= 2.50D-04
 ErrMax= 2.50D-04  0.00D+00 EMaxC= 1.00D-01 BMatC= 4.75D-05 BMatP= 9.91D-04
 IDIUse=3 WtCom= 9.98D-01 WtEn= 2.50D-03
 Coeff-Com: -0.135D-02 0.770D-03 0.428D-01 0.931D-01 0.251D+00 0.614D+00
 Coeff-En:   0.000D+00 0.000D+00 0.000D+00 0.000D+00 0.000D+00 0.100D+01
 Coeff:     -0.135D-02 0.768D-03 0.427D-01 0.929D-01 0.250D+00 0.615D+00
 Gap=     0.176 Goal=   None    Shift=    0.000
 RMSDP=1.52D-05 MaxDP=1.11D-03 DE=-7.82D-04 OVMax= 1.08D-03

 Cycle   7  Pass 1  IDiag  1:
 RMSU=  1.03D-05    CP:  9.83D-01  8.78D-01  6.42D-01  5.93D-01  6.22D-01
                    CP:  7.23D-01
 E= -1897.31350788269     Delta-E=       -0.000034592729 Rises=F Damp=F
 DIIS: error= 4.70D-05 at cycle   7 NSaved=   7.
 NSaved= 7 IEnMin= 7 EnMin= -1897.31350788269     IErMin= 7 ErrMin= 4.70D-05
 ErrMax= 4.70D-05  0.00D+00 EMaxC= 1.00D-01 BMatC= 3.30D-06 BMatP= 4.75D-05
 IDIUse=1 WtCom= 1.00D+00 WtEn= 0.00D+00
 Coeff-Com: -0.424D-03-0.696D-03 0.989D-02 0.240D-01 0.865D-01 0.288D+00
 Coeff-Com:  0.593D+00
 Coeff:     -0.424D-03-0.696D-03 0.989D-02 0.240D-01 0.865D-01 0.288D+00
 Coeff:      0.593D+00
 Gap=     0.176 Goal=   None    Shift=    0.000
 RMSDP=5.07D-06 MaxDP=4.49D-04 DE=-3.46D-05 OVMax= 4.96D-04

 Cycle   8  Pass 1  IDiag  1:
 RMSU=  2.94D-06    CP:  9.83D-01  8.78D-01  6.41D-01  5.94D-01  6.33D-01
                    CP:  7.41D-01  6.33D-01
 E= -1897.31351057125     Delta-E=       -0.000002688559 Rises=F Damp=F
 DIIS: error= 1.57D-05 at cycle   8 NSaved=   8.
 NSaved= 8 IEnMin= 8 EnMin= -1897.31351057125     IErMin= 8 ErrMin= 1.57D-05
 ErrMax= 1.57D-05  0.00D+00 EMaxC= 1.00D-01 BMatC= 3.87D-07 BMatP= 3.30D-06
 IDIUse=1 WtCom= 1.00D+00 WtEn= 0.00D+00
 Coeff-Com: -0.879D-04-0.368D-03 0.101D-02 0.304D-02 0.208D-01 0.850D-01
 Coeff-Com:  0.303D+00 0.587D+00
 Coeff:     -0.879D-04-0.368D-03 0.101D-02 0.304D-02 0.208D-01 0.850D-01
 Coeff:      0.303D+00 0.587D+00
 Gap=     0.176 Goal=   None    Shift=    0.000
 RMSDP=1.47D-06 MaxDP=1.39D-04 DE=-2.69D-06 OVMax= 1.36D-04

 Cycle   9  Pass 1  IDiag  1:
 RMSU=  9.11D-07    CP:  9.83D-01  8.78D-01  6.41D-01  5.94D-01  6.35D-01
                    CP:  7.43D-01  6.84D-01  6.76D-01
 E= -1897.31351087764     Delta-E=       -0.000000306390 Rises=F Damp=F
 DIIS: error= 4.51D-06 at cycle   9 NSaved=   9.
 NSaved= 9 IEnMin= 9 EnMin= -1897.31351087764     IErMin= 9 ErrMin= 4.51D-06
 ErrMax= 4.51D-06  0.00D+00 EMaxC= 1.00D-01 BMatC= 3.46D-08 BMatP= 3.87D-07
 IDIUse=1 WtCom= 1.00D+00 WtEn= 0.00D+00
 Coeff-Com: -0.159D-05-0.117D-03-0.468D-03-0.941D-03 0.215D-02 0.146D-01
 Coeff-Com:  0.975D-01 0.298D+00 0.589D+00
 Coeff:     -0.159D-05-0.117D-03-0.468D-03-0.941D-03 0.215D-02 0.146D-01
 Coeff:      0.975D-01 0.298D+00 0.589D+00
 Gap=     0.176 Goal=   None    Shift=    0.000
 RMSDP=5.30D-07 MaxDP=4.54D-05 DE=-3.06D-07 OVMax= 4.81D-05

 Cycle  10  Pass 1  IDiag  1:
 RMSU=  3.34D-07    CP:  9.83D-01  8.78D-01  6.41D-01  5.94D-01  6.35D-01
                    CP:  7.45D-01  7.01D-01  7.27D-01  6.72D-01
 E= -1897.31351090598     Delta-E=       -0.000000028333 Rises=F Damp=F
 DIIS: error= 1.35D-06 at cycle  10 NSaved=  10.
 NSaved=10 IEnMin=10 EnMin= -1897.31351090598     IErMin=10 ErrMin= 1.35D-06
 ErrMax= 1.35D-06  0.00D+00 EMaxC= 1.00D-01 BMatC= 3.27D-09 BMatP= 3.46D-08
 IDIUse=1 WtCom= 1.00D+00 WtEn= 0.00D+00
 Coeff-Com:  0.482D-05-0.252D-04-0.265D-03-0.624D-03-0.375D-03 0.962D-03
 Coeff-Com:  0.251D-01 0.102D+00 0.303D+00 0.569D+00
 Coeff:      0.482D-05-0.252D-04-0.265D-03-0.624D-03-0.375D-03 0.962D-03
 Coeff:      0.251D-01 0.102D+00 0.303D+00 0.569D+00
 Gap=     0.176 Goal=   None    Shift=    0.000
 RMSDP=1.72D-07 MaxDP=1.13D-05 DE=-2.83D-08 OVMax= 1.55D-05

 Cycle  11  Pass 1  IDiag  1:
 RMSU=  1.03D-07    CP:  9.83D-01  8.78D-01  6.41D-01  5.94D-01  6.35D-01
                    CP:  7.46D-01  7.00D-01  7.32D-01  7.36D-01  6.58D-01
 E= -1897.31351090885     Delta-E=       -0.000000002870 Rises=F Damp=F
 DIIS: error= 6.75D-07 at cycle  11 NSaved=  11.
 NSaved=11 IEnMin=11 EnMin= -1897.31351090885     IErMin=11 ErrMin= 6.75D-07
 ErrMax= 6.75D-07  0.00D+00 EMaxC= 1.00D-01 BMatC= 3.53D-10 BMatP= 3.27D-09
 IDIUse=1 WtCom= 1.00D+00 WtEn= 0.00D+00
 Coeff-Com:  0.314D-05-0.919D-06-0.106D-03-0.259D-03-0.534D-03-0.138D-02
 Coeff-Com:  0.166D-02 0.193D-01 0.916D-01 0.298D+00 0.592D+00
 Coeff:      0.314D-05-0.919D-06-0.106D-03-0.259D-03-0.534D-03-0.138D-02
 Coeff:      0.166D-02 0.193D-01 0.916D-01 0.298D+00 0.592D+00
 Gap=     0.176 Goal=   None    Shift=    0.000
 RMSDP=5.44D-08 MaxDP=2.44D-06 DE=-2.87D-09 OVMax= 6.71D-06

 Cycle  12  Pass 1  IDiag  1:
 RMSU=  3.37D-08    CP:  9.83D-01  8.78D-01  6.41D-01  5.94D-01  6.35D-01
                    CP:  7.45D-01  7.00D-01  7.38D-01  7.42D-01  7.19D-01
                    CP:  6.87D-01
 E= -1897.31351090920     Delta-E=       -0.000000000357 Rises=F Damp=F
 DIIS: error= 1.89D-07 at cycle  12 NSaved=  12.
 NSaved=12 IEnMin=12 EnMin= -1897.31351090920     IErMin=12 ErrMin= 1.89D-07
 ErrMax= 1.89D-07  0.00D+00 EMaxC= 1.00D-01 BMatC= 3.69D-11 BMatP= 3.53D-10
 IDIUse=1 WtCom= 1.00D+00 WtEn= 0.00D+00
 Coeff-Com:  0.850D-06 0.183D-05-0.187D-04-0.471D-04-0.203D-03-0.738D-03
 Coeff-Com: -0.200D-02-0.256D-02 0.891D-02 0.818D-01 0.294D+00 0.620D+00
 Coeff:      0.850D-06 0.183D-05-0.187D-04-0.471D-04-0.203D-03-0.738D-03
 Coeff:     -0.200D-02-0.256D-02 0.891D-02 0.818D-01 0.294D+00 0.620D+00
 Gap=     0.176 Goal=   None    Shift=    0.000
 RMSDP=1.91D-08 MaxDP=1.33D-06 DE=-3.57D-10 OVMax= 2.10D-06

 Cycle  13  Pass 1  IDiag  1:
 RMSU=  1.09D-08    CP:  9.83D-01  8.78D-01  6.41D-01  5.94D-01  6.35D-01
                    CP:  7.46D-01  7.01D-01  7.38D-01  7.45D-01  7.30D-01
                    CP:  7.73D-01  6.52D-01
 E= -1897.31351090927     Delta-E=       -0.000000000064 Rises=F Damp=F
 DIIS: error= 1.04D-07 at cycle  13 NSaved=  13.
 NSaved=13 IEnMin=13 EnMin= -1897.31351090927     IErMin=13 ErrMin= 1.04D-07
 ErrMax= 1.04D-07  0.00D+00 EMaxC= 1.00D-01 BMatC= 3.97D-12 BMatP= 3.69D-11
 IDIUse=1 WtCom= 1.00D+00 WtEn= 0.00D+00
 Coeff-Com:  0.205D-06 0.724D-06 0.633D-06 0.120D-05-0.512D-04-0.222D-03
 Coeff-Com: -0.112D-02-0.308D-02-0.424D-02 0.120D-01 0.813D-01 0.305D+00
 Coeff-Com:  0.611D+00
 Coeff:      0.205D-06 0.724D-06 0.633D-06 0.120D-05-0.512D-04-0.222D-03
 Coeff:     -0.112D-02-0.308D-02-0.424D-02 0.120D-01 0.813D-01 0.305D+00
 Coeff:      0.611D+00
 Gap=     0.176 Goal=   None    Shift=    0.000
 RMSDP=5.78D-09 MaxDP=3.67D-07 DE=-6.37D-11 OVMax= 9.53D-07

 Error on total polarization charges =  0.03488
 SCF Done:  E(RB3LYP) =  -1897.31351091     A.U. after   13 cycles
            NFock= 13  Conv=0.58D-08     -V/T= 2.0069
 KE= 1.884272397976D+03 PE=-1.052472068613D+04 EE= 3.712521035462D+03
 SMD-CDS (non-electrostatic) energy       (kcal/mol) =      -4.37
 (included in total energy above)
 Leave Link  502 at Tue Sep 24 11:25:41 2019, MaxMem=  6710886400 cpu:            1430.2 elap:              92.7
 (Enter /n/sw/g16_nehalem/g16/l601.exe)
 Copying SCF densities to generalized density rwf, IOpCl= 0 IROHF=0.

 **********************************************************************

            Population analysis using the SCF density.

 **********************************************************************

 Orbital symmetries:
       Occupied  (A) (A) (A) (A) (A) (A) (A) (A) (A) (A) (A) (A)
                 (A) (A) (A) (A) (A) (A) (A) (A) (A) (A) (A) (A)
                 (A) (A) (A) (A) (A) (A) (A) (A) (A) (A) (A) (A)
                 (A) (A) (A) (A) (A) (A) (A) (A) (A) (A) (A) (A)
                 (A) (A) (A) (A) (A) (A) (A) (A) (A) (A) (A) (A)
                 (A) (A) (A) (A) (A) (A) (A) (A) (A) (A) (A) (A)
                 (A) (A) (A) (A) (A) (A) (A) (A) (A) (A) (A) (A)
                 (A) (A) (A) (A) (A) (A) (A) (A) (A) (A) (A) (A)
                 (A) (A) (A) (A) (A) (A) (A) (A) (A) (A) (A) (A)
                 (A) (A) (A)
       Virtual   (A) (A) (A) (A) (A) (A) (A) (A) (A) (A) (A) (A)
                 (A) (A) (A) (A) (A) (A) (A) (A) (A) (A) (A) (A)
                 (A) (A) (A) (A) (A) (A) (A) (A) (A) (A) (A) (A)
                 (A) (A) (A) (A) (A) (A) (A) (A) (A) (A) (A) (A)
                 (A) (A) (A) (A) (A) (A) (A) (A) (A) (A) (A) (A)
                 (A) (A) (A) (A) (A) (A) (A) (A) (A) (A) (A) (A)
                 (A) (A) (A) (A) (A) (A) (A) (A) (A) (A) (A) (A)
                 (A) (A) (A) (A) (A) (A) (A) (A) (A) (A) (A) (A)
                 (A) (A) (A) (A) (A) (A) (A) (A) (A) (A) (A) (A)
                 (A) (A) (A) (A) (A) (A) (A) (A) (A) (A) (A) (A)
                 (A) (A) (A) (A) (A) (A) (A) (A) (A) (A) (A) (A)
                 (A) (A) (A) (A) (A) (A) (A) (A) (A) (A) (A) (A)
                 (A) (A) (A) (A) (A) (A) (A) (A) (A) (A) (A) (A)
                 (A) (A) (A) (A) (A) (A) (A) (A) (A) (A) (A) (A)
                 (A) (A) (A) (A) (A) (A) (A) (A) (A) (A) (A) (A)
                 (A) (A) (A) (A) (A) (A) (A) (A) (A) (A) (A) (A)
                 (A) (A) (A) (A) (A) (A) (A) (A) (A) (A) (A) (A)
                 (A) (A) (A) (A) (A) (A) (A) (A) (A) (A) (A) (A)
                 (A) (A) (A) (A) (A) (A) (A) (A) (A) (A) (A) (A)
                 (A) (A) (A) (A) (A) (A) (A) (A) (A) (A) (A) (A)
                 (A) (A) (A) (A) (A) (A) (A) (A) (A) (A) (A) (A)
                 (A) (A) (A) (A) (A) (A) (A) (A) (A) (A) (A) (A)
                 (A) (A) (A) (A) (A) (A) (A) (A) (A) (A) (A) (A)
                 (A) (A) (A) (A) (A) (A) (A) (A) (A) (A) (A) (A)
                 (A) (A) (A) (A) (A) (A) (A) (A) (A) (A) (A) (A)
                 (A) (A) (A) (A) (A) (A) (A) (A) (A) (A) (A) (A)
                 (A) (A) (A) (A) (A) (A) (A) (A) (A) (A) (A) (A)
                 (A) (A) (A) (A) (A) (A) (A) (A) (A) (A) (A) (A)
                 (A) (A) (A) (A) (A) (A) (A) (A) (A) (A) (A) (A)
                 (A) (A) (A) (A) (A) (A) (A)
 The electronic state is 1-A.
[...]
 1745,0.00002485,-0.00000715,-0.00001217,-0.00001597,0.00001286,0.00000
 845,-0.00000512,-0.00000074,0.00000196,-0.00001065,0.00000139,0.000005
 73,-0.00000502,0.00000582,0.00000759,0.00000529,-0.00000121,0.00000277
 ,0.00000366,-0.00000762,0.00000231,0.00000407,-0.00000249,0.00016076,-
 0.00000566,0.00002492,0.00034336,0.00037185,-0.00024572,0.00012876,0.0
 0002426,-0.00003576,-0.00004958,0.00000622,0.00002720,-0.00005250,-0.0
 0004717,0.00001377,0.00000740,-0.00003936,0.00003188,0.00000522,0.0000
 0976,-0.00000715,0.00000245,-0.00000432,-0.00000423,-0.00000089,0.0000
 2893,0.00000220,0.00003961,0.00001672,-0.00003660,-0.00000373,0.000036
 98,0.00000177,0.00001038,0.00000955,-0.00001438,-0.00001541,0.00000426
 ,-0.00001894,-0.00000287,0.00000076,0.00002815,-0.00000752,0.00004447,
 -0.00003373,-0.00023559,-0.00023895,-0.00005288,-0.00001592,0.00000074
 ,-0.00001338,0.00971946,-0.06753028,0.06071828,0.00073372,0.00015055,-
 0.00102873,-0.00903244,0.07843329,0.00108164,0.00068359,0.00059130,-0.
 00009770,-0.00014554,0.00018899,-0.00025955,-0.00006304,-0.00011903,0.
 00087560,0.00458810,-0.00242783,-0.00184097,-0.00020099,-0.00167391,-0
 .00223523,-0.00429644,-0.00116821,0.00002571,0.00011846,-0.00014378,-0
 .00003300,0.00002308,-0.00003584,-0.00013516,-0.00002503,0.00003582,-0
 .00003805,-0.00001349,0.00001410,0.00000654,0.00000797,-0.00000557,0.0
 0000696,0.00000427,-0.00000090,-0.00000218,-0.00000056,-0.00000007,-0.
 00000262,-0.00000350,-0.00000011,0.00000452,-0.00000372,0.00000119,-0.
 00000055,0.00000076,0.00000037,0.00000531,-0.00000093,-0.00000063,0.00
 000011,-0.00000007,-0.00000008,-0.00000596,0.00002085,-0.00000542,-0.0
 0000803,-0.00000397,0.00000189,0.00000296,-0.00000391,0.00000077,-0.00
 000065,-0.00001004,0.00000100,0.00000268,-0.00000409,0.00000327,0.0000
 0457,0.00000198,0.00000042,0.00000173,0.00000085,-0.00000103,0.0000022
 4,0.00000017,-0.00000045,0.00008787,-0.00000966,0.00002161,0.00001724,
 0.00002615,-0.00000304,0.00009327,-0.00000187,-0.00003892,-0.00004518,
 0.00001180,0.00001953,-0.00001420,0.00001459,-0.00001378,-0.00000476,0
 .00002713,0.00000952,-0.00000026,-0.00000305,0.00000068,0.00000343,-0.
 00000281,0.00000046,0.00000196,0.00002385,0.00000283,0.00000672,-0.000
 01316,-0.00000306,-0.00000377,0.00000799,0.00001503,0.00000436,-0.0000
 0043,0.00000184,-0.00000848,0.00001271,0.00000903,0.00001585,-0.000005
 18,-0.00001653,-0.00000242,-0.00001656,0.00000876,-0.00000247,-0.00004
 231,-0.00002115,-0.00000331,0.00000298,-0.00000394,-0.03442874,0.07236
 255,-0.31070609,-0.00044007,-0.00026861,-0.00212210,0.04086412,-0.0768
 9199,0.33303311,0.00005732,0.00019795,-0.00071456,-0.00004802,0.000526
 45,-0.00002582,0.00001792,-0.00002223,-0.00018875,0.00978503,-0.012996
 59,-0.01087152,0.00091519,-0.00203764,0.00105128,-0.00001115,0.0007444
 5,-0.00011952,-0.00071693,0.00047939,0.00010195,0.00000157,-0.00001892
 ,-0.00000508,0.00016784,0.00000433,-0.00016419,0.00002801,0.00002006,-
 0.00001020,-0.00000568,-0.00000572,0.00000341,-0.00000917,-0.00000546,
 0.00000274,0.00000228,0.00000085,0.00000036,0.00000189,0.00000204,0.00
 000028,-0.00000343,0.00000315,-0.00000232,-0.00000079,0.00000010,-0.00
 000088,-0.00000406,0.00000068,0.00000038,-0.00000003,0.00000029,-0.000
 00005,-0.00000297,-0.00001213,0.00000320,0.00000104,0.00000116,0.00000
 094,0.00000086,0.00000203,-0.00000116,0.00000218,0.00000646,-0.0000003
 9,-0.00000010,0.00000208,-0.00000131,-0.00000099,-0.00000064,-0.000000
 39,-0.00000019,0.,-0.00000051,-0.00000028,-0.00000039,-0.00000036,-0.0
 0010960,0.00001837,-0.00000641,-0.00032473,-0.00033688,0.00006448,0.00
 001715,0.00015704,0.00002253,0.00000762,-0.00000015,0.00000397,0.00001
 296,-0.00003220,0.00000507,0.00006082,-0.00007181,-0.00003886,-0.00000
 064,0.00000276,-0.00000338,0.00000209,0.00000614,0.00000254,0.00000196
 ,-0.00000656,-0.00000231,-0.00000828,0.00001151,-0.00000267,0.00000207
 ,-0.00000455,-0.00001318,0.00000442,0.00000584,0.00000131,0.00000211,-
 0.00002852,-0.00000331,-0.00005020,-0.00003433,0.00000585,0.00000048,0
 .00001616,-0.00000754,0.00000329,0.00001456,0.00002020,0.00000070,-0.0
 0000914,0.00000130,-0.11976375,0.08383662,0.08132823,-0.01572401,0.019
 36686,0.02021997,0.00319294,-0.00429299,-0.00346341,0.12274654,-0.0001
 5188,0.00077138,-0.00342338,0.00009180,0.00040479,0.00107521,-0.000245
 00,0.00026664,0.00020375,0.00479287,-0.03613239,-0.01949412,0.00569372
 ,-0.00213124,0.00707471,-0.00027258,0.00146322,-0.00334189,-0.00105639
 ,0.00077876,0.00013837,0.,-0.00009184,-0.00007049,0.00076385,0.0001191
 0,-0.00055548,0.00017022,0.00007176,-0.00005358,-0.00003051,-0.0000299
 5,0.00002145,-0.00004056,-0.00000849,0.00000271,0.00000769,-0.00000261
 ,0.00000390,0.00001095,0.00001127,-0.00000163,-0.00001377,0.00001098,-
 0.00000608,0.00000439,-0.00000261,-0.00000115,-0.00002515,0.00000268,0
 .00000424,-0.00000089,-0.00000006,-0.00000075,0.00003481,-0.00005565,0
 .00000338,0.00002782,0.00002905,-0.00003395,-0.00001926,0.00001137,0.0
 0000470,-0.00000317,0.00002391,0.00000016,-0.00001065,0.00001091,-0.00
 000710,-0.00001608,-0.00001058,0.00000363,-0.00000625,-0.00000644,0.00
 001987,-0.00000677,-0.00000624,0.00000645,-0.00043438,0.00002638,-0.00
 004649,-0.00085168,-0.00080873,0.00043354,-0.00015621,0.00034266,0.000
 11301,0.00007824,-0.00000675,-0.00005467,0.00011950,-0.00005121,-0.000
 01678,0.00009242,-0.00001849,-0.00013406,-0.00000418,-0.00000209,0.000
 00502,-0.00001408,0.00000186,0.00000523,0.00000165,-0.00005985,-0.0000
 0734,-0.00007958,0.00001429,0.00006414,0.00001304,-0.00004812,-0.00005
 072,-0.00001164,0.00000989,0.00000105,0.00002109,-0.00009456,0.0000029
 5,-0.00013439,-0.00002371,0.00005729,-0.00000762,0.00002300,0.00001576
 ,0.00014002,0.00023548,0.00006169,0.00002039,-0.00000822,0.00002189,0.
 08126161,-0.14171138,-0.09263449,0.00112520,0.00170445,0.00030183,-0.0
 0555082,0.00723743,0.00414840,-0.08539588,0.16784242,-0.00060853,0.001
 08153,0.00155411,0.00033695,-0.00073927,0.00012472,-0.00000841,-0.0001
 4453,0.00015558,-0.00631214,0.00318277,0.00484927,0.00101670,0.0005873
 5,0.00007032,-0.00105429,-0.00020712,0.00058871,0.00058042,-0.00015477
 ,-0.00028616,-0.00000032,0.00002011,-0.00002073,0.00016571,-0.00001038
 ,-0.00005645,0.00003632,0.00000969,-0.00001581,-0.00000813,-0.00000894
 ,0.00000626,-0.00000498,-0.00000734,0.00000517,0.00000489,0.00000298,0
 .00000018,0.00000262,0.00000240,-0.00000107,-0.00000668,0.00000516,-0.
 00000034,-0.00000076,-0.00000069,-0.00000329,-0.00000530,0.00000262,0.
 00000028,-0.00000017,0.00000012,-0.00000063,-0.00000490,-0.00003456,-0
 .00000216,0.00000684,-0.00001009,-0.00000222,0.00000073,0.00000573,-0.
 00000059,0.00000486,0.00001882,0.00000044,0.00000018,0.00000660,0.0000
 0191,-0.00000231,0.00000110,-0.00000021,-0.00000114,0.00000243,0.00000
 091,-0.00000419,0.00000549,0.00000084,-0.00009119,0.00002415,-0.000022
 30,-0.00017300,-0.00003889,0.00010423,-0.00011301,-0.00004688,0.000038
 31,0.00004257,-0.00001245,-0.00002631,0.00003357,0.00002098,-0.0000096
 0,-0.00000829,0.00002931,0.00000472,0.00000015,-0.00000337,0.00000518,
 -0.00000824,-0.00000361,-0.00000326,-0.00000368,-0.00002449,-0.0000009
 1,-0.00001708,-0.00000372,0.00003097,0.00000474,-0.00001862,-0.0000076
 7,-0.00001040,-0.00000746,-0.00000255,0.00000753,-0.00000810,0.0000017
 3,-0.00003992,0.00002026,0.00000164,-0.00000637,-0.00000767,0.00000787
 ,0.00006356,0.00002506,0.00000228,0.00000292,-0.00001369,-0.00000386,0
 .08045840,-0.09537016,-0.14604419,-0.00428971,0.00572656,0.00532375,0.
 01740194,-0.01929120,-0.01542334,-0.08756061,0.10554797,0.14907169,-0.
 30679371,0.02986599,-0.01428673,-0.00951343,0.00052758,0.00073154,-0.0
 1238482,0.00231008,0.00014160,-0.00271919,0.00000172,-0.01137437,0.000
 89793,0.00266364,0.00352904,-0.00057144,0.00025933,-0.00183942,-0.0000
 2212,0.00017954,0.00019361,0.00010521,0.00012617,-0.00009557,0.0004096
 4,0.00005686,-0.00011544,0.00012194,0.00004490,-0.00002736,-0.00002088
 ,-0.00001993,0.00001166,-0.00002474,-0.00000014,-0.00000725,0.00000230
 ,-0.00000800,0.00000036,0.00000760,0.00001268,0.00000216,-0.00000688,0
 .00000210,-0.00000432,0.00000602,-0.00000260,0.00000631,-0.00001833,0.
 00000120,0.00000251,-0.00000038,0.00000035,0.00000154,0.00005007,-0.00
 001596,0.00002202,0.00002422,0.00005754,-0.00002045,-0.00002171,0.0000
 0500,0.00000193,-0.00001116,0.00000136,-0.00000411,-0.00001469,0.00000
 361,-0.00001765,-0.00001803,-0.00001579,0.00000154,-0.00000629,-0.0000
 1338,0.00001249,0.00000024,-0.00001931,0.00000318,-0.00023173,-0.00000
 375,-0.00006683,-0.00024172,-0.00024317,-0.00001572,-0.00031167,0.0001
 7997,0.00016968,0.00015432,-0.00005437,-0.00001897,0.00015578,-0.00002
 437,-0.00000689,0.00010675,0.00018129,-0.00015341,-0.00001780,0.000000
 92,0.00000443,0.00001656,0.00003657,0.00001137,-0.00000936,-0.00006145
 ,-0.00000887,-0.00006715,0.00001684,0.00003887,0.00000730,-0.00003899,
 -0.00004112,0.00001374,0.00000400,0.00004064,0.00006882,0.00002312,0.0
 0015689,0.00003248,0.00008458,-0.00008233,-0.00006080,-0.00018113,0.00
 037688,0.00007051,0.00014180,0.00001219,0.00001082,0.00001904,0.000030
 87,0.00049952,-0.00096536,0.00039287,0.00009569,0.00086014,-0.00022423
 ,0.00027290,0.00003797,-0.00007955,-0.00023170,0.00019817,0.00020667,0
 .33026842,0.02949092,-0.05537099,0.00074735,0.02232244,-0.00198635,0.0
 0066922,-0.02864530,0.00599371,-0.00226912,0.01255139,-0.00133390,0.00
 818822,-0.00077537,-0.00252887,-0.00217151,0.00029491,0.00018613,0.001
 70721,-0.00042549,0.00003949,0.00007861,0.00033043,0.00036557,0.000057
 55,-0.00001631,-0.00003029,0.00012353,0.00000338,0.00000334,0.00000059
 ,-0.00000191,-0.00000441,-0.00000014,0.00000261,-0.00000302,0.00000093
 ,0.00000140,-0.00000034,-0.00000173,0.00000057,0.00000414,0.00000159,-
 0.00000348,-0.00000043,0.00000002,-0.00000068,0.00000053,0.00000027,-0
 .00000135,0.00000219,-0.00000021,-0.00000013,0.00000052,0.00000033,-0.
 00000228,-0.00000230,0.00000265,-0.00000194,0.00000434,0.00000174,0.00
 000126,0.00000019,-0.00000097,0.00000091,0.00000127,-0.00000049,0.0000
 0017,0.00000032,-0.00000114,0.00000032,-0.00000072,-0.00000023,0.00000
 028,-0.00000082,-0.00000113,0.00000161,-0.00000237,-0.00000076,-0.0000
 0197,0.00001221,-0.00002358,0.00009002,0.00014638,-0.00043615,-0.00011
 720,-0.00000052,0.00000662,0.00001083,0.00000471,0.00002485,0.00006484
 ,-0.00002130,0.00001936,-0.00003655,0.00014520,-0.00007405,-0.00000867
 ,0.00001275,-0.00000229,0.00001712,0.00001766,0.00000437,0.00000507,0.
 00000021,-0.00000733,0.00003440,-0.00000108,-0.00002503,-0.00000070,0.
 00002658,-0.00001568,-0.00000109,-0.00000764,0.00003191,0.00003925,0.0
 0006826,0.00009592,0.00006564,0.00007971,-0.00017412,-0.00017513,-0.00
 032895,-0.00001042,-0.00014158,-0.00012834,-0.00004830,-0.00000784,-0.
 00000175,-0.00000048,0.00196666,0.00128989,0.00004946,-0.00058237,0.00
 000457,-0.00016439,-0.00008530,0.00015815,-0.00007322,-0.00010407,-0.0
 0002102,-0.00015753,-0.03615644,0.05321651,-0.00973388,0.00117448,-0.0
 4846718,0.02251113,-0.00181555,0.00304649,0.00361385,-0.00174233,0.000
 51837,-0.03760190,0.00511696,-0.01632375,-0.00046089,0.00616258,0.0036
 9531,-0.00032563,-0.00063031,-0.00440949,0.00023503,0.00019379,-0.0000
 7987,-0.00002549,-0.00008451,-0.00000557,0.00042191,0.00010617,-0.0003
 4100,0.00007805,0.00002690,-0.00002174,-0.00001381,-0.00001054,0.00000
 886,-0.00002013,0.00000153,-0.00000109,0.00000171,-0.00000272,0.000003
 49,0.00000431,0.00000328,-0.00000160,-0.00000257,0.00000346,-0.0000023
 3,0.00000333,-0.00000175,-0.00000050,-0.00001129,-0.00000042,0.0000024
 9,-0.00000045,-0.00000039,-0.00000064,0.00001863,-0.00001550,-0.000003
 25,0.00000935,0.00001701,-0.00002045,-0.00001035,0.00000365,0.00000399
 ,-0.00000324,0.00000551,0.00000117,-0.00000471,0.00000308,-0.00000144,
 -0.00000588,-0.00000528,0.00000285,-0.00000224,-0.00000375,0.00001212,
 -0.00000166,-0.00000483,0.00000373,-0.00019004,-0.00000032,-0.00000631
 ,-0.00036755,-0.00039556,0.00030393,-0.00044624,0.00007191,0.00004798,
 0.00018094,-0.00004925,-0.00003606,0.00014362,0.00001326,-0.00001977,-
 0.00007989,-0.00016320,0.00011743,-0.00000785,-0.00000749,0.00000718,0
 .00001321,0.00003518,0.00000132,-0.00000842,-0.00006775,-0.00000252,-0
 .00009961,0.00001207,0.00005314,0.00001283,-0.00005623,-0.00002274,0.0
 0000856,0.00001234,0.00003427,0.00006557,0.00008678,0.00004765,-0.0000
 2157,0.00012882,-0.00033709,-0.00002356,-0.00018322,-0.00002075,0.0002
 0211,0.00023880,0.00000258,0.00002007,0.00000222,0.00001332,-0.0014392
 8,-0.00242890,0.00051245,0.00074538,0.00025485,0.00039680,0.00001289,-
 0.00026394,-0.00001696,0.00032403,0.00037573,-0.00004920,0.02234578,-0
 .00607088,0.06117096,0.00013234,-0.00011271,0.00029341,-0.00001852,-0.
 00002453,-0.00012293,0.00018944,0.00007419,0.00012392,-0.00053417,-0.0
 0060707,-0.00061779,0.00116540,0.00253060,0.00238693,-0.00066523,-0.00
 226064,0.00006272,-0.00405838,-0.00412310,0.00384443,-0.00152240,-0.00
 136877,0.00311060,-0.04677198,-0.00140255,0.00286484,0.00017218,0.0021
 0694,-0.00299411,-0.00464845,-0.00310392,-0.00223328,0.00205996,-0.000
 81856,0.00009384,0.00062918,-0.00051688,-0.00083124,-0.00343298,0.0004
 6421,-0.00224214,-0.00190267,-0.00028546,0.00040395,0.00006689,-0.0000
 3287,0.00002426,-0.00050864,0.00137805,-0.00006178,-0.00006429,0.00014
 192,0.00015463,0.00102823,-0.00116735,0.00056059,0.00049009,0.00147591
 ,-0.00105540,-0.00042335,0.00018622,-0.00000901,-0.00007946,0.00041992
 ,-0.00010017,-0.00035244,0.00025358,-0.00045258,-0.00033347,-0.0003129
 3,0.00010270,-0.00006595,-0.00031122,0.00054786,0.00014589,-0.00050795
 ,0.00015214,0.00290937,0.01048415,-0.02237290,-0.00065467,-0.01252801,
 0.02439186,0.00084480,-0.00065597,0.00010914,-0.00066328,0.00081330,-0
 .00043978,-0.00038495,0.00042932,0.00000338,0.00015771,0.00007383,0.00
 019686,0.00000588,-0.00020357,0.00096002,-0.00002163,-0.00014570,-0.00
 026851,-0.00028431,0.00003881,0.00047833,0.00004944,-0.00006682,-0.000
 01085,-0.00016519,0.00007429,0.00021441,0.00002299,-0.00004004,-0.0001
 4621,-0.00013785,0.00005662,0.00001571,-0.00001657,-0.00004703,-0.0000
 2953,0.00003397,-0.00001293,-0.00000388,-0.00247054,-0.00048533,0.0001
 1384,-0.00290498,0.00000019,-0.00202289,0.00003145,0.00033340,-0.00016
 282,-0.00007338,-0.00009236,-0.00002946,0.00007134,0.00007054,0.000040
 89,-0.00001956,-0.00013007,-0.00003455,-0.00007905,-0.00000329,-0.0000
 6415,0.06305174,0.00009135,-0.00017013,0.00023967,0.00000991,0.0000081
 4,-0.00006635,0.00011668,-0.00004610,0.00009145,-0.00051297,-0.0005504
 0,-0.00030974,0.00056021,0.00109280,0.00029513,-0.00050076,-0.00062504
 ,-0.00024769,0.00240294,-0.00176822,0.00295273,-0.00079558,-0.00105239
 ,0.00027648,-0.00410612,-0.07457141,0.06190405,-0.00565519,-0.00197900
 ,0.00068485,-0.00043841,-0.00160034,-0.00121254,0.00120598,-0.00012767
 ,-0.00009423,-0.00051325,0.00081535,-0.00036575,-0.00076613,0.00099003
 ,-0.00054635,-0.00043951,0.00013621,0.00019383,-0.00009282,0.00009512,
 -0.00017532,0.00034977,0.00008072,0.00014116,-0.00007952,0.00009177,0.
 00000576,-0.00013701,0.00000043,-0.00003154,0.00048907,-0.00046859,0.0
 0007666,0.00010199,-0.00003242,-0.00003759,0.00007005,0.00003220,-0.00
 000461,0.00002126,0.00001476,0.00002983,-0.00014049,0.00006957,-0.0000
 5847,-0.00004932,0.00010091,-0.00011971,-0.00015511,0.00023164,-0.0000
 1386,0.01160737,0.00131413,0.02120864,-0.01224585,0.00059122,0.0232372
 3,0.00022592,-0.00074412,-0.00008503,0.00039379,-0.00073982,0.00005992
 ,-0.00005752,0.00053512,0.00014635,-0.00002292,0.00038371,0.00019946,-
 0.00041776,0.00033252,-0.00087434,0.00011557,-0.00012461,0.00064771,0.
 00038052,0.00027313,-0.00040461,0.00002803,0.00001606,-0.00011973,-0.0
 0017967,0.00001985,0.00013724,-0.00007459,-0.00009500,-0.00025213,-0.0
 0018898,0.00001162,-0.00004058,0.00009931,0.00001515,-0.00001327,-0.00
 002898,-0.00003730,-0.00006650,-0.00096507,0.00344693,0.00054269,0.000
 38970,0.00250269,0.00093362,0.00004578,0.00016644,-0.00018945,-0.00006
 360,-0.00006379,-0.00001453,0.00005074,0.00004533,0.00001595,-0.000010
 55,-0.00008144,-0.00000367,-0.00007992,-0.00000913,-0.00004576,0.00996
 163,0.07147337,-0.00003537,0.00050964,-0.00050921,0.00008945,0.0001086
 0,0.00022536,0.00017086,-0.00010883,-0.00018198,0.00091142,0.00128637,
 0.00095098,-0.00086398,-0.00134765,-0.00206803,0.00194014,0.00118977,0
 .00133979,-0.00598847,0.00148552,-0.00509057,0.00191705,0.00020391,0.0
 0007581,0.00302024,0.06531000,-0.17390841,0.00961444,0.00222282,-0.003
 01073,-0.00324716,-0.00183051,0.00081773,-0.00216859,0.00029817,0.0003
 4003,-0.00028597,-0.00014867,-0.00019164,-0.00231772,-0.00011889,-0.00
 118432,0.00025370,0.00021502,-0.00055028,0.00021208,-0.00018193,0.0001
 6747,-0.00088286,-0.00037985,0.00033619,-0.00000699,0.00005125,0.00012
 316,0.00077923,-0.00088633,0.00007843,-0.00015717,0.00123613,-0.001298
 32,-0.00042702,0.00020077,0.00012360,-0.00012947,0.00033309,-0.0000026
 8,-0.00022772,0.00016673,-0.00019190,-0.00009388,-0.00029694,0.0002021
 4,0.00002693,-0.00025505,0.00074027,0.00017837,-0.00048709,0.00022308,
 -0.02133428,0.01876654,-0.03618461,0.02406708,0.01956878,-0.03789051,0
 .00028643,0.00073307,0.00156483,0.00003366,-0.00003230,-0.00035295,-0.
 00019074,-0.00024900,0.00005427,0.00016410,-0.00057431,-0.00066374,0.0
 0032389,-0.00007832,0.00014873,-0.00012443,0.00048449,0.00000842,0.000
 10812,-0.00024107,0.00002193,0.00000621,0.00003116,0.00006550,0.000228
 56,-0.00007492,-0.00006700,0.00002117,0.00012295,0.00046458,0.00037006
 ,-0.00002413,0.00011948,0.00000125,0.00004288,0.00004011,0.00003931,-0
 .00000538,0.00013703,0.00128878,0.00059138,0.00437397,-0.00274185,0.00
 091858,0.00197369,0.00002502,-0.00026412,0.00036520,0.00009539,0.00012
 867,0.00003019,-0.00009062,-0.00012861,-0.00000975,0.00004466,0.000216
 09,0.00003180,0.00004196,-0.00008145,0.00018339,-0.00494525,-0.1086270
 6,0.24802950\\0.00000215,-0.00000339,-0.00000562,0.00000290,-0.0000034
 7,0.00000157,-0.00000064,-0.00000487,-0.00000133,0.00000323,0.00000444
 ,0.00000238,-0.00000004,0.00000387,-0.00000065,-0.00000042,-0.00000419
 ,0.00000095,0.00000403,-0.00000166,0.00000046,-0.00000009,0.00000033,-
 0.00000007,-0.00000653,0.00000656,-0.00001318,-0.00000062,0.00000012,0
 .00000567,0.00000526,0.00000447,0.00000068,-0.00000137,0.00000332,0.00
 000299,-0.00001120,0.00000428,-0.00000120,-0.00000213,0.00000015,-0.00
 000219,0.00000228,0.00000514,0.00000026,0.00000008,0.00000200,0.000002
 28,0.00000192,-0.00000150,-0.00000089,0.00000034,0.00000251,0.00000097
 ,0.00000344,0.00000239,0.00000317,-0.00000231,0.00000623,-0.00000393,0
 .00000018,0.00000380,0.00000263,0.00000011,0.00000440,0.00000394,-0.00
 000231,0.00000489,0.00000248,0.00000083,0.00000150,0.00000331,0.000002
 02,-0.00000358,-0.00000196,-0.00000194,-0.00000312,-0.00000264,0.00000
 322,-0.00000166,0.00000057,-0.00000132,-0.00000548,-0.00000109,-0.0000
 0183,-0.00000008,-0.00000039,-0.00000194,-0.00000182,-0.00000247,-0.00
 000241,0.00000071,-0.00000101,0.,-0.00000140,0.00000028,-0.00000066,-0
 .00000101,-0.00000315,-0.00000090,0.00000076,-0.00000218,-0.00000109,-
 0.00000016,-0.00000368,-0.00000013,0.00000084,-0.00000065,-0.00000096,
 0.00000106,-0.00000302,-0.00000078,0.00000179,-0.00000282,-0.00000149,
 -0.00000212,-0.00000285,-0.00000118,-0.00000269,-0.00000162,0.00000084
 ,-0.00000203,-0.00000033,0.00000256,0.00000353,-0.00000062,0.00000139,
 0.00000100,0.00000009,-0.00000219,-0.00000587,0.00000183,0.00000418,-0
 .00000273,0.00000238,0.00000116,-0.00000328,0.00000326,0.00000300,-0.0
 0000228,0.00000631,0.00000263,-0.00000487,0.00000090,-0.00000125,-0.00
 000682,0.00001017\\\@


     SCHOPENHAUER'S LAW OF ENTROPY
 IF YOU PUT A SPOONFUL OF WINE IN A BARREL FULL
 OF SEWAGE, YOU GET SEWAGE.
 IF YOU PUT A SPOONFUL OF SEWAGE IN A BARREL FULL
 OF WINE, YOU GET SEWAGE.
 Job cpu time:       0 days  4 hours 28 minutes 34.2 seconds.
 Elapsed time:       0 days  0 hours 16 minutes 54.3 seconds.
 File lengths (MBytes):  RWF=   1520 Int=      0 D2E=      0 Chk=     30 Scr=      1
 Normal termination of Gaussian 16 at Tue Sep 24 12:49:18 2019.
