 Entering Gaussian System, Link 0=g16
 Input=conformer_00049.gjf
 Output=conformer_00049.out
 Initial command:
 /n/sw/g16_nehalem/g16/l1.exe "/scratch/cwagen_conformer_00049/Gau-21690.inp" -scrdir="/scratch/cwagen_conformer_00049/"
 Entering Link 1 = /n/sw/g16_nehalem/g16/l1.exe PID=     21691.
  
 Copyright (c) 1988,1990,1992,1993,1995,1998,2003,2009,2016,
            Gaussian, Inc.  All Rights Reserved.
  
 This is part of the Gaussian(R) 16 program.  It is based on
 the Gaussian(R) 09 system (copyright 2009, Gaussian, Inc.),
 the Gaussian(R) 03 system (copyright 2003, Gaussian, Inc.),
 the Gaussian(R) 98 system (copyright 1998, Gaussian, Inc.),
 the Gaussian(R) 94 system (copyright 1995, Gaussian, Inc.),
 the Gaussian 92(TM) system (copyright 1992, Gaussian, Inc.),
 the Gaussian 90(TM) system (copyright 1990, Gaussian, Inc.),
 the Gaussian 88(TM) system (copyright 1988, Gaussian, Inc.),
 the Gaussian 86(TM) system (copyright 1986, Carnegie Mellon
 University), and the Gaussian 82(TM) system (copyright 1983,
 Carnegie Mellon University). Gaussian is a federally registered
 trademark of Gaussian, Inc.
  
 This software contains proprietary and confidential information,
 including trade secrets, belonging to Gaussian, Inc.
  
 This software is provided under written license and may be
 used, copied, transmitted, or stored only in accord with that
 written license.
  
 The following legend is applicable only to US Government
 contracts under FAR:
  
                    RESTRICTED RIGHTS LEGEND
  
 Use, reproduction and disclosure by the US Government is
 subject to restrictions as set forth in subparagraphs (a)
 and (c) of the Commercial Computer Software - Restricted
 Rights clause in FAR 52.227-19.
  
 Gaussian, Inc.
 340 Quinnipiac St., Bldg. 40, Wallingford CT 06492
  
  
 ---------------------------------------------------------------
 Warning -- This program may not be used in any manner that
 competes with the business of Gaussian, Inc. or will provide
 assistance to any competitor of Gaussian, Inc.  The licensee
 of this program is prohibited from giving any competitor of
 Gaussian, Inc. access to this program.  By using this program,
 the user acknowledges that Gaussian, Inc. is engaged in the
 business of creating and licensing software in the field of
 computational chemistry and represents and warrants to the
 licensee that it is not a competitor of Gaussian, Inc. and that
 it will not use this program in any manner prohibited above.
 ---------------------------------------------------------------
  

 Cite this work as:
 Gaussian 16, Revision A.03,
 M. J. Frisch, G. W. Trucks, H. B. Schlegel, G. E. Scuseria, 
 M. A. Robb, J. R. Cheeseman, G. Scalmani, V. Barone, 
 G. A. Petersson, H. Nakatsuji, X. Li, M. Caricato, A. V. Marenich, 
 J. Bloino, B. G. Janesko, R. Gomperts, B. Mennucci, H. P. Hratchian, 
 J. V. Ortiz, A. F. Izmaylov, J. L. Sonnenberg, D. Williams-Young, 
 F. Ding, F. Lipparini, F. Egidi, J. Goings, B. Peng, A. Petrone, 
 T. Henderson, D. Ranasinghe, V. G. Zakrzewski, J. Gao, N. Rega, 
 G. Zheng, W. Liang, M. Hada, M. Ehara, K. Toyota, R. Fukuda, 
 J. Hasegawa, M. Ishida, T. Nakajima, Y. Honda, O. Kitao, H. Nakai, 
 T. Vreven, K. Throssell, J. A. Montgomery, Jr., J. E. Peralta, 
 F. Ogliaro, M. J. Bearpark, J. J. Heyd, E. N. Brothers, K. N. Kudin, 
 V. N. Staroverov, T. A. Keith, R. Kobayashi, J. Normand, 
 K. Raghavachari, A. P. Rendell, J. C. Burant, S. S. Iyengar, 
 J. Tomasi, M. Cossi, J. M. Millam, M. Klene, C. Adamo, R. Cammi, 
 J. W. Ochterski, R. L. Martin, K. Morokuma, O. Farkas, 
 J. B. Foresman, and D. J. Fox, Gaussian, Inc., Wallingford CT, 2016.
 
 ******************************************
 Gaussian 16:  ES64L-G16RevA.03 25-Dec-2016
                28-Dec-2019 
 ******************************************
 %nprocshared=16
 Will use up to   16 processors via shared memory.
 %mem=32GB
 ----------
 #p opt pm7
 ----------
 1/18=20,19=15,26=1,38=1/1,3;
 2/9=110,12=2,17=6,18=5,40=1/2;
 3/5=2,25=1,41=4200000,71=1/1,2,3;
 4/35=1/1;
 5/5=2,35=1,38=5/2;
 6/7=2,8=2,9=2,10=2,28=1/1;
 7//1,2,3,16;
 1/18=20,19=15,26=1/3(2);
 2/9=110/2;
 99//99;
 2/9=110/2;
 3/5=2,25=1,41=4200000,71=1,135=20/1,2,3;
 4/5=5,16=3,35=1/1;
 5/5=2,35=1,38=5/2;
 7//1,2,3,16;
 1/18=20,19=15,26=1/3(-5);
 2/9=110/2;
 6/7=2,8=2,9=2,10=2,19=2,28=1/1;
 99/9=1/99;
 Leave Link    1 at Sat Dec 28 17:52:31 2019, MaxMem=  4294967296 cpu:               1.4 elap:               1.5
 (Enter /n/sw/g16_nehalem/g16/l101.exe)
 -----
 title
 -----
 Symbolic Z-matrix:
 Charge =  0 Multiplicity = 1
 7                    -2.59193  -2.21199   0. 
 1                    -1.59907  -2.23752   0.11653 
 6                    -3.26917  -0.94217  -0.16885 
 1                    -3.78771  -0.93101  -1.12754 
 6                    -4.29042  -0.7129    0.94026 
 6                    -2.28051   0.21456  -0.13716 
 1                    -4.67884  -1.67256   1.28127 
 8                    -2.65335   1.35034   0.25599 
 7                    -0.8901    0.00502  -0.56582 
 1                    -0.59382  -0.89754  -0.87824 
 6                     0.05113   1.10627  -0.53566 
 1                    -0.30561   1.90765  -1.18268 
 6                     0.20868   1.65525   0.87836 
 6                     1.42537   0.66591  -1.01943 
 1                    -0.72174   1.51543   1.42871 
 8                     1.72173   0.75601  -2.23912 
 8                     2.37976   0.14977  -0.08797 
 6                     1.81237   0.14693   1.22465 
 1                     2.5046   -0.29349   1.91148 
 1                     1.6029    1.15237   1.52484 
 1                     0.90505  -0.42022   1.21978 
 9                     0.50313   2.97147   0.82056 
 9                     1.20623   0.99885   1.50806 
 9                    -3.69895  -0.07506   1.97264 
 9                    -5.30615   0.04106   0.46876 
 6                    -3.36437  -3.46268   0. 
 8                    -4.5836   -3.47888  -0.1397 
 6                    -2.54202  -4.75125   0.18689 
 1                    -2.19711  -5.09555  -0.76568 
 1                    -1.70233  -4.54998   0.81881 
 1                    -3.15523  -5.50352   0.6374 
 
 ITRead=  0  0  0  0  0  0  0  0  0  0  0  0  0  0  0  0  0  0  0  0
 ITRead=  0  0  0  0  0  0  0  0  0  0  0
 MicOpt= -1 -1 -1 -1 -1 -1 -1 -1 -1 -1 -1 -1 -1 -1 -1 -1 -1 -1 -1 -1
 MicOpt= -1 -1 -1 -1 -1 -1 -1 -1 -1 -1 -1
 NAtoms=     31 NQM=       31 NQMF=       0 NMMI=      0 NMMIF=      0
                NMic=       0 NMicF=      0.
                    Isotopes and Nuclear Properties:
 (Nuclear quadrupole moments (NQMom) in fm**2, nuclear magnetic moments (NMagM)
  in nuclear magnetons)

  Atom         1           2           3           4           5           6           7           8           9          10
 IAtWgt=          14           1          12           1          12          12           1          16          14           1
 AtmWgt=  14.0030740   1.0078250  12.0000000   1.0078250  12.0000000  12.0000000   1.0078250  15.9949146  14.0030740   1.0078250
 NucSpn=           2           1           0           1           0           0           1           0           2           1
 AtZEff=   0.0000000   0.0000000   0.0000000   0.0000000   0.0000000   0.0000000   0.0000000   0.0000000   0.0000000   0.0000000
 NQMom=    2.0440000   0.0000000   0.0000000   0.0000000   0.0000000   0.0000000   0.0000000   0.0000000   2.0440000   0.0000000
 NMagM=    0.4037610   2.7928460   0.0000000   2.7928460   0.0000000   0.0000000   2.7928460   0.0000000   0.4037610   2.7928460
 AtZNuc=   7.0000000   1.0000000   6.0000000   1.0000000   6.0000000   6.0000000   1.0000000   8.0000000   7.0000000   1.0000000

  Atom        11          12          13          14          15          16          17          18          19          20
 IAtWgt=          12           1          12          12           1          16          16          12           1           1
 AtmWgt=  12.0000000   1.0078250  12.0000000  12.0000000   1.0078250  15.9949146  15.9949146  12.0000000   1.0078250   1.0078250
 NucSpn=           0           1           0           0           1           0           0           0           1           1
 AtZEff=   0.0000000   0.0000000   0.0000000   0.0000000   0.0000000   0.0000000   0.0000000   0.0000000   0.0000000   0.0000000
 NQMom=    0.0000000   0.0000000   0.0000000   0.0000000   0.0000000   0.0000000   0.0000000   0.0000000   0.0000000   0.0000000
 NMagM=    0.0000000   2.7928460   0.0000000   0.0000000   2.7928460   0.0000000   0.0000000   0.0000000   2.7928460   2.7928460
 AtZNuc=   6.0000000   1.0000000   6.0000000   6.0000000   1.0000000   8.0000000   8.0000000   6.0000000   1.0000000   1.0000000

  Atom        21          22          23          24          25          26          27          28          29          30
 IAtWgt=           1          19          19          19          19          12          16          12           1           1
 AtmWgt=   1.0078250  18.9984033  18.9984033  18.9984033  18.9984033  12.0000000  15.9949146  12.0000000   1.0078250   1.0078250
 NucSpn=           1           1           1           1           1           0           0           0           1           1
 AtZEff=   0.0000000   0.0000000   0.0000000   0.0000000   0.0000000   0.0000000   0.0000000   0.0000000   0.0000000   0.0000000
 NQMom=    0.0000000   0.0000000   0.0000000   0.0000000   0.0000000   0.0000000   0.0000000   0.0000000   0.0000000   0.0000000
 NMagM=    2.7928460   2.6288670   2.6288670   2.6288670   2.6288670   0.0000000   0.0000000   0.0000000   2.7928460   2.7928460
 AtZNuc=   1.0000000   9.0000000   9.0000000   9.0000000   9.0000000   6.0000000   8.0000000   6.0000000   1.0000000   1.0000000

  Atom        31
 IAtWgt=           1
 AtmWgt=   1.0078250
 NucSpn=           1
 AtZEff=   0.0000000
 NQMom=    0.0000000
 NMagM=    2.7928460
 AtZNuc=   1.0000000
 Leave Link  101 at Sat Dec 28 17:52:36 2019, MaxMem=  4294967296 cpu:               5.7 elap:               5.7
 (Enter /n/sw/g16_nehalem/g16/l103.exe)

 GradGradGradGradGradGradGradGradGradGradGradGradGradGradGradGradGradGrad
 Berny optimization.
 Initialization pass.
                           ----------------------------
                           !    Initial Parameters    !
                           ! (Angstroms and Degrees)  !
 --------------------------                            --------------------------
 ! Name  Definition              Value          Derivative Info.                !
 --------------------------------------------------------------------------------
 ! R1    R(1,2)                  1.0            estimate D2E/DX2                !
 ! R2    R(1,3)                  1.449          estimate D2E/DX2                !
 ! R3    R(1,26)                 1.47           estimate D2E/DX2                !
 ! R4    R(3,4)                  1.09           estimate D2E/DX2                !
 ! R5    R(3,5)                  1.525          estimate D2E/DX2                !
 ! R6    R(3,6)                  1.522          estimate D2E/DX2                !
 ! R7    R(5,7)                  1.09           estimate D2E/DX2                !
 ! R8    R(5,24)                 1.35           estimate D2E/DX2                !
 ! R9    R(5,25)                 1.35           estimate D2E/DX2                !
 ! R10   R(6,8)                  1.2584         estimate D2E/DX2                !
 ! R11   R(6,9)                  1.47           estimate D2E/DX2                !
 ! R12   R(9,10)                 1.0            estimate D2E/DX2                !
 ! R13   R(9,11)                 1.449          estimate D2E/DX2                !
 ! R14   R(11,12)                1.09           estimate D2E/DX2                !
 ! R15   R(11,13)                1.525          estimate D2E/DX2                !
 ! R16   R(11,14)                1.522          estimate D2E/DX2                !
 ! R17   R(13,15)                1.09           estimate D2E/DX2                !
 ! R18   R(13,22)                1.35           estimate D2E/DX2                !
 ! R19   R(13,23)                1.35           estimate D2E/DX2                !
 ! R20   R(14,16)                1.2584         estimate D2E/DX2                !
 ! R21   R(14,17)                1.43           estimate D2E/DX2                !
 ! R22   R(17,18)                1.43           estimate D2E/DX2                !
 ! R23   R(18,19)                1.07           estimate D2E/DX2                !
 ! R24   R(18,20)                1.07           estimate D2E/DX2                !
 ! R25   R(18,21)                1.07           estimate D2E/DX2                !
 ! R26   R(18,23)                1.0833         estimate D2E/DX2                !
 ! R27   R(20,23)                0.4257         estimate D2E/DX2                !
 ! R28   R(26,27)                1.2273         estimate D2E/DX2                !
 ! R29   R(26,28)                1.54           estimate D2E/DX2                !
 ! R30   R(28,29)                1.07           estimate D2E/DX2                !
 ! R31   R(28,30)                1.07           estimate D2E/DX2                !
 ! R32   R(28,31)                1.07           estimate D2E/DX2                !
 ! A1    A(2,1,3)              120.0            estimate D2E/DX2                !
 ! A2    A(2,1,26)             120.0            estimate D2E/DX2                !
 ! A3    A(3,1,26)             120.0            estimate D2E/DX2                !
 ! A4    A(1,3,4)              109.5            estimate D2E/DX2                !
 ! A5    A(1,3,5)              111.1            estimate D2E/DX2                !
 ! A6    A(1,3,6)              111.1            estimate D2E/DX2                !
 ! A7    A(4,3,5)              108.6358         estimate D2E/DX2                !
 ! A8    A(4,3,6)              108.6358         estimate D2E/DX2                !
 ! A9    A(5,3,6)              107.7945         estimate D2E/DX2                !
 ! A10   A(3,5,7)              109.5            estimate D2E/DX2                !
 ! A11   A(3,5,24)             109.5            estimate D2E/DX2                !
 ! A12   A(3,5,25)             109.5            estimate D2E/DX2                !
 ! A13   A(7,5,24)             109.4424         estimate D2E/DX2                !
 ! A14   A(7,5,25)             109.4424         estimate D2E/DX2                !
 ! A15   A(24,5,25)            109.4424         estimate D2E/DX2                !
 ! A16   A(3,6,8)              120.0            estimate D2E/DX2                !
 ! A17   A(3,6,9)              120.0            estimate D2E/DX2                !
 ! A18   A(8,6,9)              120.0            estimate D2E/DX2                !
 ! A19   A(6,9,10)             120.0            estimate D2E/DX2                !
 ! A20   A(6,9,11)             120.0            estimate D2E/DX2                !
 ! A21   A(10,9,11)            120.0            estimate D2E/DX2                !
 ! A22   A(9,11,12)            109.5            estimate D2E/DX2                !
 ! A23   A(9,11,13)            111.1            estimate D2E/DX2                !
 ! A24   A(9,11,14)            111.1            estimate D2E/DX2                !
 ! A25   A(12,11,13)           108.6358         estimate D2E/DX2                !
 ! A26   A(12,11,14)           108.6358         estimate D2E/DX2                !
 ! A27   A(13,11,14)           107.7945         estimate D2E/DX2                !
 ! A28   A(11,13,15)           109.5            estimate D2E/DX2                !
 ! A29   A(11,13,22)           109.5            estimate D2E/DX2                !
 ! A30   A(11,13,23)           109.5            estimate D2E/DX2                !
 ! A31   A(15,13,22)           109.4424         estimate D2E/DX2                !
 ! A32   A(15,13,23)           109.4424         estimate D2E/DX2                !
 ! A33   A(22,13,23)           109.4424         estimate D2E/DX2                !
 ! A34   A(11,14,16)           120.0            estimate D2E/DX2                !
 ! A35   A(11,14,17)           120.0            estimate D2E/DX2                !
 ! A36   A(16,14,17)           120.0            estimate D2E/DX2                !
 ! A37   A(14,17,18)           109.5            estimate D2E/DX2                !
 ! A38   A(17,18,19)           109.4712         estimate D2E/DX2                !
 ! A39   A(17,18,20)           109.4712         estimate D2E/DX2                !
 ! A40   A(17,18,21)           109.4712         estimate D2E/DX2                !
 ! A41   A(17,18,23)           117.4261         estimate D2E/DX2                !
 ! A42   A(19,18,20)           109.4713         estimate D2E/DX2                !
 ! A43   A(19,18,21)           109.4712         estimate D2E/DX2                !
 ! A44   A(19,18,23)           121.1814         estimate D2E/DX2                !
 ! A45   A(20,18,21)           109.4712         estimate D2E/DX2                !
 ! A46   A(21,18,23)            86.7647         estimate D2E/DX2                !
 ! A47   A(13,23,18)           132.361          estimate D2E/DX2                !
 ! A48   A(13,23,20)           122.1143         estimate D2E/DX2                !
 ! A49   A(1,26,27)            122.2249         estimate D2E/DX2                !
 ! A50   A(1,26,28)            115.5502         estimate D2E/DX2                !
 ! A51   A(27,26,28)           122.2249         estimate D2E/DX2                !
 ! A52   A(26,28,29)           109.4712         estimate D2E/DX2                !
 ! A53   A(26,28,30)           109.4712         estimate D2E/DX2                !
 ! A54   A(26,28,31)           109.4712         estimate D2E/DX2                !
 ! A55   A(29,28,30)           109.4713         estimate D2E/DX2                !
 ! A56   A(29,28,31)           109.4712         estimate D2E/DX2                !
 ! A57   A(30,28,31)           109.4712         estimate D2E/DX2                !
 ! D1    D(2,1,3,4)            120.0            estimate D2E/DX2                !
 ! D2    D(2,1,3,5)           -120.0            estimate D2E/DX2                !
 ! D3    D(2,1,3,6)              0.0            estimate D2E/DX2                !
 ! D4    D(26,1,3,4)           -60.0            estimate D2E/DX2                !
 ! D5    D(26,1,3,5)            60.0            estimate D2E/DX2                !
 ! D6    D(26,1,3,6)           180.0            estimate D2E/DX2                !
 ! D7    D(2,1,26,27)          180.0            estimate D2E/DX2                !
 ! D8    D(2,1,26,28)           -0.0022         estimate D2E/DX2                !
 ! D9    D(3,1,26,27)            0.0            estimate D2E/DX2                !
 ! D10   D(3,1,26,28)          179.9978         estimate D2E/DX2                !
 ! D11   D(1,3,5,7)            -30.0            estimate D2E/DX2                !
 ! D12   D(1,3,5,24)            90.0            estimate D2E/DX2                !
 ! D13   D(1,3,5,25)          -150.0            estimate D2E/DX2                !
 ! D14   D(4,3,5,7)             90.5121         estimate D2E/DX2                !
 ! D15   D(4,3,5,24)          -149.488          estimate D2E/DX2                !
 ! D16   D(4,3,5,25)           -29.4879         estimate D2E/DX2                !
 ! D17   D(6,3,5,7)           -151.9449         estimate D2E/DX2                !
 ! D18   D(6,3,5,24)           -31.9449         estimate D2E/DX2                !
 ! D19   D(6,3,5,25)            88.0551         estimate D2E/DX2                !
 ! D20   D(1,3,6,8)           -151.9449         estimate D2E/DX2                !
 ! D21   D(1,3,6,9)             28.0551         estimate D2E/DX2                !
 ! D22   D(4,3,6,8)             87.543          estimate D2E/DX2                !
 ! D23   D(4,3,6,9)            -92.457          estimate D2E/DX2                !
 ! D24   D(5,3,6,8)            -30.0            estimate D2E/DX2                !
 ! D25   D(5,3,6,9)            150.0            estimate D2E/DX2                !
 ! D26   D(3,6,9,10)             0.0            estimate D2E/DX2                !
 ! D27   D(3,6,9,11)           180.0            estimate D2E/DX2                !
 ! D28   D(8,6,9,10)           180.0            estimate D2E/DX2                !
 ! D29   D(8,6,9,11)             0.0            estimate D2E/DX2                !
 ! D30   D(6,9,11,12)          -60.0            estimate D2E/DX2                !
 ! D31   D(6,9,11,13)           60.0            estimate D2E/DX2                !
 ! D32   D(6,9,11,14)          180.0            estimate D2E/DX2                !
 ! D33   D(10,9,11,12)         120.0            estimate D2E/DX2                !
 ! D34   D(10,9,11,13)        -120.0            estimate D2E/DX2                !
 ! D35   D(10,9,11,14)           0.0            estimate D2E/DX2                !
 ! D36   D(9,11,13,15)         -30.0            estimate D2E/DX2                !
 ! D37   D(9,11,13,22)        -150.0            estimate D2E/DX2                !
 ! D38   D(9,11,13,23)          90.0            estimate D2E/DX2                !
 ! D39   D(12,11,13,15)         90.5121         estimate D2E/DX2                !
 ! D40   D(12,11,13,22)        -29.4879         estimate D2E/DX2                !
 ! D41   D(12,11,13,23)       -149.488          estimate D2E/DX2                !
 ! D42   D(14,11,13,15)       -151.9449         estimate D2E/DX2                !
 ! D43   D(14,11,13,22)         88.0551         estimate D2E/DX2                !
 ! D44   D(14,11,13,23)        -31.9449         estimate D2E/DX2                !
 ! D45   D(9,11,14,16)          90.5121         estimate D2E/DX2                !
 ! D46   D(9,11,14,17)         -89.4879         estimate D2E/DX2                !
 ! D47   D(12,11,14,16)        -30.0            estimate D2E/DX2                !
 ! D48   D(12,11,14,17)        150.0            estimate D2E/DX2                !
 ! D49   D(13,11,14,16)       -147.543          estimate D2E/DX2                !
 ! D50   D(13,11,14,17)         32.457          estimate D2E/DX2                !
 ! D51   D(11,13,23,18)         -5.9314         estimate D2E/DX2                !
 ! D52   D(11,13,23,20)         96.124          estimate D2E/DX2                !
 ! D53   D(15,13,23,18)        114.1038         estimate D2E/DX2                !
 ! D54   D(15,13,23,20)       -143.8407         estimate D2E/DX2                !
 ! D55   D(22,13,23,18)       -125.9667         estimate D2E/DX2                !
 ! D56   D(22,13,23,20)        -23.9112         estimate D2E/DX2                !
 ! D57   D(11,14,17,18)          0.0            estimate D2E/DX2                !
 ! D58   D(16,14,17,18)        180.0            estimate D2E/DX2                !
 ! D59   D(14,17,18,19)        176.6291         estimate D2E/DX2                !
 ! D60   D(14,17,18,20)        -63.3709         estimate D2E/DX2                !
 ! D61   D(14,17,18,21)         56.6291         estimate D2E/DX2                !
 ! D62   D(14,17,18,23)        -40.0339         estimate D2E/DX2                !
 ! D63   D(17,18,23,13)         47.1207         estimate D2E/DX2                !
 ! D64   D(19,18,23,13)       -174.0283         estimate D2E/DX2                !
 ! D65   D(21,18,23,13)        -63.1715         estimate D2E/DX2                !
 ! D66   D(1,26,28,29)         -87.3467         estimate D2E/DX2                !
 ! D67   D(1,26,28,30)          32.6533         estimate D2E/DX2                !
 ! D68   D(1,26,28,31)         152.6533         estimate D2E/DX2                !
 ! D69   D(27,26,28,29)         92.6511         estimate D2E/DX2                !
 ! D70   D(27,26,28,30)       -147.3489         estimate D2E/DX2                !
 ! D71   D(27,26,28,31)        -27.3489         estimate D2E/DX2                !
 --------------------------------------------------------------------------------
 Trust Radius=3.00D-01 FncErr=1.00D-07 GrdErr=1.00D-07 EigMax=2.50D+02 EigMin=1.00D-04
 Number of steps in this run=    170 maximum allowed number of steps=    186.
 GradGradGradGradGradGradGradGradGradGradGradGradGradGradGradGradGradGrad

 Leave Link  103 at Sat Dec 28 17:52:38 2019, MaxMem=  4294967296 cpu:               1.3 elap:               1.3
 (Enter /n/sw/g16_nehalem/g16/l202.exe)
                          Input orientation:                          
 ---------------------------------------------------------------------
 Center     Atomic      Atomic             Coordinates (Angstroms)
 Number     Number       Type             X           Y           Z
 ---------------------------------------------------------------------
      1          7           0       -2.591926   -2.211987    0.000000
      2          1           0       -1.599067   -2.237515    0.116525
      3          6           0       -3.269172   -0.942171   -0.168845
      4          1           0       -3.787714   -0.931015   -1.127536
      5          6           0       -4.290418   -0.712905    0.940261
      6          6           0       -2.280514    0.214565   -0.137162
      7          1           0       -4.678838   -1.672562    1.281271
      8          8           0       -2.653354    1.350344    0.255986
      9          7           0       -0.890103    0.005019   -0.565818
     10          1           0       -0.593821   -0.897539   -0.878238
     11          6           0        0.051135    1.106275   -0.535655
     12          1           0       -0.305608    1.907645   -1.182679
     13          6           0        0.208676    1.655246    0.878359
     14          6           0        1.425369    0.665906   -1.019434
     15          1           0       -0.721735    1.515431    1.428710
     16          8           0        1.721726    0.756009   -2.239116
     17          8           0        2.379764    0.149765   -0.087968
     18          6           0        1.812369    0.146927    1.224646
     19          1           0        2.504602   -0.293491    1.911483
     20          1           0        1.602897    1.152366    1.524836
     21          1           0        0.905053   -0.420219    1.219784
     22          9           0        0.503128    2.971475    0.820555
     23          9           0        1.206230    0.998849    1.508064
     24          9           0       -3.698948   -0.075056    1.972644
     25          9           0       -5.306154    0.041059    0.468755
     26          6           0       -3.364370   -3.462679    0.000000
     27          8           0       -4.583603   -3.478884   -0.139700
     28          6           0       -2.542017   -4.751247    0.186893
     29          1           0       -2.197108   -5.095550   -0.765679
     30          1           0       -1.702334   -4.549976    0.818813
     31          1           0       -3.155233   -5.503517    0.637398
 ---------------------------------------------------------------------
                    Distance matrix (angstroms):
                    1          2          3          4          5
     1  N    0.000000
     2  H    1.000000   0.000000
     3  C    1.449000   2.132745   0.000000
     4  H    2.083780   2.836338   1.090000   0.000000
     5  C    2.452797   3.200992   1.524999   2.139175   0.000000
     6  C    2.450295   2.557621   1.522000   2.136550   2.461859
     7  H    2.507555   3.340778   2.150225   2.673266   1.090000
     8  O    3.572046   3.742153   2.411502   2.899225   2.721251
     9  N    2.851574   2.448915   2.591279   3.096424   3.787589
    10  H    2.547842   1.948232   2.768164   3.203782   4.123815
    11  C    4.275928   3.785424   3.918561   4.386073   4.933236
    12  H    4.857711   4.532474   4.234622   4.492894   5.220428
    13  C    4.854934   4.359119   4.465271   5.165607   5.084665
    14  C    5.045807   4.343669   5.034692   5.453263   6.197720
    15  H    4.408228   4.071381   3.883481   4.681850   4.235511
    16  O    5.694756   5.053504   5.663824   5.868185   6.957875
    17  O    5.504845   4.644568   5.754071   6.347170   6.803879
    18  C    5.144128   4.307132   5.380521   6.168926   6.169618
    19  H    5.771395   4.882745   6.171306   7.016789   6.876880
    20  H    5.589324   4.871058   5.567109   6.358793   6.209035
    21  H    4.114264   3.284868   4.429997   5.271896   5.211210
    22  F    6.092696   5.661135   5.525014   6.118481   6.047070
    23  F    5.197087   4.503346   5.158372   5.967432   5.784949
    24  F    3.111799   3.539902   2.350015   3.217400   1.350000
    25  F    3.558508   4.365600   2.350016   2.408056   1.350000
    26  C    1.470000   2.151953   2.527950   2.803549   3.050068
    27  O    2.364597   3.242546   2.857182   2.846208   2.983776
    28  C    2.546617   2.685694   3.894144   4.227725   4.464603
    29  H    3.009499   3.050296   4.330830   4.472619   5.147792
    30  H    2.632113   2.418956   4.055454   4.608033   4.629908
    31  H    3.399671   3.655097   4.633453   4.941943   4.932579
                    6          7          8          9         10
     6  C    0.000000
     7  H    3.365287   0.000000
     8  O    1.258400   3.780444   0.000000
     9  N    1.470000   4.536577   2.365231   0.000000
    10  H    2.151953   4.685243   3.252864   1.000000   0.000000
    11  C    2.527950   5.778909   2.828520   1.449000   2.132745
    12  H    2.803549   6.165556   2.809316   2.083780   2.836338
    13  C    3.050068   5.926587   2.944746   2.452797   3.200992
    14  C    3.836102   6.929864   4.327948   2.450295   2.557621
    15  H    2.563982   5.083670   2.265764   2.507555   3.340778
    16  O    4.552945   7.697942   5.071499   3.191483   3.154041
    17  O    4.660988   7.417516   5.185747   3.307766   3.250166
    18  C    4.314023   6.741625   4.725378   3.244881   3.361961
    19  H    5.229953   7.341717   5.661041   4.213093   4.212796
    20  H    4.326962   6.892005   4.445768   3.449970   3.847395
    21  H    3.520240   5.722934   4.089751   2.567447   2.622242
    22  F    4.033167   6.973672   3.593074   3.558508   4.365600
    23  F    3.934369   6.466985   4.072793   3.111799   3.539902
    24  F    2.558733   1.997549   2.464132   3.786795   4.294860
    25  F    3.090588   1.997550   2.965948   4.535764   4.990134
    26  C    3.836102   2.563982   4.871988   4.297334   3.876492
    27  O    4.352676   2.300224   5.215733   5.095204   4.809068
    28  C    4.983240   3.904096   6.102998   5.090919   4.447587
    29  H    5.347832   4.697429   6.542287   5.269157   4.495164
    30  H    4.893775   4.165688   6.002916   4.829587   4.177209
    31  H    5.836226   4.172788   6.882788   6.076390   5.483887
                   11         12         13         14         15
    11  C    0.000000
    12  H    1.090000   0.000000
    13  C    1.524999   2.139175   0.000000
    14  C    1.522000   2.136550   2.461859   0.000000
    15  H    2.150225   2.673266   1.090000   3.365287   0.000000
    16  O    2.411502   2.559767   3.580027   1.258400   4.472155
    17  O    2.556921   3.391129   2.813162   1.430000   3.712768
    18  C    2.668512   3.658028   2.228626   2.335595   2.887235
    19  H    3.737289   4.723994   3.183740   3.267333   3.730217
    20  H    2.579867   3.397570   1.616996   2.596434   2.354777
    21  H    2.478089   3.557595   2.215642   2.542536   2.537091
    22  F    2.350016   2.408056   1.350000   3.090588   1.997550
    23  F    2.350015   3.217400   1.350000   2.558733   1.997549
    24  F    4.663714   5.040033   4.411455   5.979981   3.418963
    25  F    5.553744   5.587204   5.760793   6.922322   4.910416
    26  C    5.729567   6.292467   6.303280   6.405159   5.814320
    27  O    6.531558   6.957280   7.096596   7.352615   6.505161
    28  C    6.446477   7.156682   7.006254   6.822090   6.642799
    29  H    6.600768   7.266114   7.352817   6.810367   7.120192
    30  H    6.074736   6.903455   6.493096   6.353511   6.174359
    31  H    7.439503   8.146065   7.913396   7.860584   7.470858
                   16         17         18         19         20
    16  O    0.000000
    17  O    2.329803   0.000000
    18  C    3.518074   1.430000   0.000000
    19  H    4.352220   2.051796   1.070000   0.000000
    20  H    3.786629   2.051796   1.070000   1.747303   0.000000
    21  H    3.743589   2.051796   1.070000   1.747303   1.747303
    22  F    3.969239   3.508450   3.139343   3.981962   2.239345
    23  F    3.790259   2.155328   1.083283   1.875809   0.425668
    24  F    6.914717   6.422414   5.566273   6.207696   5.460464
    25  F    7.565370   7.706821   7.159326   7.949925   7.077097
    26  C    6.977059   6.786204   6.428658   6.938470   6.949641
    27  O    7.880295   7.852276   7.477727   8.037209   7.905184
    28  C    7.375289   6.951215   6.635489   6.950839   7.336419
    29  H    7.195070   6.994311   6.893538   7.234159   7.663090
    30  H    7.016310   6.290735   5.880368   6.083577   6.628705
    31  H    8.440423   7.944932   7.546485   7.797525   8.229710
                   21         22         23         24         25
    21  H    0.000000
    22  F    3.438679   0.000000
    23  F    1.479043   2.204149   0.000000
    24  F    4.677902   5.316587   5.042805   0.000000
    25  F    6.273429   6.516046   6.663983   2.204149   0.000000
    26  C    5.382602   7.551767   6.562764   3.934369   4.033167
    27  O    6.428761   8.270674   7.502492   4.102518   3.644489
    28  C    5.630893   8.325555   6.989882   5.137524   5.539503
    29  H    5.951822   8.653572   7.341275   5.912639   6.129825
    30  H    4.900422   7.838130   6.302719   5.034154   5.847022
    31  H    6.531846   9.232694   7.877892   5.616645   5.949557
                   26         27         28         29         30
    26  C    0.000000
    27  O    1.227317   0.000000
    28  C    1.540000   2.427683   0.000000
    29  H    2.148263   2.949714   1.070000   0.000000
    30  H    2.148263   3.219890   1.070000   1.747303   0.000000
    31  H    2.148263   2.596779   1.070000   1.747303   1.747303
                   31
    31  H    0.000000
 Small interatomic distances encountered:     23    20
 Problem with the distance matrix.
 Error termination via Lnk1e in /n/sw/g16_nehalem/g16/l202.exe at Sat Dec 28 17:52:39 2019.
 Job cpu time:       0 days  0 hours  0 minutes  9.7 seconds.
 Elapsed time:       0 days  0 hours  0 minutes  9.7 seconds.
 File lengths (MBytes):  RWF=      6 Int=      0 D2E=      0 Chk=      1 Scr=      1
