 Entering Gaussian System, Link 0=g16
 Input=conformer_dft_00008.gjf
 Output=conformer_dft_00008.out
 Initial command:
 /n/sw/g16_nehalem/g16/l1.exe "/scratch/cwagen_conformer_dft_00008/Gau-307686.inp" -scrdir="/scratch/cwagen_conformer_dft_00008/"
 Entering Link 1 = /n/sw/g16_nehalem/g16/l1.exe PID=    307722.
  
 Copyright (c) 1988,1990,1992,1993,1995,1998,2003,2009,2016,
            Gaussian, Inc.  All Rights Reserved.
  
 This is part of the Gaussian(R) 16 program.  It is based on
 the Gaussian(R) 09 system (copyright 2009, Gaussian, Inc.),
 the Gaussian(R) 03 system (copyright 2003, Gaussian, Inc.),
 the Gaussian(R) 98 system (copyright 1998, Gaussian, Inc.),
 the Gaussian(R) 94 system (copyright 1995, Gaussian, Inc.),
 the Gaussian 92(TM) system (copyright 1992, Gaussian, Inc.),
 the Gaussian 90(TM) system (copyright 1990, Gaussian, Inc.),
 the Gaussian 88(TM) system (copyright 1988, Gaussian, Inc.),
 the Gaussian 86(TM) system (copyright 1986, Carnegie Mellon
 University), and the Gaussian 82(TM) system (copyright 1983,
 Carnegie Mellon University). Gaussian is a federally registered
 trademark of Gaussian, Inc.
  
 This software contains proprietary and confidential information,
 including trade secrets, belonging to Gaussian, Inc.
  
 This software is provided under written license and may be
 used, copied, transmitted, or stored only in accord with that
 written license.
  
 The following legend is applicable only to US Government
 contracts under FAR:
  
                    RESTRICTED RIGHTS LEGEND
  
 Use, reproduction and disclosure by the US Government is
 subject to restrictions as set forth in subparagraphs (a)
 and (c) of the Commercial Computer Software - Restricted
 Rights clause in FAR 52.227-19.
  
 Gaussian, Inc.
 340 Quinnipiac St., Bldg. 40, Wallingford CT 06492
  
  
 ---------------------------------------------------------------
 Warning -- This program may not be used in any manner that
 competes with the business of Gaussian, Inc. or will provide
 assistance to any competitor of Gaussian, Inc.  The licensee
 of this program is prohibited from giving any competitor of
 Gaussian, Inc. access to this program.  By using this program,
 the user acknowledges that Gaussian, Inc. is engaged in the
 business of creating and licensing software in the field of
 computational chemistry and represents and warrants to the
 licensee that it is not a competitor of Gaussian, Inc. and that
 it will not use this program in any manner prohibited above.
 ---------------------------------------------------------------
  

 Cite this work as:
 Gaussian 16, Revision A.03,
 M. J. Frisch, G. W. Trucks, H. B. Schlegel, G. E. Scuseria, 
 M. A. Robb, J. R. Cheeseman, G. Scalmani, V. Barone, 
 G. A. Petersson, H. Nakatsuji, X. Li, M. Caricato, A. V. Marenich, 
 J. Bloino, B. G. Janesko, R. Gomperts, B. Mennucci, H. P. Hratchian, 
 J. V. Ortiz, A. F. Izmaylov, J. L. Sonnenberg, D. Williams-Young, 
 F. Ding, F. Lipparini, F. Egidi, J. Goings, B. Peng, A. Petrone, 
 T. Henderson, D. Ranasinghe, V. G. Zakrzewski, J. Gao, N. Rega, 
 G. Zheng, W. Liang, M. Hada, M. Ehara, K. Toyota, R. Fukuda, 
 J. Hasegawa, M. Ishida, T. Nakajima, Y. Honda, O. Kitao, H. Nakai, 
 T. Vreven, K. Throssell, J. A. Montgomery, Jr., J. E. Peralta, 
 F. Ogliaro, M. J. Bearpark, J. J. Heyd, E. N. Brothers, K. N. Kudin, 
 V. N. Staroverov, T. A. Keith, R. Kobayashi, J. Normand, 
 K. Raghavachari, A. P. Rendell, J. C. Burant, S. S. Iyengar, 
 J. Tomasi, M. Cossi, J. M. Millam, M. Klene, C. Adamo, R. Cammi, 
 J. W. Ochterski, R. L. Martin, K. Morokuma, O. Farkas, 
 J. B. Foresman, and D. J. Fox, Gaussian, Inc., Wallingford CT, 2016.
 
 ******************************************
 Gaussian 16:  ES64L-G16RevA.03 25-Dec-2016
                28-Dec-2019 
 ******************************************
 %nprocshared=16
 Will use up to   16 processors via shared memory.
 %mem=32GB
 ----------------------------------------------------------------------
 #p opt b3lyp/6-31g(d) empiricaldispersion=gd3bj scrf=(smd,solvent=diet
 hylether)
 ----------------------------------------------------------------------
 1/18=20,19=15,26=3,38=1/1,3;
 2/9=110,12=2,17=6,18=5,40=1/2;
 3/5=1,6=6,7=1,11=2,25=1,30=1,70=32201,71=1,72=8,74=-5,124=41/1,2,3;
 4//1;
 5/5=2,38=5,53=8/2;
 6/7=2,8=2,9=2,10=2,28=1/1;
 7//1,2,3,16;
 1/18=20,19=15,26=3/3(2);
 2/9=110/2;
 99//99;
 2/9=110/2;
 3/5=1,6=6,7=1,11=2,25=1,30=1,70=32205,71=1,72=8,74=-5,124=41/1,2,3;
 4/5=5,16=3,69=1/1;
 5/5=2,38=5,53=8/2;
 7//1,2,3,16;
 1/18=20,19=15,26=3/3(-5);
 2/9=110/2;
 6/7=2,8=2,9=2,10=2,19=2,28=1/1;
 99/9=1/99;
 Leave Link    1 at Sat Dec 28 22:23:29 2019, MaxMem=  4294967296 cpu:               1.5 elap:               0.8
 (Enter /n/sw/g16_nehalem/g16/l101.exe)
 -----
 title
 -----
 Symbolic Z-matrix:
 Charge =  0 Multiplicity = 1
 7                    -2.59193  -2.21199   0. 
 1                    -1.59907  -2.23752   0.11653 
 6                    -3.26917  -0.94217  -0.16885 
 1                    -3.78771  -0.93101  -1.12754 
 6                    -4.29042  -0.7129    0.94026 
 6                    -2.28051   0.21456  -0.13716 
 1                    -5.28329  -0.60408   0.50384 
 8                    -2.14695   0.9559   -1.1452 
 7                    -1.48165   0.46578   1.07098 
 1                    -1.58779  -0.12333   1.87203 
 6                    -0.54042   1.56704   1.10114 
 1                     0.20436   1.4307    0.31704 
 6                    -1.24704   2.89951   0.87571 
 6                     0.17401   1.6406    2.44304 
 1                    -0.84158   3.38034  -0.01452 
 8                    -0.08504   0.79771   3.34081 
 8                     1.13961   2.66755   2.68362 
 6                     1.25683   3.49403   1.52254 
 1                     1.93542   4.29664   1.72309 
 1                     1.62615   2.91053   0.7052 
 1                     0.29664   3.89332   1.27055 
 9                    -1.05327   3.69911   1.94603 
 9                    -2.56941   2.68564   0.7081 
 9                    -4.28351  -1.76668   1.78407 
 9                    -3.97297   0.40933   1.62021 
 6                    -3.36437  -3.46268   0. 
 8                    -4.5836   -3.47888  -0.1397 
 6                    -2.54202  -4.75125   0.18689 
 1                    -2.19711  -5.09555  -0.76568 
 1                    -1.70233  -4.54998   0.81881 
 1                    -3.15523  -5.50352   0.6374 
 
 ITRead=  0  0  0  0  0  0  0  0  0  0  0  0  0  0  0  0  0  0  0  0
 ITRead=  0  0  0  0  0  0  0  0  0  0  0
 MicOpt= -1 -1 -1 -1 -1 -1 -1 -1 -1 -1 -1 -1 -1 -1 -1 -1 -1 -1 -1 -1
 MicOpt= -1 -1 -1 -1 -1 -1 -1 -1 -1 -1 -1
 NAtoms=     31 NQM=       31 NQMF=       0 NMMI=      0 NMMIF=      0
                NMic=       0 NMicF=      0.
                    Isotopes and Nuclear Properties:
 (Nuclear quadrupole moments (NQMom) in fm**2, nuclear magnetic moments (NMagM)
  in nuclear magnetons)

  Atom         1           2           3           4           5           6           7           8           9          10
 IAtWgt=          14           1          12           1          12          12           1          16          14           1
 AtmWgt=  14.0030740   1.0078250  12.0000000   1.0078250  12.0000000  12.0000000   1.0078250  15.9949146  14.0030740   1.0078250
 NucSpn=           2           1           0           1           0           0           1           0           2           1
 AtZEff=   0.0000000   0.0000000   0.0000000   0.0000000   0.0000000   0.0000000   0.0000000   0.0000000   0.0000000   0.0000000
 NQMom=    2.0440000   0.0000000   0.0000000   0.0000000   0.0000000   0.0000000   0.0000000   0.0000000   2.0440000   0.0000000
 NMagM=    0.4037610   2.7928460   0.0000000   2.7928460   0.0000000   0.0000000   2.7928460   0.0000000   0.4037610   2.7928460
 AtZNuc=   7.0000000   1.0000000   6.0000000   1.0000000   6.0000000   6.0000000   1.0000000   8.0000000   7.0000000   1.0000000

  Atom        11          12          13          14          15          16          17          18          19          20
 IAtWgt=          12           1          12          12           1          16          16          12           1           1
 AtmWgt=  12.0000000   1.0078250  12.0000000  12.0000000   1.0078250  15.9949146  15.9949146  12.0000000   1.0078250   1.0078250
 NucSpn=           0           1           0           0           1           0           0           0           1           1
 AtZEff=   0.0000000   0.0000000   0.0000000   0.0000000   0.0000000   0.0000000   0.0000000   0.0000000   0.0000000   0.0000000
 NQMom=    0.0000000   0.0000000   0.0000000   0.0000000   0.0000000   0.0000000   0.0000000   0.0000000   0.0000000   0.0000000
 NMagM=    0.0000000   2.7928460   0.0000000   0.0000000   2.7928460   0.0000000   0.0000000   0.0000000   2.7928460   2.7928460
 AtZNuc=   6.0000000   1.0000000   6.0000000   6.0000000   1.0000000   8.0000000   8.0000000   6.0000000   1.0000000   1.0000000

  Atom        21          22          23          24          25          26          27          28          29          30
 IAtWgt=           1          19          19          19          19          12          16          12           1           1
 AtmWgt=   1.0078250  18.9984033  18.9984033  18.9984033  18.9984033  12.0000000  15.9949146  12.0000000   1.0078250   1.0078250
 NucSpn=           1           1           1           1           1           0           0           0           1           1
 AtZEff=   0.0000000   0.0000000   0.0000000   0.0000000   0.0000000   0.0000000   0.0000000   0.0000000   0.0000000   0.0000000
 NQMom=    0.0000000   0.0000000   0.0000000   0.0000000   0.0000000   0.0000000   0.0000000   0.0000000   0.0000000   0.0000000
 NMagM=    2.7928460   2.6288670   2.6288670   2.6288670   2.6288670   0.0000000   0.0000000   0.0000000   2.7928460   2.7928460
 AtZNuc=   1.0000000   9.0000000   9.0000000   9.0000000   9.0000000   6.0000000   8.0000000   6.0000000   1.0000000   1.0000000

  Atom        31
 IAtWgt=           1
 AtmWgt=   1.0078250
 NucSpn=           1
 AtZEff=   0.0000000
 NQMom=    0.0000000
 NMagM=    2.7928460
 AtZNuc=   1.0000000
 Leave Link  101 at Sat Dec 28 22:23:33 2019, MaxMem=  4294967296 cpu:               6.6 elap:               3.3
 (Enter /n/sw/g16_nehalem/g16/l103.exe)

 GradGradGradGradGradGradGradGradGradGradGradGradGradGradGradGradGradGrad
 Berny optimization.
 Initialization pass.
                           ----------------------------
                           !    Initial Parameters    !
                           ! (Angstroms and Degrees)  !
 --------------------------                            --------------------------
 ! Name  Definition              Value          Derivative Info.                !
 --------------------------------------------------------------------------------
 ! R1    R(1,2)                  1.0            estimate D2E/DX2                !
 ! R2    R(1,3)                  1.449          estimate D2E/DX2                !
 ! R3    R(1,26)                 1.47           estimate D2E/DX2                !
 ! R4    R(3,4)                  1.09           estimate D2E/DX2                !
 ! R5    R(3,5)                  1.525          estimate D2E/DX2                !
 ! R6    R(3,6)                  1.522          estimate D2E/DX2                !
 ! R7    R(5,7)                  1.09           estimate D2E/DX2                !
 ! R8    R(5,24)                 1.35           estimate D2E/DX2                !
 ! R9    R(5,25)                 1.35           estimate D2E/DX2                !
 ! R10   R(6,8)                  1.2584         estimate D2E/DX2                !
 ! R11   R(6,9)                  1.47           estimate D2E/DX2                !
 ! R12   R(9,10)                 1.0            estimate D2E/DX2                !
 ! R13   R(9,11)                 1.449          estimate D2E/DX2                !
 ! R14   R(11,12)                1.09           estimate D2E/DX2                !
 ! R15   R(11,13)                1.525          estimate D2E/DX2                !
 ! R16   R(11,14)                1.522          estimate D2E/DX2                !
 ! R17   R(13,15)                1.09           estimate D2E/DX2                !
 ! R18   R(13,22)                1.35           estimate D2E/DX2                !
 ! R19   R(13,23)                1.35           estimate D2E/DX2                !
 ! R20   R(14,16)                1.2584         estimate D2E/DX2                !
 ! R21   R(14,17)                1.43           estimate D2E/DX2                !
 ! R22   R(17,18)                1.43           estimate D2E/DX2                !
 ! R23   R(18,19)                1.07           estimate D2E/DX2                !
 ! R24   R(18,20)                1.07           estimate D2E/DX2                !
 ! R25   R(18,21)                1.07           estimate D2E/DX2                !
 ! R26   R(26,27)                1.2273         estimate D2E/DX2                !
 ! R27   R(26,28)                1.54           estimate D2E/DX2                !
 ! R28   R(28,29)                1.07           estimate D2E/DX2                !
 ! R29   R(28,30)                1.07           estimate D2E/DX2                !
 ! R30   R(28,31)                1.07           estimate D2E/DX2                !
 ! A1    A(2,1,3)              120.0            estimate D2E/DX2                !
 ! A2    A(2,1,26)             120.0            estimate D2E/DX2                !
 ! A3    A(3,1,26)             120.0            estimate D2E/DX2                !
 ! A4    A(1,3,4)              109.5            estimate D2E/DX2                !
 ! A5    A(1,3,5)              111.1            estimate D2E/DX2                !
 ! A6    A(1,3,6)              111.1            estimate D2E/DX2                !
 ! A7    A(4,3,5)              108.6358         estimate D2E/DX2                !
 ! A8    A(4,3,6)              108.6358         estimate D2E/DX2                !
 ! A9    A(5,3,6)              107.7945         estimate D2E/DX2                !
 ! A10   A(3,5,7)              109.5            estimate D2E/DX2                !
 ! A11   A(3,5,24)             109.5            estimate D2E/DX2                !
 ! A12   A(3,5,25)             109.5            estimate D2E/DX2                !
 ! A13   A(7,5,24)             109.4424         estimate D2E/DX2                !
 ! A14   A(7,5,25)             109.4424         estimate D2E/DX2                !
 ! A15   A(24,5,25)            109.4424         estimate D2E/DX2                !
 ! A16   A(3,6,8)              120.0            estimate D2E/DX2                !
 ! A17   A(3,6,9)              120.0            estimate D2E/DX2                !
 ! A18   A(8,6,9)              120.0            estimate D2E/DX2                !
 ! A19   A(6,9,10)             120.0            estimate D2E/DX2                !
 ! A20   A(6,9,11)             120.0            estimate D2E/DX2                !
 ! A21   A(10,9,11)            120.0            estimate D2E/DX2                !
 ! A22   A(9,11,12)            109.5            estimate D2E/DX2                !
 ! A23   A(9,11,13)            111.1            estimate D2E/DX2                !
 ! A24   A(9,11,14)            111.1            estimate D2E/DX2                !
 ! A25   A(12,11,13)           108.6358         estimate D2E/DX2                !
 ! A26   A(12,11,14)           108.6358         estimate D2E/DX2                !
 ! A27   A(13,11,14)           107.7945         estimate D2E/DX2                !
 ! A28   A(11,13,15)           109.5            estimate D2E/DX2                !
 ! A29   A(11,13,22)           109.5            estimate D2E/DX2                !
 ! A30   A(11,13,23)           109.5            estimate D2E/DX2                !
 ! A31   A(15,13,22)           109.4424         estimate D2E/DX2                !
 ! A32   A(15,13,23)           109.4424         estimate D2E/DX2                !
 ! A33   A(22,13,23)           109.4424         estimate D2E/DX2                !
 ! A34   A(11,14,16)           120.0            estimate D2E/DX2                !
 ! A35   A(11,14,17)           120.0            estimate D2E/DX2                !
 ! A36   A(16,14,17)           120.0            estimate D2E/DX2                !
 ! A37   A(14,17,18)           109.5            estimate D2E/DX2                !
 ! A38   A(17,18,19)           109.4712         estimate D2E/DX2                !
 ! A39   A(17,18,20)           109.4712         estimate D2E/DX2                !
 ! A40   A(17,18,21)           109.4712         estimate D2E/DX2                !
 ! A41   A(19,18,20)           109.4713         estimate D2E/DX2                !
 ! A42   A(19,18,21)           109.4712         estimate D2E/DX2                !
 ! A43   A(20,18,21)           109.4712         estimate D2E/DX2                !
 ! A44   A(1,26,27)            122.2249         estimate D2E/DX2                !
 ! A45   A(1,26,28)            115.5502         estimate D2E/DX2                !
 ! A46   A(27,26,28)           122.2249         estimate D2E/DX2                !
 ! A47   A(26,28,29)           109.4712         estimate D2E/DX2                !
 ! A48   A(26,28,30)           109.4712         estimate D2E/DX2                !
 ! A49   A(26,28,31)           109.4712         estimate D2E/DX2                !
 ! A50   A(29,28,30)           109.4713         estimate D2E/DX2                !
 ! A51   A(29,28,31)           109.4712         estimate D2E/DX2                !
 ! A52   A(30,28,31)           109.4712         estimate D2E/DX2                !
 ! D1    D(2,1,3,4)            120.0            estimate D2E/DX2                !
 ! D2    D(2,1,3,5)           -120.0            estimate D2E/DX2                !
 ! D3    D(2,1,3,6)              0.0            estimate D2E/DX2                !
 ! D4    D(26,1,3,4)           -60.0            estimate D2E/DX2                !
 ! D5    D(26,1,3,5)            60.0            estimate D2E/DX2                !
 ! D6    D(26,1,3,6)           180.0            estimate D2E/DX2                !
 ! D7    D(2,1,26,27)          180.0            estimate D2E/DX2                !
 ! D8    D(2,1,26,28)           -0.0022         estimate D2E/DX2                !
 ! D9    D(3,1,26,27)            0.0            estimate D2E/DX2                !
 ! D10   D(3,1,26,28)          179.9978         estimate D2E/DX2                !
 ! D11   D(1,3,5,7)           -120.0            estimate D2E/DX2                !
 ! D12   D(1,3,5,24)             0.0            estimate D2E/DX2                !
 ! D13   D(1,3,5,25)           120.0            estimate D2E/DX2                !
 ! D14   D(4,3,5,7)              0.5121         estimate D2E/DX2                !
 ! D15   D(4,3,5,24)           120.512          estimate D2E/DX2                !
 ! D16   D(4,3,5,25)          -119.4879         estimate D2E/DX2                !
 ! D17   D(6,3,5,7)            118.0551         estimate D2E/DX2                !
 ! D18   D(6,3,5,24)          -121.9449         estimate D2E/DX2                !
 ! D19   D(6,3,5,25)            -1.9449         estimate D2E/DX2                !
 ! D20   D(1,3,6,8)            118.0551         estimate D2E/DX2                !
 ! D21   D(1,3,6,9)            -61.9449         estimate D2E/DX2                !
 ! D22   D(4,3,6,8)             -2.457          estimate D2E/DX2                !
 ! D23   D(4,3,6,9)            177.543          estimate D2E/DX2                !
 ! D24   D(5,3,6,8)           -120.0            estimate D2E/DX2                !
 ! D25   D(5,3,6,9)             60.0            estimate D2E/DX2                !
 ! D26   D(3,6,9,10)             0.0            estimate D2E/DX2                !
 ! D27   D(3,6,9,11)           180.0            estimate D2E/DX2                !
 ! D28   D(8,6,9,10)           180.0            estimate D2E/DX2                !
 ! D29   D(8,6,9,11)             0.0            estimate D2E/DX2                !
 ! D30   D(6,9,11,12)          -60.0            estimate D2E/DX2                !
 ! D31   D(6,9,11,13)           60.0            estimate D2E/DX2                !
 ! D32   D(6,9,11,14)          180.0            estimate D2E/DX2                !
 ! D33   D(10,9,11,12)         120.0            estimate D2E/DX2                !
 ! D34   D(10,9,11,13)        -120.0            estimate D2E/DX2                !
 ! D35   D(10,9,11,14)           0.0            estimate D2E/DX2                !
 ! D36   D(9,11,13,15)        -120.0            estimate D2E/DX2                !
 ! D37   D(9,11,13,22)         120.0            estimate D2E/DX2                !
 ! D38   D(9,11,13,23)           0.0            estimate D2E/DX2                !
 ! D39   D(12,11,13,15)          0.5121         estimate D2E/DX2                !
 ! D40   D(12,11,13,22)       -119.4879         estimate D2E/DX2                !
 ! D41   D(12,11,13,23)        120.512          estimate D2E/DX2                !
 ! D42   D(14,11,13,15)        118.0551         estimate D2E/DX2                !
 ! D43   D(14,11,13,22)         -1.9449         estimate D2E/DX2                !
 ! D44   D(14,11,13,23)       -121.9449         estimate D2E/DX2                !
 ! D45   D(9,11,14,16)           0.5121         estimate D2E/DX2                !
 ! D46   D(9,11,14,17)        -179.4879         estimate D2E/DX2                !
 ! D47   D(12,11,14,16)       -120.0            estimate D2E/DX2                !
 ! D48   D(12,11,14,17)         60.0            estimate D2E/DX2                !
 ! D49   D(13,11,14,16)        122.457          estimate D2E/DX2                !
 ! D50   D(13,11,14,17)        -57.543          estimate D2E/DX2                !
 ! D51   D(11,14,17,18)          0.0            estimate D2E/DX2                !
 ! D52   D(16,14,17,18)       -180.0            estimate D2E/DX2                !
 ! D53   D(14,17,18,19)        176.6291         estimate D2E/DX2                !
 ! D54   D(14,17,18,20)        -63.3709         estimate D2E/DX2                !
 ! D55   D(14,17,18,21)         56.6291         estimate D2E/DX2                !
 ! D56   D(1,26,28,29)         -87.3467         estimate D2E/DX2                !
 ! D57   D(1,26,28,30)          32.6533         estimate D2E/DX2                !
 ! D58   D(1,26,28,31)         152.6533         estimate D2E/DX2                !
 ! D59   D(27,26,28,29)         92.6511         estimate D2E/DX2                !
 ! D60   D(27,26,28,30)       -147.3489         estimate D2E/DX2                !
 ! D61   D(27,26,28,31)        -27.3489         estimate D2E/DX2                !
 --------------------------------------------------------------------------------
 Trust Radius=3.00D-01 FncErr=1.00D-07 GrdErr=1.00D-06 EigMax=2.50D+02 EigMin=1.00D-04
 Number of steps in this run=    153 maximum allowed number of steps=    186.
 GradGradGradGradGradGradGradGradGradGradGradGradGradGradGradGradGradGrad

 Leave Link  103 at Sat Dec 28 22:23:33 2019, MaxMem=  4294967296 cpu:               1.2 elap:               0.6
 (Enter /n/sw/g16_nehalem/g16/l202.exe)
                          Input orientation:                          
 ---------------------------------------------------------------------
 Center     Atomic      Atomic             Coordinates (Angstroms)
 Number     Number       Type             X           Y           Z
 ---------------------------------------------------------------------
      1          7           0       -2.591926   -2.211987    0.000000
      2          1           0       -1.599067   -2.237515    0.116525
      3          6           0       -3.269172   -0.942171   -0.168845
      4          1           0       -3.787714   -0.931015   -1.127536
      5          6           0       -4.290418   -0.712905    0.940261
      6          6           0       -2.280514    0.214565   -0.137162
      7          1           0       -5.283287   -0.604077    0.503835
      8          8           0       -2.146954    0.955905   -1.145204
      9          7           0       -1.481654    0.465784    1.070981
     10          1           0       -1.587788   -0.123330    1.872031
     11          6           0       -0.540416    1.567039    1.101144
     12          1           0        0.204359    1.430702    0.317038
     13          6           0       -1.247039    2.899512    0.875705
     14          6           0        0.174008    1.640602    2.443035
     15          1           0       -0.841578    3.380338   -0.014524
     16          8           0       -0.085036    0.797708    3.340809
     17          8           0        1.139614    2.667552    2.683616
     18          6           0        1.256833    3.494025    1.522539
     19          1           0        1.935421    4.296645    1.723090
     20          1           0        1.626146    2.910526    0.705204
     21          1           0        0.296642    3.893315    1.270545
     22          9           0       -1.053268    3.699109    1.946032
     23          9           0       -2.569411    2.685640    0.708104
     24          9           0       -4.283508   -1.766677    1.784072
     25          9           0       -3.972967    0.409326    1.620206
     26          6           0       -3.364370   -3.462679    0.000000
     27          8           0       -4.583603   -3.478884   -0.139700
     28          6           0       -2.542017   -4.751247    0.186893
     29          1           0       -2.197108   -5.095550   -0.765679
     30          1           0       -1.702334   -4.549976    0.818813
     31          1           0       -3.155233   -5.503517    0.637398
 ---------------------------------------------------------------------
                    Distance matrix (angstroms):
                    1          2          3          4          5
     1  N    0.000000
     2  H    1.000000   0.000000
     3  C    1.449000   2.132745   0.000000
     4  H    2.083780   2.836338   1.090000   0.000000
     5  C    2.452797   3.200992   1.524999   2.139175   0.000000
     6  C    2.450295   2.557621   1.522000   2.136550   2.461859
     7  H    3.175318   4.048655   2.150225   2.237186   1.090000
     8  O    3.397798   3.477078   2.411502   2.500574   3.424693
     9  N    3.090334   2.869250   2.591279   3.478856   3.048860
    10  H    2.979142   2.748037   2.768164   3.806499   2.918904
    11  C    4.438722   4.069993   3.918561   4.663929   4.391644
    12  H    4.603141   4.092477   4.234622   4.858102   5.018613
    13  C    5.357519   5.204741   4.465271   5.014075   4.723968
    14  C    5.334909   4.857595   5.034692   5.920932   5.265778
    15  H    5.859867   5.670206   4.959951   5.339128   5.436980
    16  O    5.148181   4.679837   5.048126   6.055115   5.072457
    17  O    6.703438   6.176569   6.372129   7.193965   6.629631
    18  C    7.049089   6.556187   6.559371   7.214661   6.986365
    19  H    8.113458   7.600585   7.623149   8.258860   8.029288
    20  H    6.673050   6.103349   6.290578   6.886672   6.941918
    21  H    6.872615   6.520165   6.178091   6.760690   6.509030
    22  F    6.410582   6.236064   5.560972   6.193711   5.563863
    23  F    4.948603   5.052623   3.797331   4.234859   3.816526
    24  F    2.498532   3.195094   2.350015   3.069463   1.350000
    25  F    3.376925   3.860340   2.350016   3.062828   1.350000
    26  C    1.470000   2.151953   2.527950   2.803549   3.050068
    27  O    2.364597   3.242546   2.857182   2.846208   2.983776
    28  C    2.546617   2.685694   3.894144   4.227725   4.464603
    29  H    3.009499   3.050296   4.330830   4.472619   5.147792
    30  H    2.632113   2.418956   4.055454   4.608033   4.629908
    31  H    3.399671   3.655097   4.633453   4.941943   4.932579
                    6          7          8          9         10
     6  C    0.000000
     7  H    3.177687   0.000000
     8  O    1.258400   3.871621   0.000000
     9  N    1.470000   3.989821   2.365231   0.000000
    10  H    2.151953   3.969860   3.252864   1.000000   0.000000
    11  C    2.527950   5.250271   2.828520   1.449000   2.132745
    12  H    2.803549   5.855721   2.809316   2.083780   2.836338
    13  C    3.050068   5.357678   2.944746   2.452797   3.200992
    14  C    3.836102   6.211372   4.327948   2.450295   2.557621
    15  H    3.479612   5.989410   2.976629   3.175318   4.048655
    16  O    4.154090   6.085658   4.939721   2.685672   2.294315
    17  O    5.066677   7.530514   5.328332   3.784101   3.985776
    18  C    5.101206   7.784945   5.014447   4.107732   4.615113
    19  H    6.156137   8.809846   6.004452   5.174664   5.654322
    20  H    4.820766   7.754563   4.634743   3.971017   4.571120
    21  H    4.707078   7.207634   4.520552   3.866541   4.477309
    22  F    4.241212   6.204063   4.275167   3.376925   3.860340
    23  F    2.627575   4.269553   2.570059   2.498532   3.195094
    24  F    3.410050   1.997549   4.534089   3.652775   3.158359
    25  F    2.447584   1.997550   3.358654   2.551759   2.456871
    26  C    3.836102   3.479612   4.724138   4.486027   4.220427
    27  O    4.352676   3.027906   5.159036   5.162193   4.927648
    28  C    4.983240   4.981369   5.873852   5.396609   5.016758
    29  H    5.347832   5.595489   6.063552   5.900308   5.661428
    30  H    4.893775   5.337842   5.862574   5.026941   4.551658
    31  H    5.836226   5.343311   6.776314   6.214613   5.738259
                   11         12         13         14         15
    11  C    0.000000
    12  H    1.090000   0.000000
    13  C    1.524999   2.139175   0.000000
    14  C    1.522000   2.136550   2.461859   0.000000
    15  H    2.150225   2.237186   1.090000   3.177687   0.000000
    16  O    2.411502   3.102841   3.441594   1.258400   4.301232
    17  O    2.556921   2.829345   3.003075   1.430000   3.422447
    18  C    2.668512   2.611176   2.653529   2.335595   2.603616
    19  H    3.737290   3.631417   3.577442   3.267333   3.401564
    20  H    2.579868   2.088548   2.878261   2.596434   2.613119
    21  H    2.478089   2.642377   1.877896   2.542536   1.791673
    22  F    2.350016   3.062828   1.350000   2.447584   1.997550
    23  F    2.350015   3.069463   1.350000   3.410050   1.997549
    24  F    5.058734   5.702312   5.640797   5.649179   6.447759
    25  F    3.659526   4.493496   3.766430   4.403463   4.615718
    26  C    5.872419   6.064777   6.762206   6.673231   7.293256
    27  O    6.583950   6.872934   7.269639   7.450806   7.814560
    28  C    6.690515   6.765797   7.790093   7.302239   8.309918
    29  H    7.114756   7.037847   8.216922   7.829035   8.616402
    30  H    6.232787   6.297282   7.463606   6.669484   8.020302
    31  H    7.552820   7.711866   8.620261   8.085951   9.203309
                   16         17         18         19         20
    16  O    0.000000
    17  O    2.329803   0.000000
    18  C    3.518074   1.430000   0.000000
    19  H    4.352220   2.051796   1.070000   0.000000
    20  H    3.786629   2.051796   1.070000   1.747303   0.000000
    21  H    3.743589   2.051796   1.070000   1.747303   1.747303
    22  F    3.361697   2.533154   2.357535   3.055980   3.056268
    23  F    4.082591   4.202362   3.994613   4.890710   4.201581
    24  F    5.160103   7.062705   7.644525   8.685773   7.613422
    25  F    4.269347   5.689368   6.072538   7.073251   6.200266
    26  C    6.329766   8.066437   8.489369   9.553216   8.125288
    27  O    7.116199   8.860304   9.246361  10.316322   8.949827
    28  C    6.839214   8.650237   9.176041  10.211351   8.737562
    29  H    7.486961   9.126725   9.536585  10.558650   8.993221
    30  H    6.129751   7.977899   8.599876   9.608001   8.170115
    31  H    7.512655   9.455109  10.060098  11.096696   9.677929
                   21         22         23         24         25
    21  H    0.000000
    22  F    1.521925   0.000000
    23  F    3.160551   2.204149   0.000000
    24  F    7.299109   6.351023   4.890702   0.000000
    25  F    5.521776   4.410610   2.825510   2.204149   0.000000
    26  C    8.314322   7.772994   6.239808   2.627575   4.241212
    27  O    8.952927   8.266627   6.540421   2.592800   4.311417
    28  C    9.163010   8.758964   7.455180   3.806761   5.543781
    29  H    9.548021   9.274038   7.928277   4.683556   6.256978
    30  H    8.688449   8.351007   7.288225   3.916751   5.512955
    31  H   10.030792   9.529906   8.210389   4.068395   6.049488
                   26         27         28         29         30
    26  C    0.000000
    27  O    1.227317   0.000000
    28  C    1.540000   2.427683   0.000000
    29  H    2.148263   2.949714   1.070000   0.000000
    30  H    2.148263   3.219890   1.070000   1.747303   0.000000
    31  H    2.148263   2.596779   1.070000   1.747303   1.747303
                   31
    31  H    0.000000
 Stoichiometry    C9H12F4N2O4
 Framework group  C1[X(C9H12F4N2O4)]
 Deg. of freedom    87
 Full point group                 C1      NOp   1
 Largest Abelian subgroup         C1      NOp   1
 Largest concise Abelian subgroup C1      NOp   1
                         Standard orientation:                         
 ---------------------------------------------------------------------
 Center     Atomic      Atomic             Coordinates (Angstroms)
 Number     Number       Type             X           Y           Z
 ---------------------------------------------------------------------
      1          7           0        2.570092    0.594151   -0.676569
      2          1           0        2.053242    1.401995   -0.959861
      3          6           0        1.905137   -0.688231   -0.562845
      4          1           0        2.373343   -1.402222   -1.240413
      5          6           0        1.999732   -1.231518    0.858954
      6          6           0        0.430040   -0.574124   -0.919992
      7          1           0        2.517612   -2.190574    0.848292
      8          8           0       -0.032188   -1.217422   -1.897788
      9          7           0       -0.454708    0.287553   -0.122725
     10          1           0       -0.087395    0.798756    0.654290
     11          6           0       -1.859054    0.396186   -0.462743
     12          1           0       -1.959012    0.783175   -1.476817
     13          6           0       -2.548346   -0.962165   -0.389370
     14          6           0       -2.582376    1.336907    0.490323
     15          1           0       -2.960981   -1.214033   -1.366301
     16          8           0       -1.947156    1.905639    1.415856
     17          8           0       -3.983816    1.574479    0.334038
     18          6           0       -4.474617    0.821025   -0.777863
     19          1           0       -5.533387    0.952896   -0.858577
     20          1           0       -4.003223    1.162167   -1.675810
     21          1           0       -4.254482   -0.215761   -0.631182
     22          9           0       -3.544691   -0.913365    0.520253
     23          9           0       -1.651996   -1.903204   -0.023987
     24          9           0        2.684102   -0.359824    1.629855
     25          9           0        0.757812   -1.397018    1.361692
     26          6           0        4.004453    0.707587   -0.375502
     27          8           0        4.677779   -0.256678   -0.024600
     28          6           0        4.606085    2.116790   -0.529727
     29          1           0        4.921602    2.261082   -1.541917
     30          1           0        3.867718    2.849295   -0.278428
     31          1           0        5.446953    2.219114    0.124009
 ---------------------------------------------------------------------
 Rotational constants (GHZ):           0.7663206           0.1953244           0.1833023
 Leave Link  202 at Sat Dec 28 22:23:35 2019, MaxMem=  4294967296 cpu:               3.2 elap:               1.6
 (Enter /n/sw/g16_nehalem/g16/l301.exe)
 Standard basis: 6-31G(d) (6D, 7F)
 Ernie: Thresh=  0.10000D-02 Tol=  0.10000D-05 Strict=F.
 There are   309 symmetry adapted cartesian basis functions of A   symmetry.
 There are   309 symmetry adapted basis functions of A   symmetry.
   309 basis functions,   580 primitive gaussians,   309 cartesian basis functions
    74 alpha electrons       74 beta electrons
       nuclear repulsion energy      1655.1888761802 Hartrees.
 IExCor=  402 DFT=T Ex+Corr=B3LYP ExCW=0 ScaHFX=  0.200000
 ScaDFX=  0.800000  0.720000  1.000000  0.810000 ScalE2=  1.000000  1.000000
 IRadAn=      5 IRanWt=     -1 IRanGd=            0 ICorTp=0 IEmpDi=141
 NAtoms=   31 NActive=   31 NUniq=   31 SFac= 1.00D+00 NAtFMM=   60 NAOKFM=F Big=F
 Integral buffers will be    131072 words long.
 Raffenetti 2 integral format.
 Two-electron integral symmetry is turned on.
 R6Disp:  Grimme-D3(BJ) Dispersion energy=       -0.0563612693 Hartrees.
 Nuclear repulsion after empirical dispersion term =     1655.1325149109 Hartrees.
 ------------------------------------------------------------------------------
 Polarizable Continuum Model (PCM)
 =================================
 Model                : PCM.
 Atomic radii         : SMD-Coulomb.
 Polarization charges : Total charges.
 Charge compensation  : None.
 Solution method      : On-the-fly selection.
 Cavity type          : VdW (van der Waals Surface) (Alpha=1.000).
 Cavity algorithm     : GePol (No added spheres)
                        Default sphere list used, NSphG=   31.
                        Lebedev-Laikov grids with approx.  5.0 points / Ang**2.
                        Smoothing algorithm: York/Karplus (Gamma=1.0000).
                        Polarization charges: spherical gaussians, with
                                              point-specific exponents (IZeta= 3).
                        Self-potential: point-specific (ISelfS= 7).
                        Self-field    : sphere-specific E.n sum rule (ISelfD= 2).
 1st derivatives      : Analytical E(r).r(x)/FMM algorithm (CHGder, D1EAlg=3).
                        Cavity 1st derivative terms included.
 Solvent              : DiethylEther, Eps=   4.240000 Eps(inf)=   1.829527
 ------------------------------------------------------------------------------
 GePol: Number of generator spheres                  =      31
 GePol: Total number of spheres                      =      31
 GePol: Number of exposed spheres                    =      31 (100.00%)
 GePol: Number of points                             =    2388
 GePol: Average weight of points                     =       0.13
 GePol: Minimum weight of points                     =   0.15D-09
 GePol: Maximum weight of points                     =    0.21501
 GePol: Number of points with low weight             =     111
 GePol: Fraction of low-weight points (<1% of avg)   =       4.65%
 GePol: Cavity surface area                          =    308.849 Ang**2
 GePol: Cavity volume                                =    318.530 Ang**3
 ------------------------------------------------------------------------------
 Atomic radii for non-electrostatic terms: SMD-CDS.
 ------------------------------------------------------------------------------
 PCM non-electrostatic energy =        -0.0047055696 Hartrees.
 Nuclear repulsion after PCM non-electrostatic terms =     1655.1278093413 Hartrees.
 Leave Link  301 at Sat Dec 28 22:23:36 2019, MaxMem=  4294967296 cpu:               2.4 elap:               1.2
 (Enter /n/sw/g16_nehalem/g16/l302.exe)
 NPDir=0 NMtPBC=     1 NCelOv=     1 NCel=       1 NClECP=     1 NCelD=      1
         NCelK=      1 NCelE2=     1 NClLst=     1 CellRange=     0.0.
 One-electron integrals computed using PRISM.
 One-electron integral symmetry used in STVInt
 NBasis=   309 RedAO= T EigKep=  1.16D-03  NBF=   309
 NBsUse=   309 1.00D-06 EigRej= -1.00D+00 NBFU=   309
 Precomputing XC quadrature grid using
 IXCGrd= 4 IRadAn=           5 IRanWt=          -1 IRanGd=           0 AccXCQ= 0.00D+00.
 Generated NRdTot=       0 NPtTot=           0 NUsed=           0 NTot=          32
 NSgBfM=   308   308   308   308   308 MxSgAt=    31 MxSgA2=    31.
 Leave Link  302 at Sat Dec 28 22:24:24 2019, MaxMem=  4294967296 cpu:              96.0 elap:              48.1
 (Enter /n/sw/g16_nehalem/g16/l303.exe)
 DipDrv:  MaxL=1.
 Leave Link  303 at Sat Dec 28 22:24:27 2019, MaxMem=  4294967296 cpu:               5.9 elap:               3.0
 (Enter /n/sw/g16_nehalem/g16/l401.exe)
 ExpMin= 1.61D-01 ExpMax= 7.00D+03 ExpMxC= 1.05D+03 IAcc=3 IRadAn=         5 AccDes= 0.00D+00
 Harris functional with IExCor=  402 and IRadAn=       5 diagonalized for initial guess.
 HarFok:  IExCor=  402 AccDes= 0.00D+00 IRadAn=         5 IDoV= 1 UseB2=F ITyADJ=14
 ICtDFT=  3500011 ScaDFX=  1.000000  1.000000  1.000000  1.000000
 FoFCou: FMM=F IPFlag=           0 FMFlag=      100000 FMFlg1=           0
         NFxFlg=           0 DoJE=T BraDBF=F KetDBF=T FulRan=T
         wScrn=  0.000000 ICntrl=       500 IOpCl=  0 I1Cent=   200000004 NGrid=           0
         NMat0=    1 NMatS0=      1 NMatT0=    0 NMatD0=    1 NMtDS0=    0 NMtDT0=    0
 Petite list used in FoFCou.
 Harris En= -1159.87297865304    
 JPrj=0 DoOrth=F DoCkMO=F.
 Leave Link  401 at Sat Dec 28 22:22:58 2019, MaxMem=  4294967296 cpu:              67.5 elap:              38.4
 (Enter /n/sw/g16_nehalem/g16/l502.exe)
 Integral symmetry usage will be decided dynamically.
 Closed shell SCF:
 Using DIIS extrapolation, IDIIS=  1040.
 NGot=  4294967296 LenX=  4294767994 LenY=  4294672072
 Requested convergence on RMS density matrix=1.00D-08 within 128 cycles.
 Requested convergence on MAX density matrix=1.00D-06.
 Requested convergence on             energy=1.00D-06.
 No special actions if energy rises.
 Fock matrices will be formed incrementally for  20 cycles.

 Cycle   1  Pass 1  IDiag  1:
 FoFJK:  IHMeth= 1 ICntrl=       0 DoSepK=F KAlg= 0 I1Cent=           0 FoldK=F
 IRaf= 780000000 NMat=       1 IRICut=       1 DoRegI=T DoRafI=F ISym2E= 0 IDoP0=0 IntGTp=1.
 FoFCou: FMM=F IPFlag=           0 FMFlag=      100000 FMFlg1=           0
         NFxFlg=           0 DoJE=F BraDBF=F KetDBF=F FulRan=T
         wScrn=  0.000000 ICntrl=         0 IOpCl=  0 I1Cent=           0 NGrid=           0
         NMat0=    1 NMatS0=      1 NMatT0=    0 NMatD0=    1 NMtDS0=    0 NMtDT0=    0
 Symmetry not used in FoFCou.
 Inv3:  Mode=1 IEnd=    17107632.
 Iteration    1 A*A^-1 deviation from unit magnitude is 6.44D-15 for    987.
 Iteration    1 A*A^-1 deviation from orthogonality  is 1.99D-15 for    990    987.
 Iteration    1 A^-1*A deviation from unit magnitude is 5.33D-15 for   2388.
 Iteration    1 A^-1*A deviation from orthogonality  is 2.51D-15 for   1371    976.
 E= -1159.51648493684    
 DIIS: error= 2.44D-02 at cycle   1 NSaved=   1.
 NSaved= 1 IEnMin= 1 EnMin= -1159.51648493684     IErMin= 1 ErrMin= 2.44D-02
 ErrMax= 2.44D-02  0.00D+00 EMaxC= 1.00D-01 BMatC= 5.31D-01 BMatP= 5.31D-01
 IDIUse=3 WtCom= 7.56D-01 WtEn= 2.44D-01
 Coeff-Com:  0.100D+01
 Coeff-En:   0.100D+01
 Coeff:      0.100D+01
 Gap=     0.216 Goal=   None    Shift=    0.000
 GapD=    0.216 DampG=1.000 DampE=0.500 DampFc=0.5000 IDamp=-1.
 Damping current iteration by 5.00D-01
 RMSDP=5.31D-03 MaxDP=2.10D-01              OVMax= 3.13D-01

 Cycle   2  Pass 1  IDiag  1:
 RMSU=  2.65D-03    CP:  9.96D-01
 E= -1159.56577664653     Delta-E=       -0.049291709688 Rises=F Damp=T
 DIIS: error= 1.52D-02 at cycle   2 NSaved=   2.
 NSaved= 2 IEnMin= 2 EnMin= -1159.56577664653     IErMin= 2 ErrMin= 1.52D-02
 ErrMax= 1.52D-02  0.00D+00 EMaxC= 1.00D-01 BMatC= 1.24D-01 BMatP= 5.31D-01
 IDIUse=3 WtCom= 8.48D-01 WtEn= 1.52D-01
 Coeff-Com:  0.281D+00 0.719D+00
 Coeff-En:   0.447D+00 0.553D+00
 Coeff:      0.306D+00 0.694D+00
 Gap=     0.202 Goal=   None    Shift=    0.000
 RMSDP=1.78D-03 MaxDP=6.89D-02 DE=-4.93D-02 OVMax= 1.92D-01

 Cycle   3  Pass 1  IDiag  1:
 RMSU=  1.38D-03    CP:  9.89D-01  5.78D-01
 E= -1159.86331080872     Delta-E=       -0.297534162191 Rises=F Damp=F
 DIIS: error= 9.69D-03 at cycle   3 NSaved=   3.
 NSaved= 3 IEnMin= 3 EnMin= -1159.86331080872     IErMin= 3 ErrMin= 9.69D-03
 ErrMax= 9.69D-03  0.00D+00 EMaxC= 1.00D-01 BMatC= 7.30D-02 BMatP= 1.24D-01
 IDIUse=3 WtCom= 9.03D-01 WtEn= 9.69D-02
 Coeff-Com:  0.105D+00 0.430D+00 0.466D+00
 Coeff-En:   0.000D+00 0.000D+00 0.100D+01
 Coeff:      0.948D-01 0.388D+00 0.517D+00
 Gap=     0.234 Goal=   None    Shift=    0.000
 RMSDP=1.02D-03 MaxDP=3.61D-02 DE=-2.98D-01 OVMax= 7.76D-02

 Cycle   4  Pass 1  IDiag  1:
 RMSU=  5.10D-04    CP:  9.94D-01  7.19D-01  4.24D-01
 E= -1159.91748254504     Delta-E=       -0.054171736326 Rises=F Damp=F
 DIIS: error= 3.01D-03 at cycle   4 NSaved=   4.
 NSaved= 4 IEnMin= 4 EnMin= -1159.91748254504     IErMin= 4 ErrMin= 3.01D-03
 ErrMax= 3.01D-03  0.00D+00 EMaxC= 1.00D-01 BMatC= 1.15D-02 BMatP= 7.30D-02
 IDIUse=3 WtCom= 9.70D-01 WtEn= 3.01D-02
 Coeff-Com:  0.193D-01 0.106D+00 0.301D+00 0.573D+00
 Coeff-En:   0.000D+00 0.000D+00 0.137D+00 0.863D+00
 Coeff:      0.187D-01 0.103D+00 0.296D+00 0.582D+00
 Gap=     0.226 Goal=   None    Shift=    0.000
 RMSDP=3.41D-04 MaxDP=1.49D-02 DE=-5.42D-02 OVMax= 2.77D-02

 Cycle   5  Pass 1  IDiag  1:
 RMSU=  1.74D-04    CP:  9.93D-01  6.73D-01  5.50D-01  6.03D-01
 E= -1159.92578476169     Delta-E=       -0.008302216651 Rises=F Damp=F
 DIIS: error= 9.93D-04 at cycle   5 NSaved=   5.
 NSaved= 5 IEnMin= 5 EnMin= -1159.92578476169     IErMin= 5 ErrMin= 9.93D-04
 ErrMax= 9.93D-04  0.00D+00 EMaxC= 1.00D-01 BMatC= 1.07D-03 BMatP= 1.15D-02
 IDIUse=3 WtCom= 9.90D-01 WtEn= 9.93D-03
 Coeff-Com:  0.168D-02 0.173D-01 0.121D+00 0.338D+00 0.522D+00
 Coeff-En:   0.000D+00 0.000D+00 0.000D+00 0.285D-01 0.972D+00
 Coeff:      0.167D-02 0.172D-01 0.120D+00 0.335D+00 0.526D+00
 Gap=     0.224 Goal=   None    Shift=    0.000
 RMSDP=1.00D-04 MaxDP=5.03D-03 DE=-8.30D-03 OVMax= 7.99D-03

 Cycle   6  Pass 1  IDiag  1:
 RMSU=  4.79D-05    CP:  9.93D-01  6.80D-01  5.50D-01  6.79D-01  5.60D-01
 E= -1159.92662234377     Delta-E=       -0.000837582074 Rises=F Damp=F
 DIIS: error= 2.74D-04 at cycle   6 NSaved=   6.
 NSaved= 6 IEnMin= 6 EnMin= -1159.92662234377     IErMin= 6 ErrMin= 2.74D-04
 ErrMax= 2.74D-04  0.00D+00 EMaxC= 1.00D-01 BMatC= 7.90D-05 BMatP= 1.07D-03
 IDIUse=3 WtCom= 9.97D-01 WtEn= 2.74D-03
 Coeff-Com: -0.112D-03 0.146D-02 0.430D-01 0.134D+00 0.288D+00 0.534D+00
 Coeff-En:   0.000D+00 0.000D+00 0.000D+00 0.000D+00 0.000D+00 0.100D+01
 Coeff:     -0.111D-03 0.146D-02 0.429D-01 0.133D+00 0.288D+00 0.535D+00
 Gap=     0.225 Goal=   None    Shift=    0.000
 RMSDP=2.94D-05 MaxDP=1.74D-03 DE=-8.38D-04 OVMax= 2.26D-03

 Cycle   7  Pass 1  IDiag  1:
 RMSU=  1.88D-05    CP:  9.93D-01  6.81D-01  5.52D-01  6.77D-01  5.99D-01
                    CP:  5.55D-01
 E= -1159.92667264947     Delta-E=       -0.000050305698 Rises=F Damp=F
 DIIS: error= 1.51D-04 at cycle   7 NSaved=   7.
 NSaved= 7 IEnMin= 7 EnMin= -1159.92667264947     IErMin= 7 ErrMin= 1.51D-04
 ErrMax= 1.51D-04  0.00D+00 EMaxC= 1.00D-01 BMatC= 1.39D-05 BMatP= 7.90D-05
 IDIUse=3 WtCom= 9.98D-01 WtEn= 1.51D-03
 Coeff-Com: -0.216D-03-0.128D-02 0.150D-01 0.486D-01 0.133D+00 0.347D+00
 Coeff-Com:  0.458D+00
 Coeff-En:   0.000D+00 0.000D+00 0.000D+00 0.000D+00 0.000D+00 0.115D+00
 Coeff-En:   0.885D+00
 Coeff:     -0.216D-03-0.128D-02 0.150D-01 0.485D-01 0.133D+00 0.347D+00
 Coeff:      0.458D+00
 Gap=     0.225 Goal=   None    Shift=    0.000
 RMSDP=1.14D-05 MaxDP=7.08D-04 DE=-5.03D-05 OVMax= 9.81D-04

 Cycle   8  Pass 1  IDiag  1:
 RMSU=  5.93D-06    CP:  9.93D-01  6.80D-01  5.52D-01  6.77D-01  6.01D-01
                    CP:  6.46D-01  5.62D-01
 E= -1159.92668294529     Delta-E=       -0.000010295828 Rises=F Damp=F
 DIIS: error= 3.48D-05 at cycle   8 NSaved=   8.
 NSaved= 8 IEnMin= 8 EnMin= -1159.92668294529     IErMin= 8 ErrMin= 3.48D-05
 ErrMax= 3.48D-05  0.00D+00 EMaxC= 1.00D-01 BMatC= 8.72D-07 BMatP= 1.39D-05
 IDIUse=1 WtCom= 1.00D+00 WtEn= 0.00D+00
 Coeff-Com: -0.585D-04-0.947D-03 0.450D-02 0.136D-01 0.488D-01 0.145D+00
 Coeff-Com:  0.252D+00 0.537D+00
 Coeff:     -0.585D-04-0.947D-03 0.450D-02 0.136D-01 0.488D-01 0.145D+00
 Coeff:      0.252D+00 0.537D+00
 Gap=     0.225 Goal=   None    Shift=    0.000
 RMSDP=2.92D-06 MaxDP=1.61D-04 DE=-1.03D-05 OVMax= 1.66D-04

 Cycle   9  Pass 1  IDiag  1:
 RMSU=  1.87D-06    CP:  9.93D-01  6.79D-01  5.53D-01  6.77D-01  6.04D-01
                    CP:  6.44D-01  6.01D-01  6.74D-01
 E= -1159.92668356811     Delta-E=       -0.000000622819 Rises=F Damp=F
 DIIS: error= 1.12D-05 at cycle   9 NSaved=   9.
 NSaved= 9 IEnMin= 9 EnMin= -1159.92668356811     IErMin= 9 ErrMin= 1.12D-05
 ErrMax= 1.12D-05  0.00D+00 EMaxC= 1.00D-01 BMatC= 1.01D-07 BMatP= 8.72D-07
 IDIUse=1 WtCom= 1.00D+00 WtEn= 0.00D+00
 Coeff-Com:  0.197D-04-0.380D-03 0.876D-03 0.163D-02 0.119D-01 0.382D-01
 Coeff-Com:  0.780D-01 0.288D+00 0.582D+00
 Coeff:      0.197D-04-0.380D-03 0.876D-03 0.163D-02 0.119D-01 0.382D-01
 Coeff:      0.780D-01 0.288D+00 0.582D+00
 Gap=     0.225 Goal=   None    Shift=    0.000
 RMSDP=1.08D-06 MaxDP=4.19D-05 DE=-6.23D-07 OVMax= 6.01D-05

 Cycle  10  Pass 1  IDiag  1:
 RMSU=  8.02D-07    CP:  9.93D-01  6.79D-01  5.53D-01  6.77D-01  6.05D-01
                    CP:  6.47D-01  6.02D-01  7.28D-01  7.82D-01
 E= -1159.92668363124     Delta-E=       -0.000000063129 Rises=F Damp=F
 DIIS: error= 8.70D-06 at cycle  10 NSaved=  10.
 NSaved=10 IEnMin=10 EnMin= -1159.92668363124     IErMin=10 ErrMin= 8.70D-06
 ErrMax= 8.70D-06  0.00D+00 EMaxC= 1.00D-01 BMatC= 2.03D-08 BMatP= 1.01D-07
 IDIUse=1 WtCom= 1.00D+00 WtEn= 0.00D+00
 Coeff-Com:  0.260D-04-0.955D-04-0.109D-03-0.114D-02-0.382D-04 0.489D-03
 Coeff-Com:  0.636D-02 0.929D-01 0.367D+00 0.534D+00
 Coeff:      0.260D-04-0.955D-04-0.109D-03-0.114D-02-0.382D-04 0.489D-03
 Coeff:      0.636D-02 0.929D-01 0.367D+00 0.534D+00
 Gap=     0.225 Goal=   None    Shift=    0.000
 RMSDP=4.26D-07 MaxDP=2.01D-05 DE=-6.31D-08 OVMax= 2.87D-05

 Cycle  11  Pass 1  IDiag  1:
 RMSU=  2.43D-07    CP:  9.93D-01  6.79D-01  5.53D-01  6.77D-01  6.05D-01
                    CP:  6.48D-01  6.05D-01  7.44D-01  8.64D-01  6.58D-01
 E= -1159.92668364598     Delta-E=       -0.000000014740 Rises=F Damp=F
 DIIS: error= 1.33D-06 at cycle  11 NSaved=  11.
 NSaved=11 IEnMin=11 EnMin= -1159.92668364598     IErMin=11 ErrMin= 1.33D-06
 ErrMax= 1.33D-06  0.00D+00 EMaxC= 1.00D-01 BMatC= 1.81D-09 BMatP= 2.03D-08
 IDIUse=1 WtCom= 1.00D+00 WtEn= 0.00D+00
 Coeff-Com:  0.128D-04-0.272D-04-0.126D-03-0.779D-03-0.917D-03-0.279D-02
 Coeff-Com: -0.304D-02 0.306D-01 0.164D+00 0.311D+00 0.502D+00
 Coeff:      0.128D-04-0.272D-04-0.126D-03-0.779D-03-0.917D-03-0.279D-02
 Coeff:     -0.304D-02 0.306D-01 0.164D+00 0.311D+00 0.502D+00
 Gap=     0.225 Goal=   None    Shift=    0.000
 RMSDP=1.52D-07 MaxDP=7.62D-06 DE=-1.47D-08 OVMax= 1.26D-05

 Cycle  12  Pass 1  IDiag  1:
 RMSU=  1.06D-07    CP:  9.93D-01  6.79D-01  5.53D-01  6.76D-01  6.05D-01
                    CP:  6.48D-01  6.05D-01  7.49D-01  8.66D-01  7.10D-01
                    CP:  6.32D-01
 E= -1159.92668364713     Delta-E=       -0.000000001148 Rises=F Damp=F
 DIIS: error= 5.26D-07 at cycle  12 NSaved=  12.
 NSaved=12 IEnMin=12 EnMin= -1159.92668364713     IErMin=12 ErrMin= 5.26D-07
 ErrMax= 5.26D-07  0.00D+00 EMaxC= 1.00D-01 BMatC= 3.23D-10 BMatP= 1.81D-09
 IDIUse=1 WtCom= 1.00D+00 WtEn= 0.00D+00
 Coeff-Com:  0.268D-05 0.838D-06-0.533D-04-0.252D-03-0.503D-03-0.171D-02
 Coeff-Com: -0.308D-02 0.170D-02 0.292D-01 0.855D-01 0.321D+00 0.568D+00
 Coeff:      0.268D-05 0.838D-06-0.533D-04-0.252D-03-0.503D-03-0.171D-02
 Coeff:     -0.308D-02 0.170D-02 0.292D-01 0.855D-01 0.321D+00 0.568D+00
 Gap=     0.225 Goal=   None    Shift=    0.000
 RMSDP=6.11D-08 MaxDP=2.56D-06 DE=-1.15D-09 OVMax= 5.79D-06

 Cycle  13  Pass 1  IDiag  1:
 RMSU=  2.94D-08    CP:  9.93D-01  6.79D-01  5.53D-01  6.77D-01  6.05D-01
                    CP:  6.48D-01  6.05D-01  7.50D-01  8.76D-01  7.16D-01
                    CP:  7.34D-01  6.03D-01
 E= -1159.92668364738     Delta-E=       -0.000000000245 Rises=F Damp=F
 DIIS: error= 1.28D-07 at cycle  13 NSaved=  13.
 NSaved=13 IEnMin=13 EnMin= -1159.92668364738     IErMin=13 ErrMin= 1.28D-07
 ErrMax= 1.28D-07  0.00D+00 EMaxC= 1.00D-01 BMatC= 2.23D-11 BMatP= 3.23D-10
 IDIUse=1 WtCom= 1.00D+00 WtEn= 0.00D+00
 Coeff-Com:  0.515D-06 0.233D-05-0.213D-04-0.845D-04-0.214D-03-0.735D-03
 Coeff-Com: -0.153D-02-0.142D-02 0.281D-02 0.224D-01 0.137D+00 0.312D+00
 Coeff-Com:  0.530D+00
 Coeff:      0.515D-06 0.233D-05-0.213D-04-0.845D-04-0.214D-03-0.735D-03
 Coeff:     -0.153D-02-0.142D-02 0.281D-02 0.224D-01 0.137D+00 0.312D+00
 Coeff:      0.530D+00
 Gap=     0.225 Goal=   None    Shift=    0.000
 RMSDP=1.57D-08 MaxDP=7.77D-07 DE=-2.45D-10 OVMax= 1.05D-06

 Cycle  14  Pass 1  IDiag  1:
 RMSU=  8.87D-09    CP:  9.93D-01  6.79D-01  5.53D-01  6.77D-01  6.05D-01
                    CP:  6.48D-01  6.05D-01  7.50D-01  8.76D-01  7.19D-01
                    CP:  7.34D-01  6.57D-01  6.42D-01
 E= -1159.92668364744     Delta-E=       -0.000000000061 Rises=F Damp=F
 DIIS: error= 3.23D-08 at cycle  14 NSaved=  14.
 NSaved=14 IEnMin=14 EnMin= -1159.92668364744     IErMin=14 ErrMin= 3.23D-08
 ErrMax= 3.23D-08  0.00D+00 EMaxC= 1.00D-01 BMatC= 1.98D-12 BMatP= 2.23D-11
 IDIUse=1 WtCom= 1.00D+00 WtEn= 0.00D+00
 Coeff-Com: -0.130D-06 0.887D-06-0.144D-05-0.259D-05-0.263D-04-0.107D-03
 Coeff-Com: -0.330D-03-0.942D-03-0.313D-02-0.156D-02 0.218D-01 0.745D-01
 Coeff-Com:  0.261D+00 0.649D+00
 Coeff:     -0.130D-06 0.887D-06-0.144D-05-0.259D-05-0.263D-04-0.107D-03
 Coeff:     -0.330D-03-0.942D-03-0.313D-02-0.156D-02 0.218D-01 0.745D-01
 Coeff:      0.261D+00 0.649D+00
 Gap=     0.225 Goal=   None    Shift=    0.000
 RMSDP=4.83D-09 MaxDP=2.48D-07 DE=-6.09D-11 OVMax= 4.41D-07

 Error on total polarization charges =  0.01948
 SCF Done:  E(RB3LYP) =  -1159.92668365     A.U. after   14 cycles
            NFock= 14  Conv=0.48D-08     -V/T= 2.0081
 KE= 1.150568990187D+03 PE=-6.038098491554D+03 EE= 2.072475008378D+03
 SMD-CDS (non-electrostatic) energy       (kcal/mol) =      -2.95
 (included in total energy above)
 Leave Link  502 at Sat Dec 28 22:35:20 2019, MaxMem=  4294967296 cpu:            1236.3 elap:             619.7
 (Enter /n/sw/g16_nehalem/g16/l601.exe)
 Copying SCF densities to generalized density rwf, IOpCl= 0 IROHF=0.

 **********************************************************************

            Population analysis using the SCF density.

 **********************************************************************

 Orbital symmetries:
       Occupied  (A) (A) (A) (A) (A) (A) (A) (A) (A) (A) (A) (A)
                 (A) (A) (A) (A) (A) (A) (A) (A) (A) (A) (A) (A)
                 (A) (A) (A) (A) (A) (A) (A) (A) (A) (A) (A) (A)
                 (A) (A) (A) (A) (A) (A) (A) (A) (A) (A) (A) (A)
                 (A) (A) (A) (A) (A) (A) (A) (A) (A) (A) (A) (A)
                 (A) (A) (A) (A) (A) (A) (A) (A) (A) (A) (A) (A)
                 (A) (A)
       Virtual   (A) (A) (A) (A) (A) (A) (A) (A) (A) (A) (A) (A)
                 (A) (A) (A) (A) (A) (A) (A) (A) (A) (A) (A) (A)
                 (A) (A) (A) (A) (A) (A) (A) (A) (A) (A) (A) (A)
                 (A) (A) (A) (A) (A) (A) (A) (A) (A) (A) (A) (A)
                 (A) (A) (A) (A) (A) (A) (A) (A) (A) (A) (A) (A)
                 (A) (A) (A) (A) (A) (A) (A) (A) (A) (A) (A) (A)
                 (A) (A) (A) (A) (A) (A) (A) (A) (A) (A) (A) (A)
                 (A) (A) (A) (A) (A) (A) (A) (A) (A) (A) (A) (A)
                 (A) (A) (A) (A) (A) (A) (A) (A) (A) (A) (A) (A)
                 (A) (A) (A) (A) (A) (A) (A) (A) (A) (A) (A) (A)
                 (A) (A) (A) (A) (A) (A) (A) (A) (A) (A) (A) (A)
                 (A) (A) (A) (A) (A) (A) (A) (A) (A) (A) (A) (A)
                 (A) (A) (A) (A) (A) (A) (A) (A) (A) (A) (A) (A)
                 (A) (A) (A) (A) (A) (A) (A) (A) (A) (A) (A) (A)
                 (A) (A) (A) (A) (A) (A) (A) (A) (A) (A) (A) (A)
                 (A) (A) (A) (A) (A) (A) (A) (A) (A) (A) (A) (A)
                 (A) (A) (A) (A) (A) (A) (A) (A) (A) (A) (A) (A)
                 (A) (A) (A) (A) (A) (A) (A) (A) (A) (A) (A) (A)
                 (A) (A) (A) (A) (A) (A) (A) (A) (A) (A) (A) (A)
                 (A) (A) (A) (A) (A) (A) (A)
 The electronic state is 1-A.
 Alpha  occ. eigenvalues --  -24.72911 -24.71214 -24.70883 -24.70204 -19.20475
 Alpha  occ. eigenvalues --  -19.15843 -19.13749 -19.12593 -14.36972 -14.36036
 Alpha  occ. eigenvalues --  -10.35830 -10.34496 -10.34132 -10.31678 -10.30159
 Alpha  occ. eigenvalues --  -10.26458 -10.24643 -10.21681 -10.18267  -1.27941
 Alpha  occ. eigenvalues --   -1.25596  -1.21534  -1.19764  -1.08629  -1.03399
 Alpha  occ. eigenvalues --   -1.03005  -1.01799  -0.92651  -0.91537  -0.79627
 Alpha  occ. eigenvalues --   -0.77276  -0.72920  -0.71989  -0.68467  -0.66210
 Alpha  occ. eigenvalues --   -0.60675  -0.59739  -0.58682  -0.57707  -0.55966
 Alpha  occ. eigenvalues --   -0.55652  -0.55014  -0.54822  -0.52664  -0.52415
 Alpha  occ. eigenvalues --   -0.50182  -0.49787  -0.47393  -0.46928  -0.45820
 Alpha  occ. eigenvalues --   -0.44934  -0.44368  -0.43638  -0.42904  -0.42288
 Alpha  occ. eigenvalues --   -0.42034  -0.41780  -0.40801  -0.40459  -0.39804
 Alpha  occ. eigenvalues --   -0.39784  -0.39651  -0.38113  -0.36927  -0.36046
 Alpha  occ. eigenvalues --   -0.35234  -0.34900  -0.34050  -0.29616  -0.28950
 Alpha  occ. eigenvalues --   -0.27173  -0.26254  -0.25677  -0.25193
 Alpha virt. eigenvalues --   -0.02702  -0.01560   0.01338   0.06830   0.08525
 Alpha virt. eigenvalues --    0.09258   0.10184   0.10801   0.12674   0.13649
 Alpha virt. eigenvalues --    0.14350   0.15074   0.16196   0.16757   0.17395
 Alpha virt. eigenvalues --    0.17910   0.18269   0.18768   0.19638   0.20495
 Alpha virt. eigenvalues --    0.21161   0.21321   0.23932   0.25253   0.26167
 Alpha virt. eigenvalues --    0.27786   0.29988   0.30560   0.32050   0.33803
 Alpha virt. eigenvalues --    0.35003   0.37601   0.39780   0.47743   0.49801
 Alpha virt. eigenvalues --    0.51467   0.52258   0.53037   0.53732   0.54052
 Alpha virt. eigenvalues --    0.54326   0.55040   0.56572   0.57074   0.57345
 Alpha virt. eigenvalues --    0.57887   0.59051   0.60656   0.60799   0.62559
 Alpha virt. eigenvalues --    0.63472   0.64655   0.65875   0.67205   0.68385
 Alpha virt. eigenvalues --    0.68496   0.71730   0.72253   0.75882   0.76392
 Alpha virt. eigenvalues --    0.78996   0.79926   0.80750   0.81892   0.82580
 Alpha virt. eigenvalues --    0.84135   0.85322   0.86275   0.86784   0.87033
 Alpha virt. eigenvalues --    0.88230   0.88649   0.88993   0.90810   0.91699
 Alpha virt. eigenvalues --    0.92082   0.92621   0.94274   0.95558   0.96974
 Alpha virt. eigenvalues --    0.97314   0.98061   0.99010   1.00522   1.02844
 Alpha virt. eigenvalues --    1.04804   1.05867   1.08419   1.09750   1.10283
 Alpha virt. eigenvalues --    1.11361   1.12826   1.15919   1.16459   1.19180
 Alpha virt. eigenvalues --    1.19741   1.21859   1.22190   1.24458   1.27024
 Alpha virt. eigenvalues --    1.29896   1.31097   1.33334   1.34346   1.36415
 Alpha virt. eigenvalues --    1.37044   1.39312   1.39468   1.39764   1.42300
 Alpha virt. eigenvalues --    1.43398   1.45138   1.45942   1.47902   1.49191
 Alpha virt. eigenvalues --    1.50708   1.52234   1.53226   1.53750   1.54581
 Alpha virt. eigenvalues --    1.56295   1.60369   1.62120   1.64594   1.65239
 Alpha virt. eigenvalues --    1.66250   1.67362   1.69401   1.71113   1.72506
 Alpha virt. eigenvalues --    1.73655   1.73754   1.74484   1.76759   1.77605
 Alpha virt. eigenvalues --    1.77876   1.78534   1.80253   1.81082   1.81569
 Alpha virt. eigenvalues --    1.83358   1.84225   1.85434   1.86216   1.86911
 Alpha virt. eigenvalues --    1.87299   1.89238   1.90373   1.91874   1.92899
 Alpha virt. eigenvalues --    1.93400   1.94708   1.95266   1.96149   1.97342
 Alpha virt. eigenvalues --    1.99177   2.01000   2.03471   2.05053   2.05998
 Alpha virt. eigenvalues --    2.07081   2.07871   2.09065   2.10422   2.11611
 Alpha virt. eigenvalues --    2.14068   2.16615   2.17209   2.17584   2.18581
 Alpha virt. eigenvalues --    2.20893   2.23144   2.24490   2.25217   2.26413
 Alpha virt. eigenvalues --    2.27459   2.27917   2.30201   2.32907   2.34343
 Alpha virt. eigenvalues --    2.34584   2.37548   2.38720   2.42975   2.45852
 Alpha virt. eigenvalues --    2.46255   2.47687   2.50260   2.51070   2.54926
 Alpha virt. eigenvalues --    2.55950   2.59289   2.60895   2.63437   2.63705
 Alpha virt. eigenvalues --    2.66466   2.69117   2.70480   2.73922   2.75827
 Alpha virt. eigenvalues --    2.78082   2.80314   2.83593   2.83969   2.85796
 Alpha virt. eigenvalues --    2.90093   2.94083   2.97030   2.97163   3.02893
 Alpha virt. eigenvalues --    3.03740   3.06218   3.11171   3.11937   3.12823
 Alpha virt. eigenvalues --    3.14512   3.90973   3.95603   3.99498   4.02774
 Alpha virt. eigenvalues --    4.10607   4.17711   4.18403   4.25845   4.28763
 Alpha virt. eigenvalues --    4.34260   4.37599   4.40048   4.44971   4.52548
 Alpha virt. eigenvalues --    4.58841   4.70286   4.74783   5.33297   5.47451
          Condensed to atoms (all electrons):
               1          2          3          4          5          6
     1  N    7.211037   0.306066   0.193670  -0.045782  -0.049613  -0.014890
     2  H    0.306066   0.366446  -0.037412   0.002968   0.002821  -0.001475
     3  C    0.193670  -0.037412   5.356490   0.359353   0.239991   0.300020
     4  H   -0.045782   0.002968   0.359353   0.524453  -0.036923  -0.024680
     5  C   -0.049613   0.002821   0.239991  -0.036923   4.467239  -0.033044
     6  C   -0.014890  -0.001475   0.300020  -0.024680  -0.033044   4.464473
     7  H    0.003971  -0.000183  -0.077751  -0.003623   0.378430   0.004350
     8  O    0.000787   0.000011  -0.059482   0.003066   0.000855   0.508956
     9  N   -0.001619   0.006691  -0.087118   0.004169   0.003785   0.217437
    10  H    0.004105   0.000094  -0.006325   0.000005   0.001772  -0.004863
    11  C    0.000059  -0.000050   0.003750  -0.000052  -0.000068  -0.026272
    12  H   -0.000011  -0.000077   0.000184   0.000000   0.000004  -0.001715
    13  C    0.000001   0.000009   0.000192  -0.000007  -0.000062  -0.001104
    14  C   -0.000006  -0.000010  -0.000042   0.000000  -0.000011   0.004535
    15  H    0.000000   0.000000   0.000010  -0.000001   0.000001   0.000775
    16  O   -0.000001   0.000000  -0.000014   0.000000  -0.000012   0.000491
    17  O    0.000000   0.000000   0.000000   0.000000   0.000000  -0.000020
    18  C    0.000000   0.000000   0.000000   0.000000   0.000000   0.000021
    19  H    0.000000   0.000000   0.000000   0.000000   0.000000   0.000000
    20  H    0.000000   0.000000   0.000000   0.000000   0.000000  -0.000006
    21  H    0.000000   0.000000   0.000000   0.000000   0.000000   0.000024
    22  F    0.000000   0.000000   0.000000   0.000000   0.000000   0.000062
    23  F    0.000001   0.000001  -0.000815   0.000011   0.000329   0.010589
    24  F   -0.009637   0.000052  -0.036638   0.002072   0.273817  -0.000914
    25  F    0.000841   0.000006  -0.046841   0.002681   0.270858   0.009933
    26  C    0.233208  -0.010922  -0.024702  -0.000953  -0.004462   0.004558
    27  O   -0.086982   0.002490   0.012452   0.003810   0.006785   0.000730
    28  C   -0.101803   0.001227   0.005318   0.000125   0.000401  -0.000029
    29  H    0.000886   0.000097  -0.000185   0.000014  -0.000007  -0.000002
    30  H    0.004944   0.001054   0.000058   0.000006  -0.000073  -0.000034
    31  H    0.003554  -0.000136  -0.000100  -0.000009   0.000003   0.000001
               7          8          9         10         11         12
     1  N    0.003971   0.000787  -0.001619   0.004105   0.000059  -0.000011
     2  H   -0.000183   0.000011   0.006691   0.000094  -0.000050  -0.000077
     3  C   -0.077751  -0.059482  -0.087118  -0.006325   0.003750   0.000184
     4  H   -0.003623   0.003066   0.004169   0.000005  -0.000052   0.000000
     5  C    0.378430   0.000855   0.003785   0.001772  -0.000068   0.000004
     6  C    0.004350   0.508956   0.217437  -0.004863  -0.026272  -0.001715
     7  H    0.611201   0.000000  -0.000056   0.000264   0.000010   0.000000
     8  O    0.000000   8.153378  -0.095036   0.002598   0.012340   0.004441
     9  N   -0.000056  -0.095036   7.199853   0.286254   0.230774  -0.041865
    10  H    0.000264   0.002598   0.286254   0.356488  -0.040161   0.002842
    11  C    0.000010   0.012340   0.230774  -0.040161   5.481570   0.356948
    12  H    0.000000   0.004441  -0.041865   0.002842   0.356948   0.505509
    13  C    0.000005   0.006876  -0.049891   0.002793   0.211019  -0.039345
    14  C    0.000000   0.000585  -0.014253   0.000083   0.206126  -0.024076
    15  H    0.000000   0.001982   0.004318  -0.000170  -0.084448  -0.002734
    16  O    0.000000  -0.000003  -0.007580   0.025057  -0.083832   0.000618
    17  O    0.000000   0.000000   0.001552   0.000396  -0.074754   0.000004
    18  C    0.000000   0.000015   0.000527  -0.000035  -0.003899  -0.000160
    19  H    0.000000   0.000000  -0.000007   0.000001  -0.000143   0.000134
    20  H    0.000000  -0.000011   0.000095  -0.000005   0.004748   0.003990
    21  H    0.000000   0.000004   0.000069  -0.000009   0.005725  -0.000998
    22  F    0.000000   0.000009   0.000493  -0.000007  -0.050171   0.002821
    23  F   -0.000004  -0.009072  -0.007289  -0.000018  -0.043338   0.001716
    24  F   -0.040466  -0.000006  -0.000052   0.001074   0.000002   0.000000
    25  F   -0.040698  -0.000861  -0.012622   0.004437   0.000442  -0.000013
    26  C    0.001184  -0.000080  -0.000028   0.000096   0.000007   0.000000
    27  O    0.001297   0.000000  -0.000003   0.000000   0.000000   0.000000
    28  C    0.000008   0.000000  -0.000009  -0.000007   0.000000   0.000000
    29  H    0.000000   0.000000   0.000000   0.000000   0.000000   0.000000
    30  H    0.000000   0.000000   0.000000   0.000004   0.000000   0.000000
    31  H   -0.000002   0.000000   0.000000   0.000000   0.000000   0.000000
              13         14         15         16         17         18
     1  N    0.000001  -0.000006   0.000000  -0.000001   0.000000   0.000000
     2  H    0.000009  -0.000010   0.000000   0.000000   0.000000   0.000000
     3  C    0.000192  -0.000042   0.000010  -0.000014   0.000000   0.000000
     4  H   -0.000007   0.000000  -0.000001   0.000000   0.000000   0.000000
     5  C   -0.000062  -0.000011   0.000001  -0.000012   0.000000   0.000000
     6  C   -0.001104   0.004535   0.000775   0.000491  -0.000020   0.000021
     7  H    0.000005   0.000000   0.000000   0.000000   0.000000   0.000000
     8  O    0.006876   0.000585   0.001982  -0.000003   0.000000   0.000015
     9  N   -0.049891  -0.014253   0.004318  -0.007580   0.001552   0.000527
    10  H    0.002793   0.000083  -0.000170   0.025057   0.000396  -0.000035
    11  C    0.211019   0.206126  -0.084448  -0.083832  -0.074754  -0.003899
    12  H   -0.039345  -0.024076  -0.002734   0.000618   0.000004  -0.000160
    13  C    4.540610  -0.027967   0.385525   0.000443   0.002441  -0.000139
    14  C   -0.027967   4.480227   0.003624   0.541695   0.243148  -0.038494
    15  H    0.385525   0.003624   0.604146  -0.000133   0.000023   0.000966
    16  O    0.000443   0.541695  -0.000133   8.069985  -0.061487   0.002411
    17  O    0.002441   0.243148   0.000023  -0.061487   8.251425   0.197368
    18  C   -0.000139  -0.038494   0.000966   0.002411   0.197368   5.103208
    19  H   -0.000282   0.004419   0.000107  -0.000062  -0.026475   0.378472
    20  H   -0.000944  -0.011689   0.000300   0.000023  -0.035417   0.360923
    21  H   -0.011477  -0.014027  -0.007498   0.000105  -0.037691   0.357298
    22  F    0.227485   0.020432  -0.046756  -0.000908  -0.004644  -0.060596
    23  F    0.303078  -0.000275  -0.037426  -0.000005  -0.000008   0.000030
    24  F    0.000000   0.000000   0.000000   0.000000   0.000000   0.000000
    25  F    0.000421  -0.000015   0.000001  -0.000005   0.000000   0.000000
    26  C    0.000000   0.000000   0.000000   0.000000   0.000000   0.000000
    27  O    0.000000   0.000000   0.000000   0.000000   0.000000   0.000000
    28  C    0.000000   0.000000   0.000000   0.000000   0.000000   0.000000
    29  H    0.000000   0.000000   0.000000   0.000000   0.000000   0.000000
    30  H    0.000000   0.000000   0.000000   0.000000   0.000000   0.000000
    31  H    0.000000   0.000000   0.000000   0.000000   0.000000   0.000000
              19         20         21         22         23         24
     1  N    0.000000   0.000000   0.000000   0.000000   0.000001  -0.009637
     2  H    0.000000   0.000000   0.000000   0.000000   0.000001   0.000052
     3  C    0.000000   0.000000   0.000000   0.000000  -0.000815  -0.036638
     4  H    0.000000   0.000000   0.000000   0.000000   0.000011   0.002072
     5  C    0.000000   0.000000   0.000000   0.000000   0.000329   0.273817
     6  C    0.000000  -0.000006   0.000024   0.000062   0.010589  -0.000914
     7  H    0.000000   0.000000   0.000000   0.000000  -0.000004  -0.040466
     8  O    0.000000  -0.000011   0.000004   0.000009  -0.009072  -0.000006
     9  N   -0.000007   0.000095   0.000069   0.000493  -0.007289  -0.000052
    10  H    0.000001  -0.000005  -0.000009  -0.000007  -0.000018   0.001074
    11  C   -0.000143   0.004748   0.005725  -0.050171  -0.043338   0.000002
    12  H    0.000134   0.003990  -0.000998   0.002821   0.001716   0.000000
    13  C   -0.000282  -0.000944  -0.011477   0.227485   0.303078   0.000000
    14  C    0.004419  -0.011689  -0.014027   0.020432  -0.000275   0.000000
    15  H    0.000107   0.000300  -0.007498  -0.046756  -0.037426   0.000000
    16  O   -0.000062   0.000023   0.000105  -0.000908  -0.000005   0.000000
    17  O   -0.026475  -0.035417  -0.037691  -0.004644  -0.000008   0.000000
    18  C    0.378472   0.360923   0.357298  -0.060596   0.000030   0.000000
    19  H    0.499347  -0.026734  -0.018149   0.001008  -0.000003   0.000000
    20  H   -0.026734   0.578544  -0.044661   0.002339   0.000034   0.000000
    21  H   -0.018149  -0.044661   0.528255   0.003657   0.000427   0.000000
    22  F    0.001008   0.002339   0.003657   9.202395  -0.028698   0.000000
    23  F   -0.000003   0.000034   0.000427  -0.028698   9.077175   0.000000
    24  F    0.000000   0.000000   0.000000   0.000000   0.000000   9.112205
    25  F    0.000000   0.000000   0.000000   0.000000   0.000896  -0.031255
    26  C    0.000000   0.000000   0.000000   0.000000   0.000000   0.014289
    27  O    0.000000   0.000000   0.000000   0.000000   0.000000  -0.008243
    28  C    0.000000   0.000000   0.000000   0.000000   0.000000  -0.000488
    29  H    0.000000   0.000000   0.000000   0.000000   0.000000  -0.000001
    30  H    0.000000   0.000000   0.000000   0.000000   0.000000   0.000067
    31  H    0.000000   0.000000   0.000000   0.000000   0.000000   0.000024
              25         26         27         28         29         30
     1  N    0.000841   0.233208  -0.086982  -0.101803   0.000886   0.004944
     2  H    0.000006  -0.010922   0.002490   0.001227   0.000097   0.001054
     3  C   -0.046841  -0.024702   0.012452   0.005318  -0.000185   0.000058
     4  H    0.002681  -0.000953   0.003810   0.000125   0.000014   0.000006
     5  C    0.270858  -0.004462   0.006785   0.000401  -0.000007  -0.000073
     6  C    0.009933   0.004558   0.000730  -0.000029  -0.000002  -0.000034
     7  H   -0.040698   0.001184   0.001297   0.000008   0.000000   0.000000
     8  O   -0.000861  -0.000080   0.000000   0.000000   0.000000   0.000000
     9  N   -0.012622  -0.000028  -0.000003  -0.000009   0.000000   0.000000
    10  H    0.004437   0.000096   0.000000  -0.000007   0.000000   0.000004
    11  C    0.000442   0.000007   0.000000   0.000000   0.000000   0.000000
    12  H   -0.000013   0.000000   0.000000   0.000000   0.000000   0.000000
    13  C    0.000421   0.000000   0.000000   0.000000   0.000000   0.000000
    14  C   -0.000015   0.000000   0.000000   0.000000   0.000000   0.000000
    15  H    0.000001   0.000000   0.000000   0.000000   0.000000   0.000000
    16  O   -0.000005   0.000000   0.000000   0.000000   0.000000   0.000000
    17  O    0.000000   0.000000   0.000000   0.000000   0.000000   0.000000
    18  C    0.000000   0.000000   0.000000   0.000000   0.000000   0.000000
    19  H    0.000000   0.000000   0.000000   0.000000   0.000000   0.000000
    20  H    0.000000   0.000000   0.000000   0.000000   0.000000   0.000000
    21  H    0.000000   0.000000   0.000000   0.000000   0.000000   0.000000
    22  F    0.000000   0.000000   0.000000   0.000000   0.000000   0.000000
    23  F    0.000896   0.000000   0.000000   0.000000   0.000000   0.000000
    24  F   -0.031255   0.014289  -0.008243  -0.000488  -0.000001   0.000067
    25  F    9.119546   0.000097   0.000006   0.000000   0.000000   0.000000
    26  C    0.000097   4.335917   0.559558   0.364580  -0.018936  -0.025395
    27  O    0.000006   0.559558   8.084992  -0.072517   0.000232   0.002476
    28  C    0.000000   0.364580  -0.072517   5.259083   0.363782   0.352419
    29  H    0.000000  -0.018936   0.000232   0.363782   0.499857  -0.024256
    30  H    0.000000  -0.025395   0.002476   0.352419  -0.024256   0.535907
    31  H    0.000000  -0.020435   0.002370   0.365708  -0.021502  -0.024652
              31
     1  N    0.003554
     2  H   -0.000136
     3  C   -0.000100
     4  H   -0.000009
     5  C    0.000003
     6  C    0.000001
     7  H   -0.000002
     8  O    0.000000
     9  N    0.000000
    10  H    0.000000
    11  C    0.000000
    12  H    0.000000
    13  C    0.000000
    14  C    0.000000
    15  H    0.000000
    16  O    0.000000
    17  O    0.000000
    18  C    0.000000
    19  H    0.000000
    20  H    0.000000
    21  H    0.000000
    22  F    0.000000
    23  F    0.000000
    24  F    0.000024
    25  F    0.000000
    26  C   -0.020435
    27  O    0.002370
    28  C    0.365708
    29  H   -0.021502
    30  H   -0.024652
    31  H    0.499503
 Mulliken charges:
               1
     1  N   -0.652787
     2  H    0.360233
     3  C   -0.094062
     4  H    0.209298
     5  C    0.477183
     6  C    0.582093
     7  H    0.162061
     8  O   -0.531354
     9  N   -0.638591
    10  H    0.363236
    11  C   -0.106332
    12  H    0.231784
    13  C    0.450319
    14  C    0.625990
    15  H    0.177387
    16  O   -0.486786
    17  O   -0.455861
    18  C   -0.297919
    19  H    0.188369
    20  H    0.168471
    21  H    0.238947
    22  F   -0.268921
    23  F   -0.267335
    24  F   -0.275904
    25  F   -0.277856
    26  C    0.592419
    27  O   -0.509452
    28  C   -0.537798
    29  H    0.200020
    30  H    0.177475
    31  H    0.195674
 Sum of Mulliken charges =   0.00000
 Mulliken charges with hydrogens summed into heavy atoms:
               1
     1  N   -0.292555
     3  C    0.115236
     5  C    0.639244
     6  C    0.582093
     8  O   -0.531354
     9  N   -0.275355
    11  C    0.125452
    13  C    0.627706
    14  C    0.625990
    16  O   -0.486786
    17  O   -0.455861
    18  C    0.297869
    22  F   -0.268921
    23  F   -0.267335
    24  F   -0.275904
    25  F   -0.277856
    26  C    0.592419
    27  O   -0.509452
    28  C    0.035370
 Electronic spatial extent (au):  <R**2>=           5911.1077
 Charge=              0.0000 electrons
 Dipole moment (field-independent basis, Debye):
    X=             -1.7958    Y=              2.0301    Z=             -4.4258  Tot=              5.1898
 Quadrupole moment (field-independent basis, Debye-Ang):
   XX=           -105.7042   YY=           -106.0392   ZZ=           -112.1763
   XY=             13.3720   XZ=              7.8491   YZ=             -9.7355
 Traceless Quadrupole moment (field-independent basis, Debye-Ang):
   XX=              2.2691   YY=              1.9340   ZZ=             -4.2031
   XY=             13.3720   XZ=              7.8491   YZ=             -9.7355
 Octapole moment (field-independent basis, Debye-Ang**2):
  XXX=           -128.0288  YYY=            -30.1727  ZZZ=             23.5687  XYY=             40.5390
  XXY=             18.5560  XXZ=            -58.6454  XZZ=             -4.0760  YZZ=             -3.2382
  YYZ=             -2.6524  XYZ=              5.2401
 Hexadecapole moment (field-independent basis, Debye-Ang**3):
 XXXX=          -5573.1442 YYYY=          -1000.2968 ZZZZ=           -619.9799 XXXY=            283.1239
 XXXZ=            108.7079 YYYX=             49.7536 YYYZ=            -41.9510 ZZZX=             19.0100
 ZZZY=            -37.9440 XXYY=          -1024.9862 XXZZ=           -979.1692 YYZZ=           -280.2287
 XXYZ=            -57.1570 YYXZ=             29.9410 ZZXY=             22.0902
 N-N= 1.655127809341D+03 E-N=-6.038098484654D+03  KE= 1.150568990187D+03
 No NMR shielding tensors so no spin-rotation constants.
 Leave Link  601 at Sat Dec 28 22:35:39 2019, MaxMem=  4294967296 cpu:              38.2 elap:              19.2
 (Enter /n/sw/g16_nehalem/g16/l701.exe)
 ... and contract with generalized density number  0.
 Compute integral first derivatives.
 R6Disp: Adding Grimme-D3(BJ) dispersion energy 1st derivatives to the gradient.
 D1PCM: PCM CHGder 1st derivatives, ID1Alg=3 FixD1E=F DoIter=F DoCFld=F I1PDM=0.
 GePol: Maximum number of non-zero 1st derivatives   =     319
 Leave Link  701 at Sat Dec 28 22:36:26 2019, MaxMem=  4294967296 cpu:              94.1 elap:              47.2
 (Enter /n/sw/g16_nehalem/g16/l702.exe)
 L702 exits ... SP integral derivatives will be done elsewhere.
 Leave Link  702 at Sat Dec 28 22:36:27 2019, MaxMem=  4294967296 cpu:               1.4 elap:               0.7
 (Enter /n/sw/g16_nehalem/g16/l703.exe)
 Integral derivatives from FoFJK, PRISM(SPDF).
 Compute integral first derivatives, UseDBF=F ICtDFT=           0.
 Calling FoFJK, ICntrl=      2127 FMM=F ISym2X=0 I1Cent= 0 IOpClX= 0 NMat=1 NMatS=1 NMatT=0.
 FoFJK:  IHMeth= 1 ICntrl=    2127 DoSepK=F KAlg= 0 I1Cent=           0 FoldK=F
 IRaf=         0 NMat=       1 IRICut=       1 DoRegI=T DoRafI=F ISym2E= 0 IDoP0=0 IntGTp=1.
 FoFCou: FMM=F IPFlag=           0 FMFlag=      100000 FMFlg1=         800
         NFxFlg=           0 DoJE=F BraDBF=F KetDBF=F FulRan=T
         wScrn=  0.000000 ICntrl=      2127 IOpCl=  0 I1Cent=           0 NGrid=           0
         NMat0=    1 NMatS0=      1 NMatT0=    0 NMatD0=    1 NMtDS0=    0 NMtDT0=    0
 Symmetry not used in FoFCou.
 Leave Link  703 at Sat Dec 28 22:37:13 2019, MaxMem=  4294967296 cpu:              90.8 elap:              45.5
 (Enter /n/sw/g16_nehalem/g16/l716.exe)
 Dipole        =-7.06515627D-01 7.98689936D-01-1.74126226D+00
 ***** Axes restored to original set *****
 -------------------------------------------------------------------
 Center     Atomic                   Forces (Hartrees/Bohr)
 Number     Number              X              Y              Z
 -------------------------------------------------------------------
      1        7          -0.036677572   -0.050555277   -0.003274186
      2        1           0.009330233   -0.001592836    0.001508348
      3        6           0.016493946   -0.008007114    0.005639170
      4        1           0.001554416    0.005130748   -0.002130575
      5        6          -0.017146081   -0.011105681   -0.013714219
      6        6           0.051904127    0.048446157   -0.010871507
      7        1          -0.004055940    0.001771962    0.005619143
      8        8          -0.001729847   -0.033882967    0.042504867
      9        7          -0.024023473   -0.017099744   -0.062419627
     10        1          -0.000645243   -0.002221147    0.011382868
     11        6          -0.001139107   -0.014253735    0.001837418
     12        1           0.002113668    0.000515411   -0.003881000
     13        6          -0.019505080   -0.015312549   -0.035087197
     14        6           0.015224006   -0.033982156    0.075995529
[...]
 GePol: Fraction of low-weight points (<1% of avg)   =       5.18%
 GePol: Cavity surface area                          =    315.460 Ang**2
 GePol: Cavity volume                                =    323.849 Ang**3
 ------------------------------------------------------------------------------
 Atomic radii for non-electrostatic terms: SMD-CDS.
 ------------------------------------------------------------------------------
 PCM non-electrostatic energy =        -0.0052115553 Hartrees.
 Nuclear repulsion after PCM non-electrostatic terms =     1644.6239610930 Hartrees.
 Leave Link  301 at Sun Dec 29 00:15:06 2019, MaxMem=  4294967296 cpu:               2.4 elap:               1.2
 (Enter /n/sw/g16_nehalem/g16/l302.exe)
 NPDir=0 NMtPBC=     1 NCelOv=     1 NCel=       1 NClECP=     1 NCelD=      1
         NCelK=      1 NCelE2=     1 NClLst=     1 CellRange=     0.0.
 One-electron integrals computed using PRISM.
 One-electron integral symmetry used in STVInt
 NBasis=   309 RedAO= T EigKep=  1.45D-03  NBF=   309
 NBsUse=   309 1.00D-06 EigRej= -1.00D+00 NBFU=   309
 Precomputing XC quadrature grid using
 IXCGrd= 4 IRadAn=           5 IRanWt=          -1 IRanGd=           0 AccXCQ= 0.00D+00.
 Generated NRdTot=       0 NPtTot=           0 NUsed=           0 NTot=          32
 NSgBfM=   308   308   308   308   308 MxSgAt=    31 MxSgA2=    31.
 Leave Link  302 at Sun Dec 29 00:15:54 2019, MaxMem=  4294967296 cpu:              95.0 elap:              47.6
 (Enter /n/sw/g16_nehalem/g16/l303.exe)
 DipDrv:  MaxL=1.
 Leave Link  303 at Sun Dec 29 00:15:57 2019, MaxMem=  4294967296 cpu:               6.0 elap:               3.0
 (Enter /n/sw/g16_nehalem/g16/l401.exe)
 Initial guess from the checkpoint file:  "/scratch/cwagen_conformer_dft_00008/Gau-307722.chk"
 B after Tr=     0.000000    0.000000    0.000000
         Rot=    0.999986   -0.003051    0.003481   -0.002608 Ang=  -0.61 deg.
 Guess basis will be translated and rotated to current coordinates.
 JPrj=2 DoOrth=T DoCkMO=T.
 Generating alternative initial guess.
 ExpMin= 1.61D-01 ExpMax= 7.00D+03 ExpMxC= 1.05D+03 IAcc=2 IRadAn=         4 AccDes= 0.00D+00
 Harris functional with IExCor=  402 and IRadAn=       4 diagonalized for initial guess.
 HarFok:  IExCor=  402 AccDes= 0.00D+00 IRadAn=         4 IDoV= 1 UseB2=F ITyADJ=14
 ICtDFT=  3500011 ScaDFX=  1.000000  1.000000  1.000000  1.000000
 FoFCou: FMM=F IPFlag=           0 FMFlag=      100000 FMFlg1=           0
         NFxFlg=           0 DoJE=T BraDBF=F KetDBF=T FulRan=T
         wScrn=  0.000000 ICntrl=       500 IOpCl=  0 I1Cent=   200000004 NGrid=           0
         NMat0=    1 NMatS0=      1 NMatT0=    0 NMatD0=    1 NMtDS0=    0 NMtDT0=    0
 Petite list used in FoFCou.
 Harris En= -1159.96281700671    
 Leave Link  401 at Sun Dec 29 00:16:55 2019, MaxMem=  4294967296 cpu:             115.5 elap:              57.9
 (Enter /n/sw/g16_nehalem/g16/l502.exe)
 Integral symmetry usage will be decided dynamically.
 Closed shell SCF:
 Using DIIS extrapolation, IDIIS=  1040.
 NGot=  4294967296 LenX=  4294767994 LenY=  4294672072
 Requested convergence on RMS density matrix=1.00D-08 within 128 cycles.
 Requested convergence on MAX density matrix=1.00D-06.
 Requested convergence on             energy=1.00D-06.
 No special actions if energy rises.
 Fock matrices will be formed incrementally for  20 cycles.

 Cycle   1  Pass 1  IDiag  1:
 FoFJK:  IHMeth= 1 ICntrl=       0 DoSepK=F KAlg= 0 I1Cent=           0 FoldK=F
 IRaf= 790000000 NMat=       1 IRICut=       1 DoRegI=T DoRafI=F ISym2E= 0 IDoP0=0 IntGTp=1.
 FoFCou: FMM=F IPFlag=           0 FMFlag=      100000 FMFlg1=           0
         NFxFlg=           0 DoJE=F BraDBF=F KetDBF=F FulRan=T
         wScrn=  0.000000 ICntrl=         0 IOpCl=  0 I1Cent=           0 NGrid=           0
         NMat0=    1 NMatS0=      1 NMatT0=    0 NMatD0=    1 NMtDS0=    0 NMtDT0=    0
 Symmetry not used in FoFCou.
 Inv3:  Mode=1 IEnd=    18007500.
 Iteration    1 A*A^-1 deviation from unit magnitude is 6.22D-15 for   2445.
 Iteration    1 A*A^-1 deviation from orthogonality  is 2.78D-15 for   1304    625.
 Iteration    1 A^-1*A deviation from unit magnitude is 6.00D-15 for   2445.
 Iteration    1 A^-1*A deviation from orthogonality  is 3.47D-14 for   1273   1255.
 E= -1159.95312303757    
 DIIS: error= 7.06D-03 at cycle   1 NSaved=   1.
 NSaved= 1 IEnMin= 1 EnMin= -1159.95312303757     IErMin= 1 ErrMin= 7.06D-03
 ErrMax= 7.06D-03  0.00D+00 EMaxC= 1.00D-01 BMatC= 3.87D-02 BMatP= 3.87D-02
 IDIUse=3 WtCom= 9.29D-01 WtEn= 7.06D-02
 Coeff-Com:  0.100D+01
 Coeff-En:   0.100D+01
 Coeff:      0.100D+01
 Gap=     1.568 Goal=   None    Shift=    0.000
 GapD=    1.568 DampG=2.000 DampE=1.000 DampFc=2.0000 IDamp=-1.
 RMSDP=1.12D-03 MaxDP=3.74D-02              OVMax= 6.44D-02

 Cycle   2  Pass 1  IDiag  1:
 RMSU=  1.12D-03    CP:  9.98D-01
 E= -1160.02444756106     Delta-E=       -0.071324523489 Rises=F Damp=F
 DIIS: error= 1.45D-03 at cycle   2 NSaved=   2.
 NSaved= 2 IEnMin= 2 EnMin= -1160.02444756106     IErMin= 2 ErrMin= 1.45D-03
 ErrMax= 1.45D-03  0.00D+00 EMaxC= 1.00D-01 BMatC= 1.58D-03 BMatP= 3.87D-02
 IDIUse=3 WtCom= 9.85D-01 WtEn= 1.45D-02
 Coeff-Com: -0.155D-01 0.102D+01
 Coeff-En:   0.000D+00 0.100D+01
 Coeff:     -0.152D-01 0.102D+01
 Gap=     0.239 Goal=   None    Shift=    0.000
 RMSDP=2.54D-04 MaxDP=1.34D-02 DE=-7.13D-02 OVMax= 1.34D-02

 Cycle   3  Pass 1  IDiag  1:
 RMSU=  2.50D-04    CP:  9.97D-01  1.04D+00
 E= -1160.02410772298     Delta-E=        0.000339838073 Rises=F Damp=F
 DIIS: error= 2.66D-03 at cycle   3 NSaved=   3.
 NSaved= 3 IEnMin= 2 EnMin= -1160.02444756106     IErMin= 2 ErrMin= 1.45D-03
 ErrMax= 2.66D-03  0.00D+00 EMaxC= 1.00D-01 BMatC= 2.76D-03 BMatP= 1.58D-03
 IDIUse=3 WtCom= 1.62D-01 WtEn= 8.38D-01
 Coeff-Com: -0.485D-01 0.608D+00 0.441D+00
 Coeff-En:   0.000D+00 0.559D+00 0.441D+00
 Coeff:     -0.787D-02 0.567D+00 0.441D+00
 Gap=     0.240 Goal=   None    Shift=    0.000
 RMSDP=1.50D-04 MaxDP=8.53D-03 DE= 3.40D-04 OVMax= 7.58D-03

 Cycle   4  Pass 1  IDiag  1:
 RMSU=  5.24D-05    CP:  9.98D-01  1.06D+00  4.53D-01
 E= -1160.02587140014     Delta-E=       -0.001763677161 Rises=F Damp=F
 DIIS: error= 2.87D-04 at cycle   4 NSaved=   4.
 NSaved= 4 IEnMin= 4 EnMin= -1160.02587140014     IErMin= 4 ErrMin= 2.87D-04
 ErrMax= 2.87D-04  0.00D+00 EMaxC= 1.00D-01 BMatC= 7.35D-05 BMatP= 1.58D-03
 IDIUse=3 WtCom= 9.97D-01 WtEn= 2.87D-03
 Coeff-Com: -0.157D-01 0.154D+00 0.197D+00 0.665D+00
 Coeff-En:   0.000D+00 0.000D+00 0.000D+00 0.100D+01
 Coeff:     -0.157D-01 0.153D+00 0.197D+00 0.666D+00
 Gap=     0.241 Goal=   None    Shift=    0.000
 RMSDP=3.49D-05 MaxDP=1.76D-03 DE=-1.76D-03 OVMax= 2.04D-03

 Cycle   5  Pass 1  IDiag  1:
 RMSU=  2.45D-05    CP:  9.98D-01  1.07D+00  5.26D-01  6.94D-01
 E= -1160.02590668644     Delta-E=       -0.000035286294 Rises=F Damp=F
 DIIS: error= 2.14D-04 at cycle   5 NSaved=   5.
 NSaved= 5 IEnMin= 5 EnMin= -1160.02590668644     IErMin= 5 ErrMin= 2.14D-04
 ErrMax= 2.14D-04  0.00D+00 EMaxC= 1.00D-01 BMatC= 2.55D-05 BMatP= 7.35D-05
 IDIUse=3 WtCom= 9.98D-01 WtEn= 2.14D-03
 Coeff-Com: -0.534D-02 0.377D-01 0.879D-01 0.468D+00 0.412D+00
 Coeff-En:   0.000D+00 0.000D+00 0.000D+00 0.256D+00 0.744D+00
 Coeff:     -0.533D-02 0.377D-01 0.878D-01 0.467D+00 0.413D+00
 Gap=     0.241 Goal=   None    Shift=    0.000
 RMSDP=1.55D-05 MaxDP=8.71D-04 DE=-3.53D-05 OVMax= 1.08D-03

 Cycle   6  Pass 1  IDiag  1:
 RMSU=  6.60D-06    CP:  9.98D-01  1.07D+00  5.20D-01  8.11D-01  4.94D-01
 E= -1160.02592593163     Delta-E=       -0.000019245187 Rises=F Damp=F
 DIIS: error= 3.02D-05 at cycle   6 NSaved=   6.
 NSaved= 6 IEnMin= 6 EnMin= -1160.02592593163     IErMin= 6 ErrMin= 3.02D-05
 ErrMax= 3.02D-05  0.00D+00 EMaxC= 1.00D-01 BMatC= 4.57D-07 BMatP= 2.55D-05
 IDIUse=1 WtCom= 1.00D+00 WtEn= 0.00D+00
 Coeff-Com: -0.513D-03-0.148D-02 0.150D-01 0.121D+00 0.168D+00 0.698D+00
 Coeff:     -0.513D-03-0.148D-02 0.150D-01 0.121D+00 0.168D+00 0.698D+00
 Gap=     0.241 Goal=   None    Shift=    0.000
 RMSDP=2.68D-06 MaxDP=1.20D-04 DE=-1.92D-05 OVMax= 1.59D-04

 Cycle   7  Pass 1  IDiag  1:
 RMSU=  1.74D-06    CP:  9.98D-01  1.07D+00  5.22D-01  8.21D-01  5.41D-01
                    CP:  7.80D-01
 E= -1160.02592627345     Delta-E=       -0.000000341827 Rises=F Damp=F
 DIIS: error= 7.34D-06 at cycle   7 NSaved=   7.
 NSaved= 7 IEnMin= 7 EnMin= -1160.02592627345     IErMin= 7 ErrMin= 7.34D-06
 ErrMax= 7.34D-06  0.00D+00 EMaxC= 1.00D-01 BMatC= 5.89D-08 BMatP= 4.57D-07
 IDIUse=1 WtCom= 1.00D+00 WtEn= 0.00D+00
 Coeff-Com:  0.147D-03-0.392D-02 0.652D-03 0.245D-01 0.521D-01 0.345D+00
 Coeff-Com:  0.582D+00
 Coeff:      0.147D-03-0.392D-02 0.652D-03 0.245D-01 0.521D-01 0.345D+00
 Coeff:      0.582D+00
 Gap=     0.241 Goal=   None    Shift=    0.000
 RMSDP=8.89D-07 MaxDP=3.97D-05 DE=-3.42D-07 OVMax= 5.58D-05

 Cycle   8  Pass 1  IDiag  1:
 RMSU=  5.55D-07    CP:  9.98D-01  1.07D+00  5.23D-01  8.22D-01  5.46D-01
                    CP:  8.35D-01  6.78D-01
 E= -1160.02592632298     Delta-E=       -0.000000049532 Rises=F Damp=F
 DIIS: error= 1.65D-06 at cycle   8 NSaved=   8.
 NSaved= 8 IEnMin= 8 EnMin= -1160.02592632298     IErMin= 8 ErrMin= 1.65D-06
 ErrMax= 1.65D-06  0.00D+00 EMaxC= 1.00D-01 BMatC= 5.21D-09 BMatP= 5.89D-08
 IDIUse=1 WtCom= 1.00D+00 WtEn= 0.00D+00
 Coeff-Com:  0.123D-03-0.180D-02-0.123D-02-0.342D-03 0.778D-02 0.926D-01
 Coeff-Com:  0.274D+00 0.628D+00
 Coeff:      0.123D-03-0.180D-02-0.123D-02-0.342D-03 0.778D-02 0.926D-01
 Coeff:      0.274D+00 0.628D+00
 Gap=     0.241 Goal=   None    Shift=    0.000
 RMSDP=2.89D-07 MaxDP=1.54D-05 DE=-4.95D-08 OVMax= 2.04D-05

 Cycle   9  Pass 1  IDiag  1:
 RMSU=  2.23D-07    CP:  9.98D-01  1.07D+00  5.23D-01  8.23D-01  5.48D-01
                    CP:  8.44D-01  7.45D-01  8.02D-01
 E= -1160.02592632690     Delta-E=       -0.000000003915 Rises=F Damp=F
 DIIS: error= 9.34D-07 at cycle   9 NSaved=   9.
 NSaved= 9 IEnMin= 9 EnMin= -1160.02592632690     IErMin= 9 ErrMin= 9.34D-07
 ErrMax= 9.34D-07  0.00D+00 EMaxC= 1.00D-01 BMatC= 1.10D-09 BMatP= 5.21D-09
 IDIUse=1 WtCom= 1.00D+00 WtEn= 0.00D+00
 Coeff-Com:  0.506D-04-0.533D-03-0.757D-03-0.311D-02-0.193D-02 0.973D-02
 Coeff-Com:  0.852D-01 0.363D+00 0.548D+00
 Coeff:      0.506D-04-0.533D-03-0.757D-03-0.311D-02-0.193D-02 0.973D-02
 Coeff:      0.852D-01 0.363D+00 0.548D+00
 Gap=     0.241 Goal=   None    Shift=    0.000
 RMSDP=1.24D-07 MaxDP=6.41D-06 DE=-3.92D-09 OVMax= 7.89D-06

 Cycle  10  Pass 1  IDiag  1:
 RMSU=  7.52D-08    CP:  9.98D-01  1.07D+00  5.23D-01  8.23D-01  5.48D-01
                    CP:  8.47D-01  7.59D-01  8.96D-01  6.57D-01
 E= -1160.02592632773     Delta-E=       -0.000000000829 Rises=F Damp=F
 DIIS: error= 5.30D-07 at cycle  10 NSaved=  10.
 NSaved=10 IEnMin=10 EnMin= -1160.02592632773     IErMin=10 ErrMin= 5.30D-07
 ErrMax= 5.30D-07  0.00D+00 EMaxC= 1.00D-01 BMatC= 1.60D-10 BMatP= 1.10D-09
 IDIUse=1 WtCom= 1.00D+00 WtEn= 0.00D+00
 Coeff-Com:  0.140D-04-0.752D-04-0.290D-03-0.184D-02-0.215D-02-0.617D-02
 Coeff-Com:  0.167D-01 0.140D+00 0.327D+00 0.528D+00
 Coeff:      0.140D-04-0.752D-04-0.290D-03-0.184D-02-0.215D-02-0.617D-02
 Coeff:      0.167D-01 0.140D+00 0.327D+00 0.528D+00
 Gap=     0.241 Goal=   None    Shift=    0.000
 RMSDP=4.79D-08 MaxDP=2.17D-06 DE=-8.29D-10 OVMax= 3.19D-06

 Cycle  11  Pass 1  IDiag  1:
 RMSU=  3.22D-08    CP:  9.98D-01  1.07D+00  5.23D-01  8.23D-01  5.48D-01
                    CP:  8.46D-01  7.65D-01  9.06D-01  7.39D-01  6.56D-01
 E= -1160.02592632787     Delta-E=       -0.000000000140 Rises=F Damp=F
 DIIS: error= 2.37D-07 at cycle  11 NSaved=  11.
 NSaved=11 IEnMin=11 EnMin= -1160.02592632787     IErMin=11 ErrMin= 2.37D-07
 ErrMax= 2.37D-07  0.00D+00 EMaxC= 1.00D-01 BMatC= 2.39D-11 BMatP= 1.60D-10
 IDIUse=1 WtCom= 1.00D+00 WtEn= 0.00D+00
 Coeff-Com: -0.243D-05 0.718D-04-0.495D-05-0.380D-03-0.804D-03-0.570D-02
 Coeff-Com: -0.848D-02 0.431D-02 0.756D-01 0.316D+00 0.620D+00
 Coeff:     -0.243D-05 0.718D-04-0.495D-05-0.380D-03-0.804D-03-0.570D-02
 Coeff:     -0.848D-02 0.431D-02 0.756D-01 0.316D+00 0.620D+00
 Gap=     0.241 Goal=   None    Shift=    0.000
 RMSDP=1.63D-08 MaxDP=8.19D-07 DE=-1.40D-10 OVMax= 1.42D-06

 Cycle  12  Pass 1  IDiag  1:
 RMSU=  7.35D-09    CP:  9.98D-01  1.07D+00  5.23D-01  8.23D-01  5.48D-01
                    CP:  8.47D-01  7.66D-01  9.17D-01  7.55D-01  7.57D-01
                    CP:  7.12D-01
 E= -1160.02592632787     Delta-E=        0.000000000002 Rises=F Damp=F
 DIIS: error= 2.11D-08 at cycle  12 NSaved=  12.
 NSaved=12 IEnMin=11 EnMin= -1160.02592632787     IErMin=12 ErrMin= 2.11D-08
 ErrMax= 2.11D-08  0.00D+00 EMaxC= 1.00D-01 BMatC= 8.21D-13 BMatP= 2.39D-11
 IDIUse=1 WtCom= 1.00D+00 WtEn= 0.00D+00
 Coeff-Com: -0.173D-05 0.346D-04 0.115D-04-0.738D-04-0.245D-03-0.216D-02
 Coeff-Com: -0.455D-02-0.572D-02 0.150D-01 0.110D+00 0.267D+00 0.621D+00
 Coeff:     -0.173D-05 0.346D-04 0.115D-04-0.738D-04-0.245D-03-0.216D-02
 Coeff:     -0.455D-02-0.572D-02 0.150D-01 0.110D+00 0.267D+00 0.621D+00
 Gap=     0.241 Goal=   None    Shift=    0.000
 RMSDP=3.86D-09 MaxDP=1.76D-07 DE= 1.82D-12 OVMax= 2.89D-07

 Error on total polarization charges =  0.01972
 SCF Done:  E(RB3LYP) =  -1160.02592633     A.U. after   12 cycles
            NFock= 12  Conv=0.39D-08     -V/T= 2.0082
 KE= 1.150639734356D+03 PE=-6.017257903909D+03 EE= 2.061968282133D+03
 SMD-CDS (non-electrostatic) energy       (kcal/mol) =      -3.27
 (included in total energy above)
 Leave Link  502 at Sun Dec 29 00:26:00 2019, MaxMem=  4294967296 cpu:            1087.6 elap:             545.1
 (Enter /n/sw/g16_nehalem/g16/l701.exe)
 ... and contract with generalized density number  0.
 Compute integral first derivatives.
 R6Disp: Adding Grimme-D3(BJ) dispersion energy 1st derivatives to the gradient.
 D1PCM: PCM CHGder 1st derivatives, ID1Alg=3 FixD1E=F DoIter=F DoCFld=F I1PDM=0.
 GePol: Maximum number of non-zero 1st derivatives   =     334
 Leave Link  701 at Sun Dec 29 00:26:47 2019, MaxMem=  4294967296 cpu:              94.3 elap:              47.3
 (Enter /n/sw/g16_nehalem/g16/l702.exe)
 L702 exits ... SP integral derivatives will be done elsewhere.
 Leave Link  702 at Sun Dec 29 00:26:48 2019, MaxMem=  4294967296 cpu:               1.5 elap:               0.8
 (Enter /n/sw/g16_nehalem/g16/l703.exe)
 Integral derivatives from FoFJK, PRISM(SPDF).
 Compute integral first derivatives, UseDBF=F ICtDFT=           0.
 Calling FoFJK, ICntrl=      2127 FMM=F ISym2X=0 I1Cent= 0 IOpClX= 0 NMat=1 NMatS=1 NMatT=0.
 FoFJK:  IHMeth= 1 ICntrl=    2127 DoSepK=F KAlg= 0 I1Cent=           0 FoldK=F
 IRaf=         0 NMat=       1 IRICut=       1 DoRegI=T DoRafI=F ISym2E= 0 IDoP0=0 IntGTp=1.
 FoFCou: FMM=F IPFlag=           0 FMFlag=      100000 FMFlg1=         800
         NFxFlg=           0 DoJE=F BraDBF=F KetDBF=F FulRan=T
         wScrn=  0.000000 ICntrl=      2127 IOpCl=  0 I1Cent=           0 NGrid=           0
         NMat0=    1 NMatS0=      1 NMatT0=    0 NMatD0=    1 NMtDS0=    0 NMtDT0=    0
 Symmetry not used in FoFCou.
 Leave Link  703 at Sun Dec 29 00:27:33 2019, MaxMem=  4294967296 cpu:              89.7 elap:              44.9
 (Enter /n/sw/g16_nehalem/g16/l716.exe)
 Dipole        =-1.50577607D+00 1.48728345D+00-1.20214385D+00
 ***** Axes restored to original set *****
 -------------------------------------------------------------------
 Center     Atomic                   Forces (Hartrees/Bohr)
 Number     Number              X              Y              Z
 -------------------------------------------------------------------
      1        7          -0.003498206   -0.003700670    0.001690842
      2        1           0.000408735    0.000023376    0.000605464
      3        6          -0.003545469    0.001337634    0.003777738
      4        1          -0.000249094    0.002589486   -0.000517245
      5        6          -0.002355262    0.000336857   -0.003231404
      6        6           0.012738025   -0.005235093   -0.002917873
      7        1           0.000459205   -0.001394887    0.000640021
      8        8          -0.004121063    0.002258268    0.002019156
      9        7          -0.002473127    0.000247896   -0.000354618
     10        1          -0.001896595    0.000955472    0.000480596
     11        6          -0.002288577    0.000706099    0.001205838
     12        1          -0.000280362   -0.000060516    0.001120374
     13        6          -0.000756865    0.000528133   -0.000707547
     14        6           0.001104950   -0.012143663   -0.002133434
     15        1           0.000206217    0.000678398    0.000519874
     16        8          -0.000913456    0.006006890   -0.000210314
     17        8           0.000055551    0.001712181    0.001073402
     18        6           0.001177562    0.001372023    0.000594851
     19        1           0.000987507    0.000285200    0.000257957
     20        1           0.000910516    0.000167946   -0.000691235
     21        1          -0.000421919    0.001639567   -0.000352947
     22        9           0.001981323   -0.000173778   -0.000583250
     23        9          -0.002454724   -0.000272260    0.000059802
     24        9           0.002382723    0.000691838    0.002828539
     25        9           0.000493011   -0.000183959   -0.001469711
     26        6           0.006034997    0.001836124   -0.015166830
     27        8          -0.001889524   -0.000758347    0.006022196
     28        6          -0.002090342    0.001346117    0.004935952
     29        1          -0.000472525    0.000808498   -0.001126615
     30        1           0.001060607   -0.000363005    0.001033023
     31        1          -0.000293821   -0.001241828    0.000597396
 -------------------------------------------------------------------
 Cartesian Forces:  Max     0.015166830 RMS     0.003123424
 Leave Link  716 at Sun Dec 29 00:27:34 2019, MaxMem=  4294967296 cpu:               1.5 elap:               0.7
 (Enter /n/sw/g16_nehalem/g16/l103.exe)

 GradGradGradGradGradGradGradGradGradGradGradGradGradGradGradGradGradGrad
 Berny optimization.
 Using GEDIIS/GDIIS optimizer.
 FormGI is forming the generalized inverse of G from B-inverse, IUseBI=4.
 Internal  Forces:  Max     0.009560823 RMS     0.001756718
 Search for a local minimum.
 Step number   8 out of a maximum of  153
 All quantities printed in internal units (Hartrees-Bohrs-Radians)
 RMS Force = .17567D-02 SwitMx=.10000D-02 MixMth= 1
 Mixed Optimization -- RFO/linear search
 Update second derivatives using D2CorX and points    7    8
 DE= -1.34D-03 DEPred=-3.39D-03 R= 3.96D-01
 Trust test= 3.96D-01 RLast= 8.02D-01 DXMaxT set to 4.24D-01
 ITU=  0  1 -1  0  0  1  0  0
 Use linear search instead of GDIIS.
     Eigenvalues ---    0.00130   0.00238   0.00444   0.00486   0.00558
     Eigenvalues ---    0.00633   0.00766   0.00781   0.00888   0.00947
     Eigenvalues ---    0.01052   0.01069   0.01296   0.01339   0.03667
     Eigenvalues ---    0.04454   0.04867   0.05122   0.05366   0.05508
     Eigenvalues ---    0.05803   0.06437   0.06604   0.06912   0.07267
     Eigenvalues ---    0.07328   0.07656   0.08992   0.10150   0.10735
     Eigenvalues ---    0.15268   0.15898   0.15965   0.15981   0.16000
     Eigenvalues ---    0.16007   0.16049   0.16054   0.16167   0.16247
     Eigenvalues ---    0.17356   0.18009   0.18289   0.20907   0.21963
     Eigenvalues ---    0.22182   0.23082   0.23372   0.24042   0.24750
     Eigenvalues ---    0.24805   0.24915   0.24990   0.25682   0.26008
     Eigenvalues ---    0.28213   0.28559   0.29681   0.29939   0.30121
     Eigenvalues ---    0.34782   0.34809   0.34813   0.34844   0.35445
     Eigenvalues ---    0.36279   0.36942   0.37216   0.37229   0.37230
     Eigenvalues ---    0.37244   0.37489   0.38340   0.39744   0.40877
     Eigenvalues ---    0.42066   0.43980   0.47630   0.47712   0.54385
     Eigenvalues ---    0.54993   0.55048   0.55146   0.80237   0.81684
     Eigenvalues ---    0.92661   1.25742
 RFO step:  Lambda=-4.07499804D-03 EMin= 1.30300886D-03
 Quartic linear search produced a step of -0.28099.
