 Entering Gaussian System, Link 0=g16
 Input=conformer_dft_00291.gjf
 Output=conformer_dft_00291.out
 Initial command:
 /n/sw/g16_nehalem/g16/l1.exe "/scratch/cwagen_conformer_dft_00291/Gau-12357.inp" -scrdir="/scratch/cwagen_conformer_dft_00291/"
 Entering Link 1 = /n/sw/g16_nehalem/g16/l1.exe PID=     12358.
  
 Copyright (c) 1988,1990,1992,1993,1995,1998,2003,2009,2016,
            Gaussian, Inc.  All Rights Reserved.
  
 This is part of the Gaussian(R) 16 program.  It is based on
 the Gaussian(R) 09 system (copyright 2009, Gaussian, Inc.),
 the Gaussian(R) 03 system (copyright 2003, Gaussian, Inc.),
 the Gaussian(R) 98 system (copyright 1998, Gaussian, Inc.),
 the Gaussian(R) 94 system (copyright 1995, Gaussian, Inc.),
 the Gaussian 92(TM) system (copyright 1992, Gaussian, Inc.),
 the Gaussian 90(TM) system (copyright 1990, Gaussian, Inc.),
 the Gaussian 88(TM) system (copyright 1988, Gaussian, Inc.),
 the Gaussian 86(TM) system (copyright 1986, Carnegie Mellon
 University), and the Gaussian 82(TM) system (copyright 1983,
 Carnegie Mellon University). Gaussian is a federally registered
 trademark of Gaussian, Inc.
  
 This software contains proprietary and confidential information,
 including trade secrets, belonging to Gaussian, Inc.
  
 This software is provided under written license and may be
 used, copied, transmitted, or stored only in accord with that
 written license.
  
 The following legend is applicable only to US Government
 contracts under FAR:
  
                    RESTRICTED RIGHTS LEGEND
  
 Use, reproduction and disclosure by the US Government is
 subject to restrictions as set forth in subparagraphs (a)
 and (c) of the Commercial Computer Software - Restricted
 Rights clause in FAR 52.227-19.
  
 Gaussian, Inc.
 340 Quinnipiac St., Bldg. 40, Wallingford CT 06492
  
  
 ---------------------------------------------------------------
 Warning -- This program may not be used in any manner that
 competes with the business of Gaussian, Inc. or will provide
 assistance to any competitor of Gaussian, Inc.  The licensee
 of this program is prohibited from giving any competitor of
 Gaussian, Inc. access to this program.  By using this program,
 the user acknowledges that Gaussian, Inc. is engaged in the
 business of creating and licensing software in the field of
 computational chemistry and represents and warrants to the
 licensee that it is not a competitor of Gaussian, Inc. and that
 it will not use this program in any manner prohibited above.
 ---------------------------------------------------------------
  

 Cite this work as:
 Gaussian 16, Revision A.03,
 M. J. Frisch, G. W. Trucks, H. B. Schlegel, G. E. Scuseria, 
 M. A. Robb, J. R. Cheeseman, G. Scalmani, V. Barone, 
 G. A. Petersson, H. Nakatsuji, X. Li, M. Caricato, A. V. Marenich, 
 J. Bloino, B. G. Janesko, R. Gomperts, B. Mennucci, H. P. Hratchian, 
 J. V. Ortiz, A. F. Izmaylov, J. L. Sonnenberg, D. Williams-Young, 
 F. Ding, F. Lipparini, F. Egidi, J. Goings, B. Peng, A. Petrone, 
 T. Henderson, D. Ranasinghe, V. G. Zakrzewski, J. Gao, N. Rega, 
 G. Zheng, W. Liang, M. Hada, M. Ehara, K. Toyota, R. Fukuda, 
 J. Hasegawa, M. Ishida, T. Nakajima, Y. Honda, O. Kitao, H. Nakai, 
 T. Vreven, K. Throssell, J. A. Montgomery, Jr., J. E. Peralta, 
 F. Ogliaro, M. J. Bearpark, J. J. Heyd, E. N. Brothers, K. N. Kudin, 
 V. N. Staroverov, T. A. Keith, R. Kobayashi, J. Normand, 
 K. Raghavachari, A. P. Rendell, J. C. Burant, S. S. Iyengar, 
 J. Tomasi, M. Cossi, J. M. Millam, M. Klene, C. Adamo, R. Cammi, 
 J. W. Ochterski, R. L. Martin, K. Morokuma, O. Farkas, 
 J. B. Foresman, and D. J. Fox, Gaussian, Inc., Wallingford CT, 2016.
 
 ******************************************
 Gaussian 16:  ES64L-G16RevA.03 25-Dec-2016
                28-Dec-2019 
 ******************************************
 %nprocshared=16
 Will use up to   16 processors via shared memory.
 %mem=32GB
 ----------------------------------------------------------------------
 #p opt b3lyp/6-31g(d) empiricaldispersion=gd3bj scrf=(smd,solvent=diet
 hylether)
 ----------------------------------------------------------------------
 1/18=20,19=15,26=3,38=1/1,3;
 2/9=110,12=2,17=6,18=5,40=1/2;
 3/5=1,6=6,7=1,11=2,25=1,30=1,70=32201,71=1,72=8,74=-5,124=41/1,2,3;
 4//1;
 5/5=2,38=5,53=8/2;
 6/7=2,8=2,9=2,10=2,28=1/1;
 7//1,2,3,16;
 1/18=20,19=15,26=3/3(2);
 2/9=110/2;
 99//99;
 2/9=110/2;
 3/5=1,6=6,7=1,11=2,25=1,30=1,70=32205,71=1,72=8,74=-5,124=41/1,2,3;
 4/5=5,16=3,69=1/1;
 5/5=2,38=5,53=8/2;
 7//1,2,3,16;
 1/18=20,19=15,26=3/3(-5);
 2/9=110/2;
 6/7=2,8=2,9=2,10=2,19=2,28=1/1;
 99/9=1/99;
 Leave Link    1 at Sat Dec 28 21:55:17 2019, MaxMem=  4294967296 cpu:               2.6 elap:               1.3
 (Enter /n/sw/g16_nehalem/g16/l101.exe)
 -----
 title
 -----
 Symbolic Z-matrix:
 Charge =  0 Multiplicity = 1
 7                    -2.59193  -2.21199   0. 
 1                    -1.59907  -2.23752   0.11653 
 6                    -3.26917  -0.94217  -0.16885 
 1                    -3.78771  -0.93101  -1.12754 
 6                    -4.29042  -0.7129    0.94026 
 6                    -2.28051   0.21456  -0.13716 
 1                    -5.28329  -0.60408   0.50384 
 8                    -2.14695   0.9559   -1.1452 
 7                    -1.48165   0.46578   1.07098 
 1                    -1.58779  -0.12333   1.87203 
 6                    -0.54042   1.56704   1.10114 
 1                     0.20436   1.4307    0.31704 
 6                    -1.24704   2.89951   0.87571 
 6                     0.17401   1.6406    2.44304 
 1                    -0.84158   3.38034  -0.01452 
 8                    -0.08504   0.79771   3.34081 
 8                     1.13961   2.66755   2.68362 
 6                     1.25683   3.49403   1.52254 
 1                     1.93542   4.29664   1.72309 
 1                     1.62615   2.91053   0.7052 
 1                     0.29664   3.89332   1.27055 
 9                    -1.05327   3.69911   1.94603 
 9                    -2.56941   2.68564   0.7081 
 9                    -4.28351  -1.76668   1.78407 
 9                    -3.97297   0.40933   1.62021 
 6                    -3.36437  -3.46268   0. 
 8                    -4.5836   -3.47888  -0.1397 
 6                    -2.54202  -4.75125   0.18689 
 1                    -2.19711  -5.09555  -0.76568 
 1                    -1.70233  -4.54998   0.81881 
 1                    -3.15523  -5.50352   0.6374 
 
 ITRead=  0  0  0  0  0  0  0  0  0  0  0  0  0  0  0  0  0  0  0  0
 ITRead=  0  0  0  0  0  0  0  0  0  0  0
 MicOpt= -1 -1 -1 -1 -1 -1 -1 -1 -1 -1 -1 -1 -1 -1 -1 -1 -1 -1 -1 -1
 MicOpt= -1 -1 -1 -1 -1 -1 -1 -1 -1 -1 -1
 NAtoms=     31 NQM=       31 NQMF=       0 NMMI=      0 NMMIF=      0
                NMic=       0 NMicF=      0.
                    Isotopes and Nuclear Properties:
 (Nuclear quadrupole moments (NQMom) in fm**2, nuclear magnetic moments (NMagM)
  in nuclear magnetons)

  Atom         1           2           3           4           5           6           7           8           9          10
 IAtWgt=          14           1          12           1          12          12           1          16          14           1
 AtmWgt=  14.0030740   1.0078250  12.0000000   1.0078250  12.0000000  12.0000000   1.0078250  15.9949146  14.0030740   1.0078250
 NucSpn=           2           1           0           1           0           0           1           0           2           1
 AtZEff=   0.0000000   0.0000000   0.0000000   0.0000000   0.0000000   0.0000000   0.0000000   0.0000000   0.0000000   0.0000000
 NQMom=    2.0440000   0.0000000   0.0000000   0.0000000   0.0000000   0.0000000   0.0000000   0.0000000   2.0440000   0.0000000
 NMagM=    0.4037610   2.7928460   0.0000000   2.7928460   0.0000000   0.0000000   2.7928460   0.0000000   0.4037610   2.7928460
 AtZNuc=   7.0000000   1.0000000   6.0000000   1.0000000   6.0000000   6.0000000   1.0000000   8.0000000   7.0000000   1.0000000

  Atom        11          12          13          14          15          16          17          18          19          20
 IAtWgt=          12           1          12          12           1          16          16          12           1           1
 AtmWgt=  12.0000000   1.0078250  12.0000000  12.0000000   1.0078250  15.9949146  15.9949146  12.0000000   1.0078250   1.0078250
 NucSpn=           0           1           0           0           1           0           0           0           1           1
 AtZEff=   0.0000000   0.0000000   0.0000000   0.0000000   0.0000000   0.0000000   0.0000000   0.0000000   0.0000000   0.0000000
 NQMom=    0.0000000   0.0000000   0.0000000   0.0000000   0.0000000   0.0000000   0.0000000   0.0000000   0.0000000   0.0000000
 NMagM=    0.0000000   2.7928460   0.0000000   0.0000000   2.7928460   0.0000000   0.0000000   0.0000000   2.7928460   2.7928460
 AtZNuc=   6.0000000   1.0000000   6.0000000   6.0000000   1.0000000   8.0000000   8.0000000   6.0000000   1.0000000   1.0000000

  Atom        21          22          23          24          25          26          27          28          29          30
 IAtWgt=           1          19          19          19          19          12          16          12           1           1
 AtmWgt=   1.0078250  18.9984033  18.9984033  18.9984033  18.9984033  12.0000000  15.9949146  12.0000000   1.0078250   1.0078250
 NucSpn=           1           1           1           1           1           0           0           0           1           1
 AtZEff=   0.0000000   0.0000000   0.0000000   0.0000000   0.0000000   0.0000000   0.0000000   0.0000000   0.0000000   0.0000000
 NQMom=    0.0000000   0.0000000   0.0000000   0.0000000   0.0000000   0.0000000   0.0000000   0.0000000   0.0000000   0.0000000
 NMagM=    2.7928460   2.6288670   2.6288670   2.6288670   2.6288670   0.0000000   0.0000000   0.0000000   2.7928460   2.7928460
 AtZNuc=   1.0000000   9.0000000   9.0000000   9.0000000   9.0000000   6.0000000   8.0000000   6.0000000   1.0000000   1.0000000

  Atom        31
 IAtWgt=           1
 AtmWgt=   1.0078250
 NucSpn=           1
 AtZEff=   0.0000000
 NQMom=    0.0000000
 NMagM=    2.7928460
 AtZNuc=   1.0000000
 Leave Link  101 at Sat Dec 28 21:55:21 2019, MaxMem=  4294967296 cpu:               9.0 elap:               4.5
 (Enter /n/sw/g16_nehalem/g16/l103.exe)

 GradGradGradGradGradGradGradGradGradGradGradGradGradGradGradGradGradGrad
 Berny optimization.
 Initialization pass.
                           ----------------------------
                           !    Initial Parameters    !
                           ! (Angstroms and Degrees)  !
 --------------------------                            --------------------------
 ! Name  Definition              Value          Derivative Info.                !
 --------------------------------------------------------------------------------
 ! R1    R(1,2)                  1.0            estimate D2E/DX2                !
 ! R2    R(1,3)                  1.449          estimate D2E/DX2                !
 ! R3    R(1,26)                 1.47           estimate D2E/DX2                !
 ! R4    R(3,4)                  1.09           estimate D2E/DX2                !
 ! R5    R(3,5)                  1.525          estimate D2E/DX2                !
 ! R6    R(3,6)                  1.522          estimate D2E/DX2                !
 ! R7    R(5,7)                  1.09           estimate D2E/DX2                !
 ! R8    R(5,24)                 1.35           estimate D2E/DX2                !
 ! R9    R(5,25)                 1.35           estimate D2E/DX2                !
 ! R10   R(6,8)                  1.2584         estimate D2E/DX2                !
 ! R11   R(6,9)                  1.47           estimate D2E/DX2                !
 ! R12   R(9,10)                 1.0            estimate D2E/DX2                !
 ! R13   R(9,11)                 1.449          estimate D2E/DX2                !
 ! R14   R(11,12)                1.09           estimate D2E/DX2                !
 ! R15   R(11,13)                1.525          estimate D2E/DX2                !
 ! R16   R(11,14)                1.522          estimate D2E/DX2                !
 ! R17   R(13,15)                1.09           estimate D2E/DX2                !
 ! R18   R(13,22)                1.35           estimate D2E/DX2                !
 ! R19   R(13,23)                1.35           estimate D2E/DX2                !
 ! R20   R(14,16)                1.2584         estimate D2E/DX2                !
 ! R21   R(14,17)                1.43           estimate D2E/DX2                !
 ! R22   R(17,18)                1.43           estimate D2E/DX2                !
 ! R23   R(18,19)                1.07           estimate D2E/DX2                !
 ! R24   R(18,20)                1.07           estimate D2E/DX2                !
 ! R25   R(18,21)                1.07           estimate D2E/DX2                !
 ! R26   R(26,27)                1.2273         estimate D2E/DX2                !
 ! R27   R(26,28)                1.54           estimate D2E/DX2                !
 ! R28   R(28,29)                1.07           estimate D2E/DX2                !
 ! R29   R(28,30)                1.07           estimate D2E/DX2                !
 ! R30   R(28,31)                1.07           estimate D2E/DX2                !
 ! A1    A(2,1,3)              120.0            estimate D2E/DX2                !
 ! A2    A(2,1,26)             120.0            estimate D2E/DX2                !
 ! A3    A(3,1,26)             120.0            estimate D2E/DX2                !
 ! A4    A(1,3,4)              109.5            estimate D2E/DX2                !
 ! A5    A(1,3,5)              111.1            estimate D2E/DX2                !
 ! A6    A(1,3,6)              111.1            estimate D2E/DX2                !
 ! A7    A(4,3,5)              108.6358         estimate D2E/DX2                !
 ! A8    A(4,3,6)              108.6358         estimate D2E/DX2                !
 ! A9    A(5,3,6)              107.7945         estimate D2E/DX2                !
 ! A10   A(3,5,7)              109.5            estimate D2E/DX2                !
 ! A11   A(3,5,24)             109.5            estimate D2E/DX2                !
 ! A12   A(3,5,25)             109.5            estimate D2E/DX2                !
 ! A13   A(7,5,24)             109.4424         estimate D2E/DX2                !
 ! A14   A(7,5,25)             109.4424         estimate D2E/DX2                !
 ! A15   A(24,5,25)            109.4424         estimate D2E/DX2                !
 ! A16   A(3,6,8)              120.0            estimate D2E/DX2                !
 ! A17   A(3,6,9)              120.0            estimate D2E/DX2                !
 ! A18   A(8,6,9)              120.0            estimate D2E/DX2                !
 ! A19   A(6,9,10)             120.0            estimate D2E/DX2                !
 ! A20   A(6,9,11)             120.0            estimate D2E/DX2                !
 ! A21   A(10,9,11)            120.0            estimate D2E/DX2                !
 ! A22   A(9,11,12)            109.5            estimate D2E/DX2                !
 ! A23   A(9,11,13)            111.1            estimate D2E/DX2                !
 ! A24   A(9,11,14)            111.1            estimate D2E/DX2                !
 ! A25   A(12,11,13)           108.6358         estimate D2E/DX2                !
 ! A26   A(12,11,14)           108.6358         estimate D2E/DX2                !
 ! A27   A(13,11,14)           107.7945         estimate D2E/DX2                !
 ! A28   A(11,13,15)           109.5            estimate D2E/DX2                !
 ! A29   A(11,13,22)           109.5            estimate D2E/DX2                !
 ! A30   A(11,13,23)           109.5            estimate D2E/DX2                !
 ! A31   A(15,13,22)           109.4424         estimate D2E/DX2                !
 ! A32   A(15,13,23)           109.4424         estimate D2E/DX2                !
 ! A33   A(22,13,23)           109.4424         estimate D2E/DX2                !
 ! A34   A(11,14,16)           120.0            estimate D2E/DX2                !
 ! A35   A(11,14,17)           120.0            estimate D2E/DX2                !
 ! A36   A(16,14,17)           120.0            estimate D2E/DX2                !
 ! A37   A(14,17,18)           109.5            estimate D2E/DX2                !
 ! A38   A(17,18,19)           109.4712         estimate D2E/DX2                !
 ! A39   A(17,18,20)           109.4712         estimate D2E/DX2                !
 ! A40   A(17,18,21)           109.4712         estimate D2E/DX2                !
 ! A41   A(19,18,20)           109.4713         estimate D2E/DX2                !
 ! A42   A(19,18,21)           109.4712         estimate D2E/DX2                !
 ! A43   A(20,18,21)           109.4712         estimate D2E/DX2                !
 ! A44   A(1,26,27)            122.2249         estimate D2E/DX2                !
 ! A45   A(1,26,28)            115.5502         estimate D2E/DX2                !
 ! A46   A(27,26,28)           122.2249         estimate D2E/DX2                !
 ! A47   A(26,28,29)           109.4712         estimate D2E/DX2                !
 ! A48   A(26,28,30)           109.4712         estimate D2E/DX2                !
 ! A49   A(26,28,31)           109.4712         estimate D2E/DX2                !
 ! A50   A(29,28,30)           109.4713         estimate D2E/DX2                !
 ! A51   A(29,28,31)           109.4712         estimate D2E/DX2                !
 ! A52   A(30,28,31)           109.4712         estimate D2E/DX2                !
 ! D1    D(2,1,3,4)            120.0            estimate D2E/DX2                !
 ! D2    D(2,1,3,5)           -120.0            estimate D2E/DX2                !
 ! D3    D(2,1,3,6)              0.0            estimate D2E/DX2                !
 ! D4    D(26,1,3,4)           -60.0            estimate D2E/DX2                !
 ! D5    D(26,1,3,5)            60.0            estimate D2E/DX2                !
 ! D6    D(26,1,3,6)           180.0            estimate D2E/DX2                !
 ! D7    D(2,1,26,27)          180.0            estimate D2E/DX2                !
 ! D8    D(2,1,26,28)           -0.0022         estimate D2E/DX2                !
 ! D9    D(3,1,26,27)            0.0            estimate D2E/DX2                !
 ! D10   D(3,1,26,28)          179.9978         estimate D2E/DX2                !
 ! D11   D(1,3,5,7)           -120.0            estimate D2E/DX2                !
 ! D12   D(1,3,5,24)             0.0            estimate D2E/DX2                !
 ! D13   D(1,3,5,25)           120.0            estimate D2E/DX2                !
 ! D14   D(4,3,5,7)              0.5121         estimate D2E/DX2                !
 ! D15   D(4,3,5,24)           120.512          estimate D2E/DX2                !
 ! D16   D(4,3,5,25)          -119.4879         estimate D2E/DX2                !
 ! D17   D(6,3,5,7)            118.0551         estimate D2E/DX2                !
 ! D18   D(6,3,5,24)          -121.9449         estimate D2E/DX2                !
 ! D19   D(6,3,5,25)            -1.9449         estimate D2E/DX2                !
 ! D20   D(1,3,6,8)            118.0551         estimate D2E/DX2                !
 ! D21   D(1,3,6,9)            -61.9449         estimate D2E/DX2                !
 ! D22   D(4,3,6,8)             -2.457          estimate D2E/DX2                !
 ! D23   D(4,3,6,9)            177.543          estimate D2E/DX2                !
 ! D24   D(5,3,6,8)           -120.0            estimate D2E/DX2                !
 ! D25   D(5,3,6,9)             60.0            estimate D2E/DX2                !
 ! D26   D(3,6,9,10)             0.0            estimate D2E/DX2                !
 ! D27   D(3,6,9,11)           180.0            estimate D2E/DX2                !
 ! D28   D(8,6,9,10)           180.0            estimate D2E/DX2                !
 ! D29   D(8,6,9,11)             0.0            estimate D2E/DX2                !
 ! D30   D(6,9,11,12)          -60.0            estimate D2E/DX2                !
 ! D31   D(6,9,11,13)           60.0            estimate D2E/DX2                !
 ! D32   D(6,9,11,14)          180.0            estimate D2E/DX2                !
 ! D33   D(10,9,11,12)         120.0            estimate D2E/DX2                !
 ! D34   D(10,9,11,13)        -120.0            estimate D2E/DX2                !
 ! D35   D(10,9,11,14)           0.0            estimate D2E/DX2                !
 ! D36   D(9,11,13,15)        -120.0            estimate D2E/DX2                !
 ! D37   D(9,11,13,22)         120.0            estimate D2E/DX2                !
 ! D38   D(9,11,13,23)           0.0            estimate D2E/DX2                !
 ! D39   D(12,11,13,15)          0.5121         estimate D2E/DX2                !
 ! D40   D(12,11,13,22)       -119.4879         estimate D2E/DX2                !
 ! D41   D(12,11,13,23)        120.512          estimate D2E/DX2                !
 ! D42   D(14,11,13,15)        118.0551         estimate D2E/DX2                !
 ! D43   D(14,11,13,22)         -1.9449         estimate D2E/DX2                !
 ! D44   D(14,11,13,23)       -121.9449         estimate D2E/DX2                !
 ! D45   D(9,11,14,16)           0.5121         estimate D2E/DX2                !
 ! D46   D(9,11,14,17)        -179.4879         estimate D2E/DX2                !
 ! D47   D(12,11,14,16)       -120.0            estimate D2E/DX2                !
 ! D48   D(12,11,14,17)         60.0            estimate D2E/DX2                !
 ! D49   D(13,11,14,16)        122.457          estimate D2E/DX2                !
 ! D50   D(13,11,14,17)        -57.543          estimate D2E/DX2                !
 ! D51   D(11,14,17,18)          0.0            estimate D2E/DX2                !
 ! D52   D(16,14,17,18)       -180.0            estimate D2E/DX2                !
 ! D53   D(14,17,18,19)        176.6291         estimate D2E/DX2                !
 ! D54   D(14,17,18,20)        -63.3709         estimate D2E/DX2                !
 ! D55   D(14,17,18,21)         56.6291         estimate D2E/DX2                !
 ! D56   D(1,26,28,29)         -87.3467         estimate D2E/DX2                !
 ! D57   D(1,26,28,30)          32.6533         estimate D2E/DX2                !
 ! D58   D(1,26,28,31)         152.6533         estimate D2E/DX2                !
 ! D59   D(27,26,28,29)         92.6511         estimate D2E/DX2                !
 ! D60   D(27,26,28,30)       -147.3489         estimate D2E/DX2                !
 ! D61   D(27,26,28,31)        -27.3489         estimate D2E/DX2                !
 --------------------------------------------------------------------------------
 Trust Radius=3.00D-01 FncErr=1.00D-07 GrdErr=1.00D-06 EigMax=2.50D+02 EigMin=1.00D-04
 Number of steps in this run=    153 maximum allowed number of steps=    186.
 GradGradGradGradGradGradGradGradGradGradGradGradGradGradGradGradGradGrad

 Leave Link  103 at Sat Dec 28 21:55:22 2019, MaxMem=  4294967296 cpu:               1.7 elap:               0.9
 (Enter /n/sw/g16_nehalem/g16/l202.exe)
                          Input orientation:                          
 ---------------------------------------------------------------------
 Center     Atomic      Atomic             Coordinates (Angstroms)
 Number     Number       Type             X           Y           Z
 ---------------------------------------------------------------------
      1          7           0       -2.591926   -2.211987    0.000000
      2          1           0       -1.599067   -2.237515    0.116525
      3          6           0       -3.269172   -0.942171   -0.168845
      4          1           0       -3.787714   -0.931015   -1.127536
      5          6           0       -4.290418   -0.712905    0.940261
      6          6           0       -2.280514    0.214565   -0.137162
      7          1           0       -5.283287   -0.604077    0.503835
      8          8           0       -2.146954    0.955905   -1.145204
      9          7           0       -1.481654    0.465784    1.070981
     10          1           0       -1.587788   -0.123330    1.872031
     11          6           0       -0.540416    1.567039    1.101144
     12          1           0        0.204359    1.430702    0.317038
     13          6           0       -1.247039    2.899512    0.875705
     14          6           0        0.174008    1.640602    2.443035
     15          1           0       -0.841578    3.380338   -0.014524
     16          8           0       -0.085036    0.797708    3.340809
     17          8           0        1.139614    2.667552    2.683616
     18          6           0        1.256833    3.494025    1.522539
     19          1           0        1.935421    4.296645    1.723090
     20          1           0        1.626146    2.910526    0.705204
     21          1           0        0.296642    3.893315    1.270545
     22          9           0       -1.053268    3.699109    1.946032
     23          9           0       -2.569411    2.685640    0.708104
     24          9           0       -4.283508   -1.766677    1.784072
     25          9           0       -3.972967    0.409326    1.620206
     26          6           0       -3.364370   -3.462679    0.000000
     27          8           0       -4.583603   -3.478884   -0.139700
     28          6           0       -2.542017   -4.751247    0.186893
     29          1           0       -2.197108   -5.095550   -0.765679
     30          1           0       -1.702334   -4.549976    0.818813
     31          1           0       -3.155233   -5.503517    0.637398
 ---------------------------------------------------------------------
                    Distance matrix (angstroms):
                    1          2          3          4          5
     1  N    0.000000
     2  H    1.000000   0.000000
     3  C    1.449000   2.132745   0.000000
     4  H    2.083780   2.836338   1.090000   0.000000
     5  C    2.452797   3.200992   1.524999   2.139175   0.000000
     6  C    2.450295   2.557621   1.522000   2.136550   2.461859
     7  H    3.175318   4.048655   2.150225   2.237186   1.090000
     8  O    3.397798   3.477078   2.411502   2.500574   3.424693
     9  N    3.090334   2.869250   2.591279   3.478856   3.048860
    10  H    2.979142   2.748037   2.768164   3.806499   2.918904
    11  C    4.438722   4.069993   3.918561   4.663929   4.391644
    12  H    4.603141   4.092477   4.234622   4.858102   5.018613
    13  C    5.357519   5.204741   4.465271   5.014075   4.723968
    14  C    5.334909   4.857595   5.034692   5.920932   5.265778
    15  H    5.859867   5.670206   4.959951   5.339128   5.436980
    16  O    5.148181   4.679837   5.048126   6.055115   5.072457
    17  O    6.703438   6.176569   6.372129   7.193965   6.629631
    18  C    7.049089   6.556187   6.559371   7.214661   6.986365
    19  H    8.113458   7.600585   7.623149   8.258860   8.029288
    20  H    6.673050   6.103349   6.290578   6.886672   6.941918
    21  H    6.872615   6.520165   6.178091   6.760690   6.509030
    22  F    6.410582   6.236064   5.560972   6.193711   5.563863
    23  F    4.948603   5.052623   3.797331   4.234859   3.816526
    24  F    2.498532   3.195094   2.350015   3.069463   1.350000
    25  F    3.376925   3.860340   2.350016   3.062828   1.350000
    26  C    1.470000   2.151953   2.527950   2.803549   3.050068
    27  O    2.364597   3.242546   2.857182   2.846208   2.983776
    28  C    2.546617   2.685694   3.894144   4.227725   4.464603
    29  H    3.009499   3.050296   4.330830   4.472619   5.147792
    30  H    2.632113   2.418956   4.055454   4.608033   4.629908
    31  H    3.399671   3.655097   4.633453   4.941943   4.932579
                    6          7          8          9         10
     6  C    0.000000
     7  H    3.177687   0.000000
     8  O    1.258400   3.871621   0.000000
     9  N    1.470000   3.989821   2.365231   0.000000
    10  H    2.151953   3.969860   3.252864   1.000000   0.000000
    11  C    2.527950   5.250271   2.828520   1.449000   2.132745
    12  H    2.803549   5.855721   2.809316   2.083780   2.836338
    13  C    3.050068   5.357678   2.944746   2.452797   3.200992
    14  C    3.836102   6.211372   4.327948   2.450295   2.557621
    15  H    3.479612   5.989410   2.976629   3.175318   4.048655
    16  O    4.154090   6.085658   4.939721   2.685672   2.294315
    17  O    5.066677   7.530514   5.328332   3.784101   3.985776
    18  C    5.101206   7.784945   5.014447   4.107732   4.615113
    19  H    6.156137   8.809846   6.004452   5.174664   5.654322
    20  H    4.820766   7.754563   4.634743   3.971017   4.571120
    21  H    4.707078   7.207634   4.520552   3.866541   4.477309
    22  F    4.241212   6.204063   4.275167   3.376925   3.860340
    23  F    2.627575   4.269553   2.570059   2.498532   3.195094
    24  F    3.410050   1.997549   4.534089   3.652775   3.158359
    25  F    2.447584   1.997550   3.358654   2.551759   2.456871
    26  C    3.836102   3.479612   4.724138   4.486027   4.220427
    27  O    4.352676   3.027906   5.159036   5.162193   4.927648
    28  C    4.983240   4.981369   5.873852   5.396609   5.016758
    29  H    5.347832   5.595489   6.063552   5.900308   5.661428
    30  H    4.893775   5.337842   5.862574   5.026941   4.551658
    31  H    5.836226   5.343311   6.776314   6.214613   5.738259
                   11         12         13         14         15
    11  C    0.000000
    12  H    1.090000   0.000000
    13  C    1.524999   2.139175   0.000000
    14  C    1.522000   2.136550   2.461859   0.000000
    15  H    2.150225   2.237186   1.090000   3.177687   0.000000
    16  O    2.411502   3.102841   3.441594   1.258400   4.301232
    17  O    2.556921   2.829345   3.003075   1.430000   3.422447
    18  C    2.668512   2.611176   2.653529   2.335595   2.603616
    19  H    3.737290   3.631417   3.577442   3.267333   3.401564
    20  H    2.579868   2.088548   2.878261   2.596434   2.613119
    21  H    2.478089   2.642377   1.877896   2.542536   1.791673
    22  F    2.350016   3.062828   1.350000   2.447584   1.997550
    23  F    2.350015   3.069463   1.350000   3.410050   1.997549
    24  F    5.058734   5.702312   5.640797   5.649179   6.447759
    25  F    3.659526   4.493496   3.766430   4.403463   4.615718
    26  C    5.872419   6.064777   6.762206   6.673231   7.293256
    27  O    6.583950   6.872934   7.269639   7.450806   7.814560
    28  C    6.690515   6.765797   7.790093   7.302239   8.309918
    29  H    7.114756   7.037847   8.216922   7.829035   8.616402
    30  H    6.232787   6.297282   7.463606   6.669484   8.020302
    31  H    7.552820   7.711866   8.620261   8.085951   9.203309
                   16         17         18         19         20
    16  O    0.000000
    17  O    2.329803   0.000000
    18  C    3.518074   1.430000   0.000000
    19  H    4.352220   2.051796   1.070000   0.000000
    20  H    3.786629   2.051796   1.070000   1.747303   0.000000
    21  H    3.743589   2.051796   1.070000   1.747303   1.747303
    22  F    3.361697   2.533154   2.357535   3.055980   3.056268
    23  F    4.082591   4.202362   3.994613   4.890710   4.201581
    24  F    5.160103   7.062705   7.644525   8.685773   7.613422
    25  F    4.269347   5.689368   6.072538   7.073251   6.200266
    26  C    6.329766   8.066437   8.489369   9.553216   8.125288
    27  O    7.116199   8.860304   9.246361  10.316322   8.949827
    28  C    6.839214   8.650237   9.176041  10.211351   8.737562
    29  H    7.486961   9.126725   9.536585  10.558650   8.993221
    30  H    6.129751   7.977899   8.599876   9.608001   8.170115
    31  H    7.512655   9.455109  10.060098  11.096696   9.677929
                   21         22         23         24         25
    21  H    0.000000
    22  F    1.521925   0.000000
    23  F    3.160551   2.204149   0.000000
    24  F    7.299109   6.351023   4.890702   0.000000
    25  F    5.521776   4.410610   2.825510   2.204149   0.000000
    26  C    8.314322   7.772994   6.239808   2.627575   4.241212
    27  O    8.952927   8.266627   6.540421   2.592800   4.311417
    28  C    9.163010   8.758964   7.455180   3.806761   5.543781
    29  H    9.548021   9.274038   7.928277   4.683556   6.256978
    30  H    8.688449   8.351007   7.288225   3.916751   5.512955
    31  H   10.030792   9.529906   8.210389   4.068395   6.049488
                   26         27         28         29         30
    26  C    0.000000
    27  O    1.227317   0.000000
    28  C    1.540000   2.427683   0.000000
    29  H    2.148263   2.949714   1.070000   0.000000
    30  H    2.148263   3.219890   1.070000   1.747303   0.000000
    31  H    2.148263   2.596779   1.070000   1.747303   1.747303
                   31
    31  H    0.000000
 Stoichiometry    C9H12F4N2O4
 Framework group  C1[X(C9H12F4N2O4)]
 Deg. of freedom    87
 Full point group                 C1      NOp   1
 Largest Abelian subgroup         C1      NOp   1
 Largest concise Abelian subgroup C1      NOp   1
                         Standard orientation:                         
 ---------------------------------------------------------------------
 Center     Atomic      Atomic             Coordinates (Angstroms)
 Number     Number       Type             X           Y           Z
 ---------------------------------------------------------------------
      1          7           0        2.570092    0.594151   -0.676569
      2          1           0        2.053242    1.401995   -0.959861
      3          6           0        1.905137   -0.688231   -0.562845
      4          1           0        2.373343   -1.402222   -1.240413
      5          6           0        1.999732   -1.231518    0.858954
      6          6           0        0.430040   -0.574124   -0.919992
      7          1           0        2.517612   -2.190574    0.848292
      8          8           0       -0.032188   -1.217422   -1.897788
      9          7           0       -0.454708    0.287553   -0.122725
     10          1           0       -0.087395    0.798756    0.654290
     11          6           0       -1.859054    0.396186   -0.462743
     12          1           0       -1.959012    0.783175   -1.476817
     13          6           0       -2.548346   -0.962165   -0.389370
     14          6           0       -2.582376    1.336907    0.490323
     15          1           0       -2.960981   -1.214033   -1.366301
     16          8           0       -1.947156    1.905639    1.415856
     17          8           0       -3.983816    1.574479    0.334038
     18          6           0       -4.474617    0.821025   -0.777863
     19          1           0       -5.533387    0.952896   -0.858577
     20          1           0       -4.003223    1.162167   -1.675810
     21          1           0       -4.254482   -0.215761   -0.631182
     22          9           0       -3.544691   -0.913365    0.520253
     23          9           0       -1.651996   -1.903204   -0.023987
     24          9           0        2.684102   -0.359824    1.629855
     25          9           0        0.757812   -1.397018    1.361692
     26          6           0        4.004453    0.707587   -0.375502
     27          8           0        4.677779   -0.256678   -0.024600
     28          6           0        4.606085    2.116790   -0.529727
     29          1           0        4.921602    2.261082   -1.541917
     30          1           0        3.867718    2.849295   -0.278428
     31          1           0        5.446953    2.219114    0.124009
 ---------------------------------------------------------------------
 Rotational constants (GHZ):           0.7663206           0.1953244           0.1833023
 Leave Link  202 at Sat Dec 28 21:55:24 2019, MaxMem=  4294967296 cpu:               3.2 elap:               1.6
 (Enter /n/sw/g16_nehalem/g16/l301.exe)
 Standard basis: 6-31G(d) (6D, 7F)
 Ernie: Thresh=  0.10000D-02 Tol=  0.10000D-05 Strict=F.
 There are   309 symmetry adapted cartesian basis functions of A   symmetry.
 There are   309 symmetry adapted basis functions of A   symmetry.
   309 basis functions,   580 primitive gaussians,   309 cartesian basis functions
    74 alpha electrons       74 beta electrons
       nuclear repulsion energy      1655.1888761802 Hartrees.
 IExCor=  402 DFT=T Ex+Corr=B3LYP ExCW=0 ScaHFX=  0.200000
 ScaDFX=  0.800000  0.720000  1.000000  0.810000 ScalE2=  1.000000  1.000000
 IRadAn=      5 IRanWt=     -1 IRanGd=            0 ICorTp=0 IEmpDi=141
 NAtoms=   31 NActive=   31 NUniq=   31 SFac= 1.00D+00 NAtFMM=   60 NAOKFM=F Big=F
 Integral buffers will be    131072 words long.
 Raffenetti 2 integral format.
 Two-electron integral symmetry is turned on.
 R6Disp:  Grimme-D3(BJ) Dispersion energy=       -0.0563612693 Hartrees.
 Nuclear repulsion after empirical dispersion term =     1655.1325149109 Hartrees.
 ------------------------------------------------------------------------------
 Polarizable Continuum Model (PCM)
 =================================
 Model                : PCM.
 Atomic radii         : SMD-Coulomb.
 Polarization charges : Total charges.
 Charge compensation  : None.
 Solution method      : On-the-fly selection.
 Cavity type          : VdW (van der Waals Surface) (Alpha=1.000).
 Cavity algorithm     : GePol (No added spheres)
                        Default sphere list used, NSphG=   31.
                        Lebedev-Laikov grids with approx.  5.0 points / Ang**2.
                        Smoothing algorithm: York/Karplus (Gamma=1.0000).
                        Polarization charges: spherical gaussians, with
                                              point-specific exponents (IZeta= 3).
                        Self-potential: point-specific (ISelfS= 7).
                        Self-field    : sphere-specific E.n sum rule (ISelfD= 2).
 1st derivatives      : Analytical E(r).r(x)/FMM algorithm (CHGder, D1EAlg=3).
                        Cavity 1st derivative terms included.
 Solvent              : DiethylEther, Eps=   4.240000 Eps(inf)=   1.829527
 ------------------------------------------------------------------------------
 GePol: Number of generator spheres                  =      31
 GePol: Total number of spheres                      =      31
 GePol: Number of exposed spheres                    =      31 (100.00%)
 GePol: Number of points                             =    2388
 GePol: Average weight of points                     =       0.13
 GePol: Minimum weight of points                     =   0.15D-09
 GePol: Maximum weight of points                     =    0.21501
 GePol: Number of points with low weight             =     111
 GePol: Fraction of low-weight points (<1% of avg)   =       4.65%
 GePol: Cavity surface area                          =    308.849 Ang**2
 GePol: Cavity volume                                =    318.530 Ang**3
 ------------------------------------------------------------------------------
 Atomic radii for non-electrostatic terms: SMD-CDS.
 ------------------------------------------------------------------------------
