 Entering Gaussian System, Link 0=g16
 Input=conformer_00201.gjf
 Output=conformer_00201.out
 Initial command:
 /n/sw/g16_nehalem/g16/l1.exe "/scratch/cwagen_conformer_00201/Gau-38904.inp" -scrdir="/scratch/cwagen_conformer_00201/"
 Entering Link 1 = /n/sw/g16_nehalem/g16/l1.exe PID=     38906.
  
 Copyright (c) 1988,1990,1992,1993,1995,1998,2003,2009,2016,
            Gaussian, Inc.  All Rights Reserved.
  
 This is part of the Gaussian(R) 16 program.  It is based on
 the Gaussian(R) 09 system (copyright 2009, Gaussian, Inc.),
 the Gaussian(R) 03 system (copyright 2003, Gaussian, Inc.),
 the Gaussian(R) 98 system (copyright 1998, Gaussian, Inc.),
 the Gaussian(R) 94 system (copyright 1995, Gaussian, Inc.),
 the Gaussian 92(TM) system (copyright 1992, Gaussian, Inc.),
 the Gaussian 90(TM) system (copyright 1990, Gaussian, Inc.),
 the Gaussian 88(TM) system (copyright 1988, Gaussian, Inc.),
 the Gaussian 86(TM) system (copyright 1986, Carnegie Mellon
 University), and the Gaussian 82(TM) system (copyright 1983,
 Carnegie Mellon University). Gaussian is a federally registered
 trademark of Gaussian, Inc.
  
 This software contains proprietary and confidential information,
 including trade secrets, belonging to Gaussian, Inc.
  
 This software is provided under written license and may be
 used, copied, transmitted, or stored only in accord with that
 written license.
  
 The following legend is applicable only to US Government
 contracts under FAR:
  
                    RESTRICTED RIGHTS LEGEND
  
 Use, reproduction and disclosure by the US Government is
 subject to restrictions as set forth in subparagraphs (a)
 and (c) of the Commercial Computer Software - Restricted
 Rights clause in FAR 52.227-19.
  
 Gaussian, Inc.
 340 Quinnipiac St., Bldg. 40, Wallingford CT 06492
  
  
 ---------------------------------------------------------------
 Warning -- This program may not be used in any manner that
 competes with the business of Gaussian, Inc. or will provide
 assistance to any competitor of Gaussian, Inc.  The licensee
 of this program is prohibited from giving any competitor of
 Gaussian, Inc. access to this program.  By using this program,
 the user acknowledges that Gaussian, Inc. is engaged in the
 business of creating and licensing software in the field of
 computational chemistry and represents and warrants to the
 licensee that it is not a competitor of Gaussian, Inc. and that
 it will not use this program in any manner prohibited above.
 ---------------------------------------------------------------
  

 Cite this work as:
 Gaussian 16, Revision A.03,
 M. J. Frisch, G. W. Trucks, H. B. Schlegel, G. E. Scuseria, 
 M. A. Robb, J. R. Cheeseman, G. Scalmani, V. Barone, 
 G. A. Petersson, H. Nakatsuji, X. Li, M. Caricato, A. V. Marenich, 
 J. Bloino, B. G. Janesko, R. Gomperts, B. Mennucci, H. P. Hratchian, 
 J. V. Ortiz, A. F. Izmaylov, J. L. Sonnenberg, D. Williams-Young, 
 F. Ding, F. Lipparini, F. Egidi, J. Goings, B. Peng, A. Petrone, 
 T. Henderson, D. Ranasinghe, V. G. Zakrzewski, J. Gao, N. Rega, 
 G. Zheng, W. Liang, M. Hada, M. Ehara, K. Toyota, R. Fukuda, 
 J. Hasegawa, M. Ishida, T. Nakajima, Y. Honda, O. Kitao, H. Nakai, 
 T. Vreven, K. Throssell, J. A. Montgomery, Jr., J. E. Peralta, 
 F. Ogliaro, M. J. Bearpark, J. J. Heyd, E. N. Brothers, K. N. Kudin, 
 V. N. Staroverov, T. A. Keith, R. Kobayashi, J. Normand, 
 K. Raghavachari, A. P. Rendell, J. C. Burant, S. S. Iyengar, 
 J. Tomasi, M. Cossi, J. M. Millam, M. Klene, C. Adamo, R. Cammi, 
 J. W. Ochterski, R. L. Martin, K. Morokuma, O. Farkas, 
 J. B. Foresman, and D. J. Fox, Gaussian, Inc., Wallingford CT, 2016.
 
 ******************************************
 Gaussian 16:  ES64L-G16RevA.03 25-Dec-2016
                28-Dec-2019 
 ******************************************
 %nprocshared=16
 Will use up to   16 processors via shared memory.
 %mem=32GB
 ----------
 #p opt pm7
 ----------
 1/18=20,19=15,26=1,38=1/1,3;
 2/9=110,12=2,17=6,18=5,40=1/2;
 3/5=2,25=1,41=4200000,71=1/1,2,3;
 4/35=1/1;
 5/5=2,35=1,38=5/2;
 6/7=2,8=2,9=2,10=2,28=1/1;
 7//1,2,3,16;
 1/18=20,19=15,26=1/3(2);
 2/9=110/2;
 99//99;
 2/9=110/2;
 3/5=2,25=1,41=4200000,71=1,135=20/1,2,3;
 4/5=5,16=3,35=1/1;
 5/5=2,35=1,38=5/2;
 7//1,2,3,16;
 1/18=20,19=15,26=1/3(-5);
 2/9=110/2;
 6/7=2,8=2,9=2,10=2,19=2,28=1/1;
 99/9=1/99;
 Leave Link    1 at Sat Dec 28 21:00:25 2019, MaxMem=  4294967296 cpu:               1.8 elap:               0.7
 (Enter /n/sw/g16_nehalem/g16/l101.exe)
 -----
 title
 -----
 Symbolic Z-matrix:
 Charge =  0 Multiplicity = 1
 7                    -2.59193  -2.21199   0. 
 1                    -1.59907  -2.23752   0.11653 
 6                    -3.26917  -0.94217  -0.16885 
 1                    -3.78771  -0.93101  -1.12754 
 6                    -4.29042  -0.7129    0.94026 
 6                    -2.28051   0.21456  -0.13716 
 1                    -5.28329  -0.60408   0.50384 
 8                    -2.14695   0.9559   -1.1452 
 7                    -1.48165   0.46578   1.07098 
 1                    -1.58779  -0.12333   1.87203 
 6                    -0.54042   1.56704   1.10114 
 1                     0.20436   1.4307    0.31704 
 6                    -1.24704   2.89951   0.87571 
 6                     0.17401   1.6406    2.44304 
 1                    -0.84158   3.38034  -0.01452 
 8                    -0.08504   0.79771   3.34081 
 8                     1.13961   2.66755   2.68362 
 6                     1.25683   3.49403   1.52254 
 1                     1.93542   4.29664   1.72309 
 1                     1.62615   2.91053   0.7052 
 1                     0.29664   3.89332   1.27055 
 9                    -1.05327   3.69911   1.94603 
 9                    -2.56941   2.68564   0.7081 
 9                    -4.28351  -1.76668   1.78407 
 9                    -3.97297   0.40933   1.62021 
 6                    -3.36437  -3.46268   0. 
 8                    -4.5836   -3.47888  -0.1397 
 6                    -2.54202  -4.75125   0.18689 
 1                    -2.19711  -5.09555  -0.76568 
 1                    -1.70233  -4.54998   0.81881 
 1                    -3.15523  -5.50352   0.6374 
 
 ITRead=  0  0  0  0  0  0  0  0  0  0  0  0  0  0  0  0  0  0  0  0
 ITRead=  0  0  0  0  0  0  0  0  0  0  0
 MicOpt= -1 -1 -1 -1 -1 -1 -1 -1 -1 -1 -1 -1 -1 -1 -1 -1 -1 -1 -1 -1
 MicOpt= -1 -1 -1 -1 -1 -1 -1 -1 -1 -1 -1
 NAtoms=     31 NQM=       31 NQMF=       0 NMMI=      0 NMMIF=      0
                NMic=       0 NMicF=      0.
                    Isotopes and Nuclear Properties:
 (Nuclear quadrupole moments (NQMom) in fm**2, nuclear magnetic moments (NMagM)
  in nuclear magnetons)

  Atom         1           2           3           4           5           6           7           8           9          10
 IAtWgt=          14           1          12           1          12          12           1          16          14           1
 AtmWgt=  14.0030740   1.0078250  12.0000000   1.0078250  12.0000000  12.0000000   1.0078250  15.9949146  14.0030740   1.0078250
 NucSpn=           2           1           0           1           0           0           1           0           2           1
 AtZEff=   0.0000000   0.0000000   0.0000000   0.0000000   0.0000000   0.0000000   0.0000000   0.0000000   0.0000000   0.0000000
 NQMom=    2.0440000   0.0000000   0.0000000   0.0000000   0.0000000   0.0000000   0.0000000   0.0000000   2.0440000   0.0000000
 NMagM=    0.4037610   2.7928460   0.0000000   2.7928460   0.0000000   0.0000000   2.7928460   0.0000000   0.4037610   2.7928460
 AtZNuc=   7.0000000   1.0000000   6.0000000   1.0000000   6.0000000   6.0000000   1.0000000   8.0000000   7.0000000   1.0000000

  Atom        11          12          13          14          15          16          17          18          19          20
 IAtWgt=          12           1          12          12           1          16          16          12           1           1
 AtmWgt=  12.0000000   1.0078250  12.0000000  12.0000000   1.0078250  15.9949146  15.9949146  12.0000000   1.0078250   1.0078250
 NucSpn=           0           1           0           0           1           0           0           0           1           1
 AtZEff=   0.0000000   0.0000000   0.0000000   0.0000000   0.0000000   0.0000000   0.0000000   0.0000000   0.0000000   0.0000000
 NQMom=    0.0000000   0.0000000   0.0000000   0.0000000   0.0000000   0.0000000   0.0000000   0.0000000   0.0000000   0.0000000
 NMagM=    0.0000000   2.7928460   0.0000000   0.0000000   2.7928460   0.0000000   0.0000000   0.0000000   2.7928460   2.7928460
 AtZNuc=   6.0000000   1.0000000   6.0000000   6.0000000   1.0000000   8.0000000   8.0000000   6.0000000   1.0000000   1.0000000

  Atom        21          22          23          24          25          26          27          28          29          30
 IAtWgt=           1          19          19          19          19          12          16          12           1           1
 AtmWgt=   1.0078250  18.9984033  18.9984033  18.9984033  18.9984033  12.0000000  15.9949146  12.0000000   1.0078250   1.0078250
 NucSpn=           1           1           1           1           1           0           0           0           1           1
 AtZEff=   0.0000000   0.0000000   0.0000000   0.0000000   0.0000000   0.0000000   0.0000000   0.0000000   0.0000000   0.0000000
 NQMom=    0.0000000   0.0000000   0.0000000   0.0000000   0.0000000   0.0000000   0.0000000   0.0000000   0.0000000   0.0000000
 NMagM=    2.7928460   2.6288670   2.6288670   2.6288670   2.6288670   0.0000000   0.0000000   0.0000000   2.7928460   2.7928460
 AtZNuc=   1.0000000   9.0000000   9.0000000   9.0000000   9.0000000   6.0000000   8.0000000   6.0000000   1.0000000   1.0000000

  Atom        31
 IAtWgt=           1
 AtmWgt=   1.0078250
 NucSpn=           1
 AtZEff=   0.0000000
 NQMom=    0.0000000
 NMagM=    2.7928460
 AtZNuc=   1.0000000
 Leave Link  101 at Sat Dec 28 21:00:28 2019, MaxMem=  4294967296 cpu:               8.7 elap:               3.1
 (Enter /n/sw/g16_nehalem/g16/l103.exe)

 GradGradGradGradGradGradGradGradGradGradGradGradGradGradGradGradGradGrad
 Berny optimization.
 Initialization pass.
                           ----------------------------
                           !    Initial Parameters    !
                           ! (Angstroms and Degrees)  !
 --------------------------                            --------------------------
 ! Name  Definition              Value          Derivative Info.                !
 --------------------------------------------------------------------------------
 ! R1    R(1,2)                  1.0            estimate D2E/DX2                !
 ! R2    R(1,3)                  1.449          estimate D2E/DX2                !
 ! R3    R(1,26)                 1.47           estimate D2E/DX2                !
 ! R4    R(3,4)                  1.09           estimate D2E/DX2                !
 ! R5    R(3,5)                  1.525          estimate D2E/DX2                !
 ! R6    R(3,6)                  1.522          estimate D2E/DX2                !
 ! R7    R(5,7)                  1.09           estimate D2E/DX2                !
 ! R8    R(5,24)                 1.35           estimate D2E/DX2                !
 ! R9    R(5,25)                 1.35           estimate D2E/DX2                !
 ! R10   R(6,8)                  1.2584         estimate D2E/DX2                !
 ! R11   R(6,9)                  1.47           estimate D2E/DX2                !
 ! R12   R(9,10)                 1.0            estimate D2E/DX2                !
 ! R13   R(9,11)                 1.449          estimate D2E/DX2                !
 ! R14   R(11,12)                1.09           estimate D2E/DX2                !
 ! R15   R(11,13)                1.525          estimate D2E/DX2                !
 ! R16   R(11,14)                1.522          estimate D2E/DX2                !
 ! R17   R(13,15)                1.09           estimate D2E/DX2                !
 ! R18   R(13,22)                1.35           estimate D2E/DX2                !
 ! R19   R(13,23)                1.35           estimate D2E/DX2                !
 ! R20   R(14,16)                1.2584         estimate D2E/DX2                !
 ! R21   R(14,17)                1.43           estimate D2E/DX2                !
 ! R22   R(17,18)                1.43           estimate D2E/DX2                !
 ! R23   R(18,19)                1.07           estimate D2E/DX2                !
 ! R24   R(18,20)                1.07           estimate D2E/DX2                !
 ! R25   R(18,21)                1.07           estimate D2E/DX2                !
 ! R26   R(26,27)                1.2273         estimate D2E/DX2                !
 ! R27   R(26,28)                1.54           estimate D2E/DX2                !
 ! R28   R(28,29)                1.07           estimate D2E/DX2                !
 ! R29   R(28,30)                1.07           estimate D2E/DX2                !
 ! R30   R(28,31)                1.07           estimate D2E/DX2                !
 ! A1    A(2,1,3)              120.0            estimate D2E/DX2                !
 ! A2    A(2,1,26)             120.0            estimate D2E/DX2                !
 ! A3    A(3,1,26)             120.0            estimate D2E/DX2                !
 ! A4    A(1,3,4)              109.5            estimate D2E/DX2                !
 ! A5    A(1,3,5)              111.1            estimate D2E/DX2                !
 ! A6    A(1,3,6)              111.1            estimate D2E/DX2                !
 ! A7    A(4,3,5)              108.6358         estimate D2E/DX2                !
 ! A8    A(4,3,6)              108.6358         estimate D2E/DX2                !
 ! A9    A(5,3,6)              107.7945         estimate D2E/DX2                !
 ! A10   A(3,5,7)              109.5            estimate D2E/DX2                !
 ! A11   A(3,5,24)             109.5            estimate D2E/DX2                !
 ! A12   A(3,5,25)             109.5            estimate D2E/DX2                !
 ! A13   A(7,5,24)             109.4424         estimate D2E/DX2                !
 ! A14   A(7,5,25)             109.4424         estimate D2E/DX2                !
 ! A15   A(24,5,25)            109.4424         estimate D2E/DX2                !
 ! A16   A(3,6,8)              120.0            estimate D2E/DX2                !
 ! A17   A(3,6,9)              120.0            estimate D2E/DX2                !
 ! A18   A(8,6,9)              120.0            estimate D2E/DX2                !
 ! A19   A(6,9,10)             120.0            estimate D2E/DX2                !
 ! A20   A(6,9,11)             120.0            estimate D2E/DX2                !
 ! A21   A(10,9,11)            120.0            estimate D2E/DX2                !
 ! A22   A(9,11,12)            109.5            estimate D2E/DX2                !
 ! A23   A(9,11,13)            111.1            estimate D2E/DX2                !
 ! A24   A(9,11,14)            111.1            estimate D2E/DX2                !
 ! A25   A(12,11,13)           108.6358         estimate D2E/DX2                !
 ! A26   A(12,11,14)           108.6358         estimate D2E/DX2                !
 ! A27   A(13,11,14)           107.7945         estimate D2E/DX2                !
 ! A28   A(11,13,15)           109.5            estimate D2E/DX2                !
 ! A29   A(11,13,22)           109.5            estimate D2E/DX2                !
 ! A30   A(11,13,23)           109.5            estimate D2E/DX2                !
 ! A31   A(15,13,22)           109.4424         estimate D2E/DX2                !
 ! A32   A(15,13,23)           109.4424         estimate D2E/DX2                !
 ! A33   A(22,13,23)           109.4424         estimate D2E/DX2                !
 ! A34   A(11,14,16)           120.0            estimate D2E/DX2                !
 ! A35   A(11,14,17)           120.0            estimate D2E/DX2                !
 ! A36   A(16,14,17)           120.0            estimate D2E/DX2                !
 ! A37   A(14,17,18)           109.5            estimate D2E/DX2                !
 ! A38   A(17,18,19)           109.4712         estimate D2E/DX2                !
 ! A39   A(17,18,20)           109.4712         estimate D2E/DX2                !
 ! A40   A(17,18,21)           109.4712         estimate D2E/DX2                !
 ! A41   A(19,18,20)           109.4713         estimate D2E/DX2                !
 ! A42   A(19,18,21)           109.4712         estimate D2E/DX2                !
 ! A43   A(20,18,21)           109.4712         estimate D2E/DX2                !
 ! A44   A(1,26,27)            122.2249         estimate D2E/DX2                !
 ! A45   A(1,26,28)            115.5502         estimate D2E/DX2                !
 ! A46   A(27,26,28)           122.2249         estimate D2E/DX2                !
 ! A47   A(26,28,29)           109.4712         estimate D2E/DX2                !
 ! A48   A(26,28,30)           109.4712         estimate D2E/DX2                !
 ! A49   A(26,28,31)           109.4712         estimate D2E/DX2                !
 ! A50   A(29,28,30)           109.4713         estimate D2E/DX2                !
 ! A51   A(29,28,31)           109.4712         estimate D2E/DX2                !
 ! A52   A(30,28,31)           109.4712         estimate D2E/DX2                !
 ! D1    D(2,1,3,4)            120.0            estimate D2E/DX2                !
 ! D2    D(2,1,3,5)           -120.0            estimate D2E/DX2                !
 ! D3    D(2,1,3,6)              0.0            estimate D2E/DX2                !
 ! D4    D(26,1,3,4)           -60.0            estimate D2E/DX2                !
 ! D5    D(26,1,3,5)            60.0            estimate D2E/DX2                !
 ! D6    D(26,1,3,6)           180.0            estimate D2E/DX2                !
 ! D7    D(2,1,26,27)          180.0            estimate D2E/DX2                !
 ! D8    D(2,1,26,28)           -0.0022         estimate D2E/DX2                !
 ! D9    D(3,1,26,27)            0.0            estimate D2E/DX2                !
 ! D10   D(3,1,26,28)          179.9978         estimate D2E/DX2                !
 ! D11   D(1,3,5,7)           -120.0            estimate D2E/DX2                !
 ! D12   D(1,3,5,24)             0.0            estimate D2E/DX2                !
 ! D13   D(1,3,5,25)           120.0            estimate D2E/DX2                !
 ! D14   D(4,3,5,7)              0.5121         estimate D2E/DX2                !
 ! D15   D(4,3,5,24)           120.512          estimate D2E/DX2                !
 ! D16   D(4,3,5,25)          -119.4879         estimate D2E/DX2                !
 ! D17   D(6,3,5,7)            118.0551         estimate D2E/DX2                !
 ! D18   D(6,3,5,24)          -121.9449         estimate D2E/DX2                !
 ! D19   D(6,3,5,25)            -1.9449         estimate D2E/DX2                !
 ! D20   D(1,3,6,8)            118.0551         estimate D2E/DX2                !
 ! D21   D(1,3,6,9)            -61.9449         estimate D2E/DX2                !
 ! D22   D(4,3,6,8)             -2.457          estimate D2E/DX2                !
 ! D23   D(4,3,6,9)            177.543          estimate D2E/DX2                !
 ! D24   D(5,3,6,8)           -120.0            estimate D2E/DX2                !
 ! D25   D(5,3,6,9)             60.0            estimate D2E/DX2                !
 ! D26   D(3,6,9,10)             0.0            estimate D2E/DX2                !
 ! D27   D(3,6,9,11)           180.0            estimate D2E/DX2                !
 ! D28   D(8,6,9,10)           180.0            estimate D2E/DX2                !
 ! D29   D(8,6,9,11)             0.0            estimate D2E/DX2                !
 ! D30   D(6,9,11,12)          -60.0            estimate D2E/DX2                !
 ! D31   D(6,9,11,13)           60.0            estimate D2E/DX2                !
 ! D32   D(6,9,11,14)          180.0            estimate D2E/DX2                !
 ! D33   D(10,9,11,12)         120.0            estimate D2E/DX2                !
 ! D34   D(10,9,11,13)        -120.0            estimate D2E/DX2                !
 ! D35   D(10,9,11,14)           0.0            estimate D2E/DX2                !
 ! D36   D(9,11,13,15)        -120.0            estimate D2E/DX2                !
 ! D37   D(9,11,13,22)         120.0            estimate D2E/DX2                !
 ! D38   D(9,11,13,23)           0.0            estimate D2E/DX2                !
 ! D39   D(12,11,13,15)          0.5121         estimate D2E/DX2                !
 ! D40   D(12,11,13,22)       -119.4879         estimate D2E/DX2                !
 ! D41   D(12,11,13,23)        120.512          estimate D2E/DX2                !
 ! D42   D(14,11,13,15)        118.0551         estimate D2E/DX2                !
 ! D43   D(14,11,13,22)         -1.9449         estimate D2E/DX2                !
 ! D44   D(14,11,13,23)       -121.9449         estimate D2E/DX2                !
 ! D45   D(9,11,14,16)           0.5121         estimate D2E/DX2                !
 ! D46   D(9,11,14,17)        -179.4879         estimate D2E/DX2                !
 ! D47   D(12,11,14,16)       -120.0            estimate D2E/DX2                !
 ! D48   D(12,11,14,17)         60.0            estimate D2E/DX2                !
 ! D49   D(13,11,14,16)        122.457          estimate D2E/DX2                !
 ! D50   D(13,11,14,17)        -57.543          estimate D2E/DX2                !
 ! D51   D(11,14,17,18)          0.0            estimate D2E/DX2                !
 ! D52   D(16,14,17,18)       -180.0            estimate D2E/DX2                !
 ! D53   D(14,17,18,19)        176.6291         estimate D2E/DX2                !
 ! D54   D(14,17,18,20)        -63.3709         estimate D2E/DX2                !
 ! D55   D(14,17,18,21)         56.6291         estimate D2E/DX2                !
 ! D56   D(1,26,28,29)         -87.3467         estimate D2E/DX2                !
 ! D57   D(1,26,28,30)          32.6533         estimate D2E/DX2                !
 ! D58   D(1,26,28,31)         152.6533         estimate D2E/DX2                !
 ! D59   D(27,26,28,29)         92.6511         estimate D2E/DX2                !
 ! D60   D(27,26,28,30)       -147.3489         estimate D2E/DX2                !
 ! D61   D(27,26,28,31)        -27.3489         estimate D2E/DX2                !
 --------------------------------------------------------------------------------
 Trust Radius=3.00D-01 FncErr=1.00D-07 GrdErr=1.00D-07 EigMax=2.50D+02 EigMin=1.00D-04
 Number of steps in this run=    153 maximum allowed number of steps=    186.
 GradGradGradGradGradGradGradGradGradGradGradGradGradGradGradGradGradGrad

 Leave Link  103 at Sat Dec 28 21:00:29 2019, MaxMem=  4294967296 cpu:               2.0 elap:               0.8
 (Enter /n/sw/g16_nehalem/g16/l202.exe)
                          Input orientation:                          
 ---------------------------------------------------------------------
 Center     Atomic      Atomic             Coordinates (Angstroms)
 Number     Number       Type             X           Y           Z
 ---------------------------------------------------------------------
      1          7           0       -2.591926   -2.211987    0.000000
      2          1           0       -1.599067   -2.237515    0.116525
      3          6           0       -3.269172   -0.942171   -0.168845
      4          1           0       -3.787714   -0.931015   -1.127536
      5          6           0       -4.290418   -0.712905    0.940261
      6          6           0       -2.280514    0.214565   -0.137162
      7          1           0       -5.283287   -0.604077    0.503835
      8          8           0       -2.146954    0.955905   -1.145204
      9          7           0       -1.481654    0.465784    1.070981
     10          1           0       -1.587788   -0.123330    1.872031
     11          6           0       -0.540416    1.567039    1.101144
     12          1           0        0.204359    1.430702    0.317038
     13          6           0       -1.247039    2.899512    0.875705
     14          6           0        0.174008    1.640602    2.443035
     15          1           0       -0.841578    3.380338   -0.014524
     16          8           0       -0.085036    0.797708    3.340809
     17          8           0        1.139614    2.667552    2.683616
     18          6           0        1.256833    3.494025    1.522539
     19          1           0        1.935421    4.296645    1.723090
     20          1           0        1.626146    2.910526    0.705204
     21          1           0        0.296642    3.893315    1.270545
     22          9           0       -1.053268    3.699109    1.946032
     23          9           0       -2.569411    2.685640    0.708104
     24          9           0       -4.283508   -1.766677    1.784072
     25          9           0       -3.972967    0.409326    1.620206
     26          6           0       -3.364370   -3.462679    0.000000
     27          8           0       -4.583603   -3.478884   -0.139700
     28          6           0       -2.542017   -4.751247    0.186893
     29          1           0       -2.197108   -5.095550   -0.765679
     30          1           0       -1.702334   -4.549976    0.818813
     31          1           0       -3.155233   -5.503517    0.637398
 ---------------------------------------------------------------------
                    Distance matrix (angstroms):
                    1          2          3          4          5
     1  N    0.000000
     2  H    1.000000   0.000000
     3  C    1.449000   2.132745   0.000000
     4  H    2.083780   2.836338   1.090000   0.000000
     5  C    2.452797   3.200992   1.524999   2.139175   0.000000
     6  C    2.450295   2.557621   1.522000   2.136550   2.461859
     7  H    3.175318   4.048655   2.150225   2.237186   1.090000
     8  O    3.397798   3.477078   2.411502   2.500574   3.424693
     9  N    3.090334   2.869250   2.591279   3.478856   3.048860
    10  H    2.979142   2.748037   2.768164   3.806499   2.918904
    11  C    4.438722   4.069993   3.918561   4.663929   4.391644
    12  H    4.603141   4.092477   4.234622   4.858102   5.018613
    13  C    5.357519   5.204741   4.465271   5.014075   4.723968
    14  C    5.334909   4.857595   5.034692   5.920932   5.265778
    15  H    5.859867   5.670206   4.959951   5.339128   5.436980
    16  O    5.148181   4.679837   5.048126   6.055115   5.072457
    17  O    6.703438   6.176569   6.372129   7.193965   6.629631
    18  C    7.049089   6.556187   6.559371   7.214661   6.986365
    19  H    8.113458   7.600585   7.623149   8.258860   8.029288
    20  H    6.673050   6.103349   6.290578   6.886672   6.941918
    21  H    6.872615   6.520165   6.178091   6.760690   6.509030
    22  F    6.410582   6.236064   5.560972   6.193711   5.563863
    23  F    4.948603   5.052623   3.797331   4.234859   3.816526
    24  F    2.498532   3.195094   2.350015   3.069463   1.350000
    25  F    3.376925   3.860340   2.350016   3.062828   1.350000
    26  C    1.470000   2.151953   2.527950   2.803549   3.050068
    27  O    2.364597   3.242546   2.857182   2.846208   2.983776
    28  C    2.546617   2.685694   3.894144   4.227725   4.464603
    29  H    3.009499   3.050296   4.330830   4.472619   5.147792
    30  H    2.632113   2.418956   4.055454   4.608033   4.629908
    31  H    3.399671   3.655097   4.633453   4.941943   4.932579
                    6          7          8          9         10
     6  C    0.000000
     7  H    3.177687   0.000000
     8  O    1.258400   3.871621   0.000000
     9  N    1.470000   3.989821   2.365231   0.000000
    10  H    2.151953   3.969860   3.252864   1.000000   0.000000
    11  C    2.527950   5.250271   2.828520   1.449000   2.132745
    12  H    2.803549   5.855721   2.809316   2.083780   2.836338
    13  C    3.050068   5.357678   2.944746   2.452797   3.200992
    14  C    3.836102   6.211372   4.327948   2.450295   2.557621
    15  H    3.479612   5.989410   2.976629   3.175318   4.048655
    16  O    4.154090   6.085658   4.939721   2.685672   2.294315
    17  O    5.066677   7.530514   5.328332   3.784101   3.985776
    18  C    5.101206   7.784945   5.014447   4.107732   4.615113
    19  H    6.156137   8.809846   6.004452   5.174664   5.654322
    20  H    4.820766   7.754563   4.634743   3.971017   4.571120
    21  H    4.707078   7.207634   4.520552   3.866541   4.477309
    22  F    4.241212   6.204063   4.275167   3.376925   3.860340
    23  F    2.627575   4.269553   2.570059   2.498532   3.195094
    24  F    3.410050   1.997549   4.534089   3.652775   3.158359
    25  F    2.447584   1.997550   3.358654   2.551759   2.456871
    26  C    3.836102   3.479612   4.724138   4.486027   4.220427
    27  O    4.352676   3.027906   5.159036   5.162193   4.927648
    28  C    4.983240   4.981369   5.873852   5.396609   5.016758
    29  H    5.347832   5.595489   6.063552   5.900308   5.661428
    30  H    4.893775   5.337842   5.862574   5.026941   4.551658
    31  H    5.836226   5.343311   6.776314   6.214613   5.738259
                   11         12         13         14         15
    11  C    0.000000
    12  H    1.090000   0.000000
    13  C    1.524999   2.139175   0.000000
    14  C    1.522000   2.136550   2.461859   0.000000
    15  H    2.150225   2.237186   1.090000   3.177687   0.000000
    16  O    2.411502   3.102841   3.441594   1.258400   4.301232
    17  O    2.556921   2.829345   3.003075   1.430000   3.422447
    18  C    2.668512   2.611176   2.653529   2.335595   2.603616
    19  H    3.737290   3.631417   3.577442   3.267333   3.401564
    20  H    2.579868   2.088548   2.878261   2.596434   2.613119
    21  H    2.478089   2.642377   1.877896   2.542536   1.791673
    22  F    2.350016   3.062828   1.350000   2.447584   1.997550
    23  F    2.350015   3.069463   1.350000   3.410050   1.997549
    24  F    5.058734   5.702312   5.640797   5.649179   6.447759
    25  F    3.659526   4.493496   3.766430   4.403463   4.615718
    26  C    5.872419   6.064777   6.762206   6.673231   7.293256
    27  O    6.583950   6.872934   7.269639   7.450806   7.814560
    28  C    6.690515   6.765797   7.790093   7.302239   8.309918
    29  H    7.114756   7.037847   8.216922   7.829035   8.616402
    30  H    6.232787   6.297282   7.463606   6.669484   8.020302
    31  H    7.552820   7.711866   8.620261   8.085951   9.203309
                   16         17         18         19         20
    16  O    0.000000
    17  O    2.329803   0.000000
    18  C    3.518074   1.430000   0.000000
    19  H    4.352220   2.051796   1.070000   0.000000
    20  H    3.786629   2.051796   1.070000   1.747303   0.000000
    21  H    3.743589   2.051796   1.070000   1.747303   1.747303
    22  F    3.361697   2.533154   2.357535   3.055980   3.056268
    23  F    4.082591   4.202362   3.994613   4.890710   4.201581
    24  F    5.160103   7.062705   7.644525   8.685773   7.613422
    25  F    4.269347   5.689368   6.072538   7.073251   6.200266
    26  C    6.329766   8.066437   8.489369   9.553216   8.125288
    27  O    7.116199   8.860304   9.246361  10.316322   8.949827
    28  C    6.839214   8.650237   9.176041  10.211351   8.737562
    29  H    7.486961   9.126725   9.536585  10.558650   8.993221
    30  H    6.129751   7.977899   8.599876   9.608001   8.170115
    31  H    7.512655   9.455109  10.060098  11.096696   9.677929
                   21         22         23         24         25
    21  H    0.000000
    22  F    1.521925   0.000000
    23  F    3.160551   2.204149   0.000000
    24  F    7.299109   6.351023   4.890702   0.000000
    25  F    5.521776   4.410610   2.825510   2.204149   0.000000
    26  C    8.314322   7.772994   6.239808   2.627575   4.241212
    27  O    8.952927   8.266627   6.540421   2.592800   4.311417
    28  C    9.163010   8.758964   7.455180   3.806761   5.543781
    29  H    9.548021   9.274038   7.928277   4.683556   6.256978
    30  H    8.688449   8.351007   7.288225   3.916751   5.512955
    31  H   10.030792   9.529906   8.210389   4.068395   6.049488
                   26         27         28         29         30
    26  C    0.000000
    27  O    1.227317   0.000000
    28  C    1.540000   2.427683   0.000000
    29  H    2.148263   2.949714   1.070000   0.000000
    30  H    2.148263   3.219890   1.070000   1.747303   0.000000
    31  H    2.148263   2.596779   1.070000   1.747303   1.747303
                   31
    31  H    0.000000
 Stoichiometry    C9H12F4N2O4
 Framework group  C1[X(C9H12F4N2O4)]
 Deg. of freedom    87
 Full point group                 C1      NOp   1
 Largest Abelian subgroup         C1      NOp   1
 Largest concise Abelian subgroup C1      NOp   1
                         Standard orientation:                         
 ---------------------------------------------------------------------
 Center     Atomic      Atomic             Coordinates (Angstroms)
 Number     Number       Type             X           Y           Z
 ---------------------------------------------------------------------
      1          7           0        2.570092    0.594151   -0.676569
      2          1           0        2.053242    1.401995   -0.959861
      3          6           0        1.905137   -0.688231   -0.562845
      4          1           0        2.373343   -1.402222   -1.240413
      5          6           0        1.999732   -1.231518    0.858954
      6          6           0        0.430040   -0.574124   -0.919992
      7          1           0        2.517612   -2.190574    0.848292
      8          8           0       -0.032188   -1.217422   -1.897788
      9          7           0       -0.454708    0.287553   -0.122725
     10          1           0       -0.087395    0.798756    0.654290
     11          6           0       -1.859054    0.396186   -0.462743
     12          1           0       -1.959012    0.783175   -1.476817
     13          6           0       -2.548346   -0.962165   -0.389370
     14          6           0       -2.582376    1.336907    0.490323
     15          1           0       -2.960981   -1.214033   -1.366301
     16          8           0       -1.947156    1.905639    1.415856
     17          8           0       -3.983816    1.574479    0.334038
     18          6           0       -4.474617    0.821025   -0.777863
     19          1           0       -5.533387    0.952896   -0.858577
     20          1           0       -4.003223    1.162167   -1.675810
     21          1           0       -4.254482   -0.215761   -0.631182
     22          9           0       -3.544691   -0.913365    0.520253
     23          9           0       -1.651996   -1.903204   -0.023987
     24          9           0        2.684102   -0.359824    1.629855
     25          9           0        0.757812   -1.397018    1.361692
     26          6           0        4.004453    0.707587   -0.375502
     27          8           0        4.677779   -0.256678   -0.024600
     28          6           0        4.606085    2.116790   -0.529727
     29          1           0        4.921602    2.261082   -1.541917
     30          1           0        3.867718    2.849295   -0.278428
     31          1           0        5.446953    2.219114    0.124009
 ---------------------------------------------------------------------
 Rotational constants (GHZ):           0.7663206           0.1953244           0.1833023
 Leave Link  202 at Sat Dec 28 21:00:30 2019, MaxMem=  4294967296 cpu:               4.4 elap:               1.5
 (Enter /n/sw/g16_nehalem/g16/l301.exe)
 Standard basis: VSTO-6G (5D, 7F)
 Ernie: Thresh=  0.10000D-02 Tol=  0.10000D-05 Strict=F.
 EHB=        -0.006589871 Number of Hydrogen Bonds=   612
  NNHCO=     0 NNPyr=     0 NCTC=     0               EPep=         0.000000000
    EC=       829.217498700  ECS=         6.269937183   EG=         0.877845918
   EHC=         0.002166119  EAt=      -167.280249961  AtH=         4.307552493
 EPDDG=         0.000000000  ECC=       836.367447919 EAtT=       171.587802454
  EHyb=        -0.006589871
 There are    88 symmetry adapted cartesian basis functions of A   symmetry.
 There are    88 symmetry adapted basis functions of A   symmetry.
    88 basis functions,   528 primitive gaussians,    88 cartesian basis functions
    55 alpha electrons       55 beta electrons
       nuclear repulsion energy      1007.9486605019 Hartrees.
 IExCor=    0 DFT=F Ex=HF Corr=None ExCW=0 ScaHFX=  1.000000
 ScaDFX=  1.000000  1.000000  1.000000  1.000000 ScalE2=  1.000000  1.000000
 IRadAn=      5 IRanWt=     -1 IRanGd=            0 ICorTp=0 IEmpDi=251
 Integral buffers will be    131072 words long.
 Regular integral format.
 Two-electron integral symmetry is turned off.
 R6Disp:  PM7 Dispersion energy=       -0.0092470339 Hartrees.
 Nuclear repulsion after empirical dispersion term =     1007.9394134680 Hartrees.
 Leave Link  301 at Sat Dec 28 21:00:31 2019, MaxMem=  4294967296 cpu:               2.3 elap:               1.0
 (Enter /n/sw/g16_nehalem/g16/l302.exe)
 Do NDO integrals.
 NPDir=0 NMtPBC=     1 NCelOv=     1 NCel=       1 NClECP=     1 NCelD=      1
         NCelK=      1 NCelE2=     1 NClLst=     1 CellRange=     0.0.
 One-electron integrals computed using PRISM.
 NBasis=    88 RedAO= F EigKep=  0.00D+00  NBF=    88
 NBsUse=    88 1.00D-04 EigRej=  0.00D+00 NBFU=    88
 Leave Link  302 at Sat Dec 28 21:00:35 2019, MaxMem=  4294967296 cpu:              11.9 elap:               3.7
 (Enter /n/sw/g16_nehalem/g16/l303.exe)
 DipDrv:  MaxL=1.
 Leave Link  303 at Sat Dec 28 21:00:36 2019, MaxMem=  4294967296 cpu:               3.5 elap:               1.3
 (Enter /n/sw/g16_nehalem/g16/l401.exe)
 Simple Huckel Guess.
 JPrj=0 DoOrth=F DoCkMO=F.
 Leave Link  401 at Sat Dec 28 21:00:40 2019, MaxMem=  4294967296 cpu:              12.9 elap:               4.2
 (Enter /n/sw/g16_nehalem/g16/l502.exe)
 Keep J ints in memory in canonical form, NReq=880465.
 FoFCou: FMM=F IPFlag=           0 FMFlag=           0 FMFlg1=           0
         NFxFlg=           0 DoJE=F BraDBF=F KetDBF=F FulRan=T
         wScrn=  0.000000 ICntrl=       600 IOpCl=  2 I1Cent=           0 NGrid=           0
         NMat0=    1 NMatS0=    202 NMatT0=    0 NMatD0=    1 NMtDS0=    0 NMtDT0=    0
 Symmetry not used in FoFCou.
 Two-electron integral symmetry not used.
 Closed shell SCF:
 Using DIIS extrapolation, IDIIS=  1040.
 Overlap will be assumed to be unity.
 NGot=  4294967296 LenX=  4294869448 LenY=  4294861263
 Requested convergence on RMS density matrix=1.00D-08 within 128 cycles.
 Requested convergence on MAX density matrix=1.00D-06.
 Requested convergence on             energy=1.00D-06.
 No special actions if energy rises.

 Cycle   1  Pass 1  IDiag  1:
 E=  1.07566936890999    
 DIIS: error= 8.58D-02 at cycle   1 NSaved=   1.
 NSaved= 1 IEnMin= 1 EnMin=  1.07566936890999     IErMin= 1 ErrMin= 8.58D-02
 ErrMax= 8.58D-02  0.00D+00 EMaxC= 1.00D-01 BMatC= 4.93D-01 BMatP= 4.93D-01
 IDIUse=3 WtCom= 1.42D-01 WtEn= 8.58D-01
 Coeff-Com:  0.100D+01
 Coeff-En:   0.100D+01
 Coeff:      0.100D+01
 GapD=    2.000 DampG=2.000 DampE=0.500 DampFc=1.0000 IDamp=-1.
 RMSDP=1.16D-02 MaxDP=1.77D-01              OVMax= 0.00D+00

 Cycle   2  Pass 1  IDiag  1:
 E=-0.236543880105273     Delta-E=       -1.312213249015 Rises=F Damp=F
 DIIS: error= 2.31D-02 at cycle   2 NSaved=   2.
 NSaved= 2 IEnMin= 2 EnMin=-0.236543880105273     IErMin= 2 ErrMin= 2.31D-02
 ErrMax= 2.31D-02  0.00D+00 EMaxC= 1.00D-01 BMatC= 6.02D-02 BMatP= 4.93D-01
 IDIUse=3 WtCom= 7.69D-01 WtEn= 2.31D-01
 Coeff-Com: -0.401D+00 0.140D+01
 Coeff-En:   0.000D+00 0.100D+01
 Coeff:     -0.309D+00 0.131D+01
 RMSDP=5.87D-03 MaxDP=6.97D-02 DE=-1.31D+00 OVMax= 0.00D+00

 Cycle   3  Pass 1  IDiag  1:
 E=-0.445611099371263     Delta-E=       -0.209067219266 Rises=F Damp=F
 DIIS: error= 6.04D-03 at cycle   3 NSaved=   3.
 NSaved= 3 IEnMin= 3 EnMin=-0.445611099371263     IErMin= 3 ErrMin= 6.04D-03
 ErrMax= 6.04D-03  0.00D+00 EMaxC= 1.00D-01 BMatC= 3.77D-03 BMatP= 6.02D-02
 IDIUse=3 WtCom= 9.40D-01 WtEn= 6.04D-02
 Coeff-Com:  0.138D+00-0.603D+00 0.146D+01
 Coeff-En:   0.000D+00 0.000D+00 0.100D+01
 Coeff:      0.130D+00-0.567D+00 0.144D+01
 RMSDP=2.02D-03 MaxDP=2.72D-02 DE=-2.09D-01 OVMax= 0.00D+00

 Cycle   4  Pass 1  IDiag  3:
 E=-0.465204200643257     Delta-E=       -0.019593101272 Rises=F Damp=F
 DIIS: error= 2.03D-03 at cycle   4 NSaved=   4.
 NSaved= 4 IEnMin= 4 EnMin=-0.465204200643257     IErMin= 4 ErrMin= 2.03D-03
 ErrMax= 2.03D-03  0.00D+00 EMaxC= 1.00D-01 BMatC= 3.85D-04 BMatP= 3.77D-03
 IDIUse=3 WtCom= 9.80D-01 WtEn= 2.03D-02
 Coeff-Com: -0.305D-01 0.150D+00-0.670D+00 0.155D+01
 Coeff-En:   0.000D+00 0.000D+00 0.000D+00 0.100D+01
 Coeff:     -0.299D-01 0.147D+00-0.656D+00 0.154D+01
 Gap=     0.374 Goal=   None    Shift=    0.000
 RMSDP=9.03D-04 MaxDP=1.28D-02 DE=-1.96D-02 OVMax= 1.34D-02

 Cycle   5  Pass 1  IDiag  3:
 E=-0.467825112299465     Delta-E=       -0.002620911656 Rises=F Damp=F
 DIIS: error= 7.75D-04 at cycle   5 NSaved=   5.
 NSaved= 5 IEnMin= 5 EnMin=-0.467825112299465     IErMin= 5 ErrMin= 7.75D-04
 ErrMax= 7.75D-04  0.00D+00 EMaxC= 1.00D-01 BMatC= 3.05D-05 BMatP= 3.85D-04
 IDIUse=3 WtCom= 9.92D-01 WtEn= 7.75D-03
 Coeff-Com:  0.314D-02-0.158D-01 0.165D+00-0.654D+00 0.150D+01
 Coeff-En:   0.000D+00 0.000D+00 0.000D+00 0.000D+00 0.100D+01
 Coeff:      0.311D-02-0.157D-01 0.163D+00-0.649D+00 0.150D+01
 Gap=     0.374 Goal=   None    Shift=    0.000
 RMSDP=2.68D-04 MaxDP=4.44D-03 DE=-2.62D-03 OVMax= 4.05D-03

 Cycle   6  Pass 1  IDiag  3:
 E=-0.468043914911505     Delta-E=       -0.000218802612 Rises=F Damp=F
 DIIS: error= 2.51D-04 at cycle   6 NSaved=   6.
 NSaved= 6 IEnMin= 6 EnMin=-0.468043914911505     IErMin= 6 ErrMin= 2.51D-04
 ErrMax= 2.51D-04  0.00D+00 EMaxC= 1.00D-01 BMatC= 2.90D-06 BMatP= 3.05D-05
 IDIUse=3 WtCom= 9.97D-01 WtEn= 2.51D-03
 Coeff-Com:  0.145D-02-0.643D-02-0.288D-01 0.213D+00-0.812D+00 0.163D+01
 Coeff-En:   0.000D+00 0.000D+00 0.000D+00 0.000D+00 0.000D+00 0.100D+01
 Coeff:      0.145D-02-0.641D-02-0.287D-01 0.213D+00-0.810D+00 0.163D+01
 Gap=     0.374 Goal=   None    Shift=    0.000
 RMSDP=9.33D-05 MaxDP=1.82D-03 DE=-2.19D-04 OVMax= 1.30D-03

 Cycle   7  Pass 1  IDiag  3:
 E=-0.468065460906473     Delta-E=       -0.000021545995 Rises=F Damp=F
 DIIS: error= 5.58D-05 at cycle   7 NSaved=   7.
 NSaved= 7 IEnMin= 7 EnMin=-0.468065460906473     IErMin= 7 ErrMin= 5.58D-05
 ErrMax= 5.58D-05  0.00D+00 EMaxC= 1.00D-01 BMatC= 1.47D-07 BMatP= 2.90D-06
 IDIUse=1 WtCom= 1.00D+00 WtEn= 0.00D+00
 Coeff-Com: -0.432D-03 0.211D-02 0.459D-02-0.446D-01 0.212D+00-0.618D+00
 Coeff-Com:  0.144D+01
 Coeff:     -0.432D-03 0.211D-02 0.459D-02-0.446D-01 0.212D+00-0.618D+00
 Coeff:      0.144D+01
 Gap=     0.374 Goal=   None    Shift=    0.000
 RMSDP=1.89D-05 MaxDP=3.68D-04 DE=-2.15D-05 OVMax= 2.80D-04

 Cycle   8  Pass 1  IDiag  3:
 E=-0.468066465468496     Delta-E=       -0.000001004562 Rises=F Damp=F
 DIIS: error= 1.47D-05 at cycle   8 NSaved=   8.
 NSaved= 8 IEnMin= 8 EnMin=-0.468066465468496     IErMin= 8 ErrMin= 1.47D-05
 ErrMax= 1.47D-05  0.00D+00 EMaxC= 1.00D-01 BMatC= 1.08D-08 BMatP= 1.47D-07
 IDIUse=1 WtCom= 1.00D+00 WtEn= 0.00D+00
 Coeff-Com:  0.118D-04-0.163D-03-0.232D-02 0.127D-01-0.577D-01 0.196D+00
 Coeff-Com: -0.669D+00 0.152D+01
 Coeff:      0.118D-04-0.163D-03-0.232D-02 0.127D-01-0.577D-01 0.196D+00
 Coeff:     -0.669D+00 0.152D+01
 Gap=     0.374 Goal=   None    Shift=    0.000
 RMSDP=5.06D-06 MaxDP=8.78D-05 DE=-1.00D-06 OVMax= 9.51D-05

 Cycle   9  Pass 1  IDiag  3:
 E=-0.468066540862083     Delta-E=       -0.000000075394 Rises=F Damp=F
 DIIS: error= 2.90D-06 at cycle   9 NSaved=   9.
 NSaved= 9 IEnMin= 9 EnMin=-0.468066540862083     IErMin= 9 ErrMin= 2.90D-06
 ErrMax= 2.90D-06  0.00D+00 EMaxC= 1.00D-01 BMatC= 8.95D-10 BMatP= 1.08D-08
 IDIUse=1 WtCom= 1.00D+00 WtEn= 0.00D+00
 Coeff-Com: -0.132D-04 0.956D-04 0.662D-03-0.360D-02 0.175D-01-0.656D-01
 Coeff-Com:  0.254D+00-0.794D+00 0.159D+01
 Coeff:     -0.132D-04 0.956D-04 0.662D-03-0.360D-02 0.175D-01-0.656D-01
 Coeff:      0.254D+00-0.794D+00 0.159D+01
 Gap=     0.374 Goal=   None    Shift=    0.000
 RMSDP=1.59D-06 MaxDP=2.05D-05 DE=-7.54D-08 OVMax= 3.16D-05

 Cycle  10  Pass 1  IDiag  3:
 E=-0.468066547545504     Delta-E=       -0.000000006683 Rises=F Damp=F
 DIIS: error= 7.28D-07 at cycle  10 NSaved=  10.
 NSaved=10 IEnMin=10 EnMin=-0.468066547545504     IErMin=10 ErrMin= 7.28D-07
 ErrMax= 7.28D-07  0.00D+00 EMaxC= 1.00D-01 BMatC= 6.53D-11 BMatP= 8.95D-10
 IDIUse=1 WtCom= 1.00D+00 WtEn= 0.00D+00
 Coeff-Com:  0.373D-05-0.257D-04-0.703D-04 0.269D-03-0.218D-02 0.116D-01
 Coeff-Com: -0.568D-01 0.227D+00-0.685D+00 0.151D+01
 Coeff:      0.373D-05-0.257D-04-0.703D-04 0.269D-03-0.218D-02 0.116D-01
 Coeff:     -0.568D-01 0.227D+00-0.685D+00 0.151D+01
 Gap=     0.374 Goal=   None    Shift=    0.000
 RMSDP=4.20D-07 MaxDP=5.76D-06 DE=-6.68D-09 OVMax= 6.71D-06

 Cycle  11  Pass 1  IDiag  3:
 E=-0.468066548014804     Delta-E=       -0.000000000469 Rises=F Damp=F
 DIIS: error= 2.12D-07 at cycle  11 NSaved=  11.
 NSaved=11 IEnMin=11 EnMin=-0.468066548014804     IErMin=11 ErrMin= 2.12D-07
 ErrMax= 2.12D-07  0.00D+00 EMaxC= 1.00D-01 BMatC= 4.86D-12 BMatP= 6.53D-11
 IDIUse=1 WtCom= 1.00D+00 WtEn= 0.00D+00
 Coeff-Com: -0.140D-05 0.920D-05-0.305D-05 0.416D-04 0.194D-03-0.206D-02
 Coeff-Com:  0.118D-01-0.516D-01 0.183D+00-0.617D+00 0.148D+01
 Coeff:     -0.140D-05 0.920D-05-0.305D-05 0.416D-04 0.194D-03-0.206D-02
 Coeff:      0.118D-01-0.516D-01 0.183D+00-0.617D+00 0.148D+01
 Gap=     0.374 Goal=   None    Shift=    0.000
 RMSDP=1.08D-07 MaxDP=1.42D-06 DE=-4.69D-10 OVMax= 2.18D-06

 Cycle  12  Pass 1  IDiag  3:
 E=-0.468066548053571     Delta-E=       -0.000000000039 Rises=F Damp=F
 DIIS: error= 6.99D-08 at cycle  12 NSaved=  12.
 NSaved=12 IEnMin=12 EnMin=-0.468066548053571     IErMin=12 ErrMin= 6.99D-08
 ErrMax= 6.99D-08  0.00D+00 EMaxC= 1.00D-01 BMatC= 4.59D-13 BMatP= 4.86D-12
 IDIUse=1 WtCom= 1.00D+00 WtEn= 0.00D+00
 Coeff-Com:  0.441D-06-0.290D-05 0.743D-05-0.511D-04 0.814D-04 0.254D-03
 Coeff-Com: -0.250D-02 0.126D-01-0.511D-01 0.215D+00-0.775D+00 0.160D+01
 Coeff:      0.441D-06-0.290D-05 0.743D-05-0.511D-04 0.814D-04 0.254D-03
 Coeff:     -0.250D-02 0.126D-01-0.511D-01 0.215D+00-0.775D+00 0.160D+01
 Gap=     0.374 Goal=   None    Shift=    0.000
 RMSDP=3.58D-08 MaxDP=4.97D-07 DE=-3.88D-11 OVMax= 9.58D-07

 Cycle  13  Pass 1  IDiag  3:
 E=-0.468066548051070     Delta-E=        0.000000000003 Rises=F Damp=F
 DIIS: error= 2.39D-08 at cycle  13 NSaved=  13.
 NSaved=13 IEnMin=12 EnMin=-0.468066548053571     IErMin=13 ErrMin= 2.39D-08
 ErrMax= 2.39D-08  0.00D+00 EMaxC= 1.00D-01 BMatC= 4.25D-14 BMatP= 4.59D-13
 IDIUse=1 WtCom= 1.00D+00 WtEn= 0.00D+00
 Coeff-Com: -0.442D-07 0.379D-06-0.325D-05 0.228D-04-0.637D-04 0.750D-04
 Coeff-Com:  0.160D-03-0.160D-02 0.827D-02-0.451D-01 0.227D+00-0.723D+00
 Coeff-Com:  0.153D+01
 Coeff:     -0.442D-07 0.379D-06-0.325D-05 0.228D-04-0.637D-04 0.750D-04
 Coeff:      0.160D-03-0.160D-02 0.827D-02-0.451D-01 0.227D+00-0.723D+00
 Coeff:      0.153D+01
 Gap=     0.374 Goal=   None    Shift=    0.000
 RMSDP=1.08D-08 MaxDP=1.60D-07 DE= 2.50D-12 OVMax= 3.41D-07

 Cycle  14  Pass 1  IDiag  3:
 E=-0.468066548049819     Delta-E=        0.000000000001 Rises=F Damp=F
 DIIS: error= 8.38D-09 at cycle  14 NSaved=  14.
 NSaved=14 IEnMin=12 EnMin=-0.468066548053571     IErMin=14 ErrMin= 8.38D-09
 ErrMax= 8.38D-09  0.00D+00 EMaxC= 1.00D-01 BMatC= 4.95D-15 BMatP= 4.25D-14
 IDIUse=1 WtCom= 1.00D+00 WtEn= 0.00D+00
 Coeff-Com:  0.138D-07-0.850D-07 0.743D-06-0.510D-05 0.147D-04-0.212D-04
 Coeff-Com: -0.106D-04 0.212D-03-0.105D-02 0.674D-02-0.460D-01 0.197D+00
 Coeff-Com: -0.714D+00 0.156D+01
 Coeff:      0.138D-07-0.850D-07 0.743D-06-0.510D-05 0.147D-04-0.212D-04
 Coeff:     -0.106D-04 0.212D-03-0.105D-02 0.674D-02-0.460D-01 0.197D+00
 Coeff:     -0.714D+00 0.156D+01
 Gap=     0.374 Goal=   None    Shift=    0.000
 RMSDP=3.93D-09 MaxDP=6.80D-08 DE= 1.25D-12 OVMax= 1.33D-07

 Cycle  15  Pass 2  IDiag  1:
 SCF Done:  E(RPM7) = -0.468066548050     A.U. after   15 cycles
            NFock= 14  Conv=0.39D-08     -V/T= 0.9984
 KE=-2.848612330184D+02 PE=-1.649089835151D+03 EE= 9.255435881533D+02
 Leave Link  502 at Sat Dec 28 21:01:08 2019, MaxMem=  4294967296 cpu:              94.6 elap:              28.0
 (Enter /n/sw/g16_nehalem/g16/l601.exe)
 Copying SCF densities to generalized density rwf, IOpCl= 0 IROHF=0.

 **********************************************************************

            Population analysis using the SCF density.

 **********************************************************************

 Orbital symmetries:
       Occupied  (A) (A) (A) (A) (A) (A) (A) (A) (A) (A) (A) (A)
                 (A) (A) (A) (A) (A) (A) (A) (A) (A) (A) (A) (A)
                 (A) (A) (A) (A) (A) (A) (A) (A) (A) (A) (A) (A)
                 (A) (A) (A) (A) (A) (A) (A) (A) (A) (A) (A) (A)
                 (A) (A) (A) (A) (A) (A) (A)
       Virtual   (A) (A) (A) (A) (A) (A) (A) (A) (A) (A) (A) (A)
                 (A) (A) (A) (A) (A) (A) (A) (A) (A) (A) (A) (A)
                 (A) (A) (A) (A) (A) (A) (A) (A) (A)
 The electronic state is 1-A.
 Alpha  occ. eigenvalues --   -1.54222  -1.52428  -1.52286  -1.51545  -1.37000
 Alpha  occ. eigenvalues --   -1.34375  -1.15691  -1.12576  -1.11957  -1.10746
 Alpha  occ. eigenvalues --   -1.05084  -1.02748  -0.97769  -0.93629  -0.87992
 Alpha  occ. eigenvalues --   -0.85577  -0.77989  -0.77192  -0.76446  -0.72037
 Alpha  occ. eigenvalues --   -0.69844  -0.69480  -0.69075  -0.67275  -0.65917
 Alpha  occ. eigenvalues --   -0.64884  -0.64407  -0.63228  -0.62375  -0.60955
 Alpha  occ. eigenvalues --   -0.60169  -0.59493  -0.58822  -0.58341  -0.57852
 Alpha  occ. eigenvalues --   -0.57266  -0.57101  -0.55578  -0.55449  -0.54455
 Alpha  occ. eigenvalues --   -0.53734  -0.53243  -0.52590  -0.51794  -0.50941
 Alpha  occ. eigenvalues --   -0.50644  -0.49562  -0.49167  -0.48512  -0.42071
 Alpha  occ. eigenvalues --   -0.41785  -0.41054  -0.40337  -0.38432  -0.38071
 Alpha virt. eigenvalues --   -0.00714  -0.00128   0.01065   0.02403   0.02997
 Alpha virt. eigenvalues --    0.03931   0.05254   0.06996   0.07618   0.07800
 Alpha virt. eigenvalues --    0.08547   0.08773   0.09046   0.10183   0.10658
 Alpha virt. eigenvalues --    0.12327   0.13207   0.13578   0.14372   0.14899
 Alpha virt. eigenvalues --    0.15681   0.15924   0.16247   0.16711   0.17027
 Alpha virt. eigenvalues --    0.17332   0.17580   0.17993   0.18910   0.20559
 Alpha virt. eigenvalues --    0.21431   0.22236   0.22512
          Condensed to atoms (all electrons):
               1          2          3          4          5          6
     1  N    5.669740   0.000000   0.000000   0.000000   0.000000   0.000000
     2  H    0.000000   0.677120   0.000000   0.000000   0.000000   0.000000
     3  C    0.000000   0.000000   4.028104   0.000000   0.000000   0.000000
     4  H    0.000000   0.000000   0.000000   0.807447   0.000000   0.000000
     5  C    0.000000   0.000000   0.000000   0.000000   3.761782   0.000000
     6  C    0.000000   0.000000   0.000000   0.000000   0.000000   3.447757
     7  H    0.000000   0.000000   0.000000   0.000000   0.000000   0.000000
     8  O    0.000000   0.000000   0.000000   0.000000   0.000000   0.000000
     9  N    0.000000   0.000000   0.000000   0.000000   0.000000   0.000000
    10  H    0.000000   0.000000   0.000000   0.000000   0.000000   0.000000
    11  C    0.000000   0.000000   0.000000   0.000000   0.000000   0.000000
    12  H    0.000000   0.000000   0.000000   0.000000   0.000000   0.000000
    13  C    0.000000   0.000000   0.000000   0.000000   0.000000   0.000000
    14  C    0.000000   0.000000   0.000000   0.000000   0.000000   0.000000
    15  H    0.000000   0.000000   0.000000   0.000000   0.000000   0.000000
    16  O    0.000000   0.000000   0.000000   0.000000   0.000000   0.000000
    17  O    0.000000   0.000000   0.000000   0.000000   0.000000   0.000000
    18  C    0.000000   0.000000   0.000000   0.000000   0.000000   0.000000
    19  H    0.000000   0.000000   0.000000   0.000000   0.000000   0.000000
    20  H    0.000000   0.000000   0.000000   0.000000   0.000000   0.000000
    21  H    0.000000   0.000000   0.000000   0.000000   0.000000   0.000000
    22  F    0.000000   0.000000   0.000000   0.000000   0.000000   0.000000
    23  F    0.000000   0.000000   0.000000   0.000000   0.000000   0.000000
    24  F    0.000000   0.000000   0.000000   0.000000   0.000000   0.000000
    25  F    0.000000   0.000000   0.000000   0.000000   0.000000   0.000000
    26  C    0.000000   0.000000   0.000000   0.000000   0.000000   0.000000
    27  O    0.000000   0.000000   0.000000   0.000000   0.000000   0.000000
    28  C    0.000000   0.000000   0.000000   0.000000   0.000000   0.000000
    29  H    0.000000   0.000000   0.000000   0.000000   0.000000   0.000000
    30  H    0.000000   0.000000   0.000000   0.000000   0.000000   0.000000
    31  H    0.000000   0.000000   0.000000   0.000000   0.000000   0.000000
               7          8          9         10         11         12
     1  N    0.000000   0.000000   0.000000   0.000000   0.000000   0.000000
     2  H    0.000000   0.000000   0.000000   0.000000   0.000000   0.000000
     3  C    0.000000   0.000000   0.000000   0.000000   0.000000   0.000000
     4  H    0.000000   0.000000   0.000000   0.000000   0.000000   0.000000
     5  C    0.000000   0.000000   0.000000   0.000000   0.000000   0.000000
     6  C    0.000000   0.000000   0.000000   0.000000   0.000000   0.000000
     7  H    0.841297   0.000000   0.000000   0.000000   0.000000   0.000000
     8  O    0.000000   6.484857   0.000000   0.000000   0.000000   0.000000
     9  N    0.000000   0.000000   5.603411   0.000000   0.000000   0.000000
    10  H    0.000000   0.000000   0.000000   0.652733   0.000000   0.000000
    11  C    0.000000   0.000000   0.000000   0.000000   4.058857   0.000000
    12  H    0.000000   0.000000   0.000000   0.000000   0.000000   0.823639
    13  C    0.000000   0.000000   0.000000   0.000000   0.000000   0.000000
    14  C    0.000000   0.000000   0.000000   0.000000   0.000000   0.000000
    15  H    0.000000   0.000000   0.000000   0.000000   0.000000   0.000000
    16  O    0.000000   0.000000   0.000000   0.000000   0.000000   0.000000
    17  O    0.000000   0.000000   0.000000   0.000000   0.000000   0.000000
    18  C    0.000000   0.000000   0.000000   0.000000   0.000000   0.000000
    19  H    0.000000   0.000000   0.000000   0.000000   0.000000   0.000000
    20  H    0.000000   0.000000   0.000000   0.000000   0.000000   0.000000
    21  H    0.000000   0.000000   0.000000   0.000000   0.000000   0.000000
    22  F    0.000000   0.000000   0.000000   0.000000   0.000000   0.000000
    23  F    0.000000   0.000000   0.000000   0.000000   0.000000   0.000000
    24  F    0.000000   0.000000   0.000000   0.000000   0.000000   0.000000
    25  F    0.000000   0.000000   0.000000   0.000000   0.000000   0.000000
    26  C    0.000000   0.000000   0.000000   0.000000   0.000000   0.000000
    27  O    0.000000   0.000000   0.000000   0.000000   0.000000   0.000000
    28  C    0.000000   0.000000   0.000000   0.000000   0.000000   0.000000
    29  H    0.000000   0.000000   0.000000   0.000000   0.000000   0.000000
    30  H    0.000000   0.000000   0.000000   0.000000   0.000000   0.000000
    31  H    0.000000   0.000000   0.000000   0.000000   0.000000   0.000000
              13         14         15         16         17         18
     1  N    0.000000   0.000000   0.000000   0.000000   0.000000   0.000000
     2  H    0.000000   0.000000   0.000000   0.000000   0.000000   0.000000
     3  C    0.000000   0.000000   0.000000   0.000000   0.000000   0.000000
     4  H    0.000000   0.000000   0.000000   0.000000   0.000000   0.000000
     5  C    0.000000   0.000000   0.000000   0.000000   0.000000   0.000000
     6  C    0.000000   0.000000   0.000000   0.000000   0.000000   0.000000
     7  H    0.000000   0.000000   0.000000   0.000000   0.000000   0.000000
     8  O    0.000000   0.000000   0.000000   0.000000   0.000000   0.000000
     9  N    0.000000   0.000000   0.000000   0.000000   0.000000   0.000000
    10  H    0.000000   0.000000   0.000000   0.000000   0.000000   0.000000
    11  C    0.000000   0.000000   0.000000   0.000000   0.000000   0.000000
    12  H    0.000000   0.000000   0.000000   0.000000   0.000000   0.000000
    13  C    3.760387   0.000000   0.000000   0.000000   0.000000   0.000000
    14  C    0.000000   3.487898   0.000000   0.000000   0.000000   0.000000
    15  H    0.000000   0.000000   0.849385   0.000000   0.000000   0.000000
    16  O    0.000000   0.000000   0.000000   6.413226   0.000000   0.000000
    17  O    0.000000   0.000000   0.000000   0.000000   6.270563   0.000000
    18  C    0.000000   0.000000   0.000000   0.000000   0.000000   4.267953
    19  H    0.000000   0.000000   0.000000   0.000000   0.000000   0.000000
    20  H    0.000000   0.000000   0.000000   0.000000   0.000000   0.000000
    21  H    0.000000   0.000000   0.000000   0.000000   0.000000   0.000000
    22  F    0.000000   0.000000   0.000000   0.000000   0.000000   0.000000
    23  F    0.000000   0.000000   0.000000   0.000000   0.000000   0.000000
    24  F    0.000000   0.000000   0.000000   0.000000   0.000000   0.000000
    25  F    0.000000   0.000000   0.000000   0.000000   0.000000   0.000000
    26  C    0.000000   0.000000   0.000000   0.000000   0.000000   0.000000
    27  O    0.000000   0.000000   0.000000   0.000000   0.000000   0.000000
    28  C    0.000000   0.000000   0.000000   0.000000   0.000000   0.000000
    29  H    0.000000   0.000000   0.000000   0.000000   0.000000   0.000000
    30  H    0.000000   0.000000   0.000000   0.000000   0.000000   0.000000
    31  H    0.000000   0.000000   0.000000   0.000000   0.000000   0.000000
              19         20         21         22         23         24
     1  N    0.000000   0.000000   0.000000   0.000000   0.000000   0.000000
     2  H    0.000000   0.000000   0.000000   0.000000   0.000000   0.000000
     3  C    0.000000   0.000000   0.000000   0.000000   0.000000   0.000000
     4  H    0.000000   0.000000   0.000000   0.000000   0.000000   0.000000
     5  C    0.000000   0.000000   0.000000   0.000000   0.000000   0.000000
     6  C    0.000000   0.000000   0.000000   0.000000   0.000000   0.000000
     7  H    0.000000   0.000000   0.000000   0.000000   0.000000   0.000000
     8  O    0.000000   0.000000   0.000000   0.000000   0.000000   0.000000
     9  N    0.000000   0.000000   0.000000   0.000000   0.000000   0.000000
    10  H    0.000000   0.000000   0.000000   0.000000   0.000000   0.000000
    11  C    0.000000   0.000000   0.000000   0.000000   0.000000   0.000000
    12  H    0.000000   0.000000   0.000000   0.000000   0.000000   0.000000
    13  C    0.000000   0.000000   0.000000   0.000000   0.000000   0.000000
    14  C    0.000000   0.000000   0.000000   0.000000   0.000000   0.000000
    15  H    0.000000   0.000000   0.000000   0.000000   0.000000   0.000000
    16  O    0.000000   0.000000   0.000000   0.000000   0.000000   0.000000
    17  O    0.000000   0.000000   0.000000   0.000000   0.000000   0.000000
    18  C    0.000000   0.000000   0.000000   0.000000   0.000000   0.000000
    19  H    0.831348   0.000000   0.000000   0.000000   0.000000   0.000000
    20  H    0.000000   0.872973   0.000000   0.000000   0.000000   0.000000
    21  H    0.000000   0.000000   0.839035   0.000000   0.000000   0.000000
    22  F    0.000000   0.000000   0.000000   7.202832   0.000000   0.000000
    23  F    0.000000   0.000000   0.000000   0.000000   7.154956   0.000000
    24  F    0.000000   0.000000   0.000000   0.000000   0.000000   7.175058
    25  F    0.000000   0.000000   0.000000   0.000000   0.000000   0.000000
    26  C    0.000000   0.000000   0.000000   0.000000   0.000000   0.000000
    27  O    0.000000   0.000000   0.000000   0.000000   0.000000   0.000000
    28  C    0.000000   0.000000   0.000000   0.000000   0.000000   0.000000
    29  H    0.000000   0.000000   0.000000   0.000000   0.000000   0.000000
    30  H    0.000000   0.000000   0.000000   0.000000   0.000000   0.000000
    31  H    0.000000   0.000000   0.000000   0.000000   0.000000   0.000000
              25         26         27         28         29         30
     1  N    0.000000   0.000000   0.000000   0.000000   0.000000   0.000000
     2  H    0.000000   0.000000   0.000000   0.000000   0.000000   0.000000
     3  C    0.000000   0.000000   0.000000   0.000000   0.000000   0.000000
     4  H    0.000000   0.000000   0.000000   0.000000   0.000000   0.000000
     5  C    0.000000   0.000000   0.000000   0.000000   0.000000   0.000000
     6  C    0.000000   0.000000   0.000000   0.000000   0.000000   0.000000
     7  H    0.000000   0.000000   0.000000   0.000000   0.000000   0.000000
     8  O    0.000000   0.000000   0.000000   0.000000   0.000000   0.000000
     9  N    0.000000   0.000000   0.000000   0.000000   0.000000   0.000000
    10  H    0.000000   0.000000   0.000000   0.000000   0.000000   0.000000
    11  C    0.000000   0.000000   0.000000   0.000000   0.000000   0.000000
    12  H    0.000000   0.000000   0.000000   0.000000   0.000000   0.000000
    13  C    0.000000   0.000000   0.000000   0.000000   0.000000   0.000000
    14  C    0.000000   0.000000   0.000000   0.000000   0.000000   0.000000
    15  H    0.000000   0.000000   0.000000   0.000000   0.000000   0.000000
    16  O    0.000000   0.000000   0.000000   0.000000   0.000000   0.000000
    17  O    0.000000   0.000000   0.000000   0.000000   0.000000   0.000000
    18  C    0.000000   0.000000   0.000000   0.000000   0.000000   0.000000
    19  H    0.000000   0.000000   0.000000   0.000000   0.000000   0.000000
    20  H    0.000000   0.000000   0.000000   0.000000   0.000000   0.000000
    21  H    0.000000   0.000000   0.000000   0.000000   0.000000   0.000000
    22  F    0.000000   0.000000   0.000000   0.000000   0.000000   0.000000
    23  F    0.000000   0.000000   0.000000   0.000000   0.000000   0.000000
    24  F    0.000000   0.000000   0.000000   0.000000   0.000000   0.000000
    25  F    7.196124   0.000000   0.000000   0.000000   0.000000   0.000000
    26  C    0.000000   3.375969   0.000000   0.000000   0.000000   0.000000
    27  O    0.000000   0.000000   6.479526   0.000000   0.000000   0.000000
    28  C    0.000000   0.000000   0.000000   4.495409   0.000000   0.000000
    29  H    0.000000   0.000000   0.000000   0.000000   0.824350   0.000000
    30  H    0.000000   0.000000   0.000000   0.000000   0.000000   0.832956
    31  H    0.000000   0.000000   0.000000   0.000000   0.000000   0.000000
              31
     1  N    0.000000
     2  H    0.000000
     3  C    0.000000
     4  H    0.000000
     5  C    0.000000
     6  C    0.000000
     7  H    0.000000
     8  O    0.000000
     9  N    0.000000
    10  H    0.000000
    11  C    0.000000
    12  H    0.000000
    13  C    0.000000
    14  C    0.000000
    15  H    0.000000
    16  O    0.000000
    17  O    0.000000
    18  C    0.000000
    19  H    0.000000
    20  H    0.000000
    21  H    0.000000
    22  F    0.000000
    23  F    0.000000
    24  F    0.000000
    25  F    0.000000
    26  C    0.000000
    27  O    0.000000
    28  C    0.000000
    29  H    0.000000
    30  H    0.000000
    31  H    0.813310
 Mulliken charges:
               1
     1  N   -0.669740
     2  H    0.322880
     3  C   -0.028104
     4  H    0.192553
     5  C    0.238218
     6  C    0.552243
     7  H    0.158703
     8  O   -0.484857
     9  N   -0.603411
    10  H    0.347267
    11  C   -0.058857
    12  H    0.176361
    13  C    0.239613
    14  C    0.512102
    15  H    0.150615
    16  O   -0.413226
    17  O   -0.270563
    18  C   -0.267953
    19  H    0.168652
    20  H    0.127027
    21  H    0.160965
    22  F   -0.202832
    23  F   -0.154956
    24  F   -0.175058
    25  F   -0.196124
    26  C    0.624031
    27  O   -0.479526
    28  C   -0.495409
    29  H    0.175650
    30  H    0.167044
    31  H    0.186690
 Sum of Mulliken charges =   0.00000
 Mulliken charges with hydrogens summed into heavy atoms:
               1
     1  N   -0.346860
     3  C    0.164449
     5  C    0.396921
     6  C    0.552243
     8  O   -0.484857
     9  N   -0.256145
    11  C    0.117504
    13  C    0.390228
    14  C    0.512102
    16  O   -0.413226
    17  O   -0.270563
    18  C    0.188691
    22  F   -0.202832
    23  F   -0.154956
    24  F   -0.175058
    25  F   -0.196124
    26  C    0.624031
    27  O   -0.479526
    28  C    0.033976
 Charge=              0.0000 electrons
 Dipole moment (field-independent basis, Debye):
    X=             -0.8969    Y=              2.5274    Z=             -4.6154  Tot=              5.3380
 N-N= 1.007939413468D+03 E-N=-1.649089835149D+03  KE=-2.848612330184D+02
 Leave Link  601 at Sat Dec 28 21:01:12 2019, MaxMem=  4294967296 cpu:               9.4 elap:               3.1
 (Enter /n/sw/g16_nehalem/g16/l701.exe)
 ... and contract with generalized density number  0.
 Compute integral first derivatives.
 R6Disp: Adding PM7 dispersion energy 1st derivatives to the gradient.
 Leave Link  701 at Sat Dec 28 21:01:16 2019, MaxMem=  4294967296 cpu:              14.7 elap:               4.7
 (Enter /n/sw/g16_nehalem/g16/l702.exe)
 L702 exits ... SP integral derivatives will be done elsewhere.
 Leave Link  702 at Sat Dec 28 21:01:17 2019, MaxMem=  4294967296 cpu:               1.9 elap:               0.7
 (Enter /n/sw/g16_nehalem/g16/l703.exe)
 Integral derivatives from FoFJK, PRISM(SPDF).
 Compute integral first derivatives, UseDBF=F ICtDFT=           0.
 Calling FoFJK, ICntrl=      2127 FMM=F ISym2X=0 I1Cent= 0 IOpClX= 0 NMat=1 NMatS=1 NMatT=0.
 FoFJK:  IHMeth=43 ICntrl=    2127 DoSepK=F KAlg= 0 I1Cent=           0 FoldK=F
 IRaf=         0 NMat=       1 IRICut=       1 DoRegI=T DoRafI=F ISym2E= 0 IDoP0=3 IntGTp=3.
 FoFCou: FMM=F IPFlag=           0 FMFlag=      100000 FMFlg1=         800
         NFxFlg=           0 DoJE=F BraDBF=F KetDBF=F FulRan=T
         wScrn=  0.000000 ICntrl=      2127 IOpCl=  0 I1Cent=           0 NGrid=           0
         NMat0=    1 NMatS0=      1 NMatT0=    0 NMatD0=    1 NMtDS0=    0 NMtDT0=    0
 Symmetry not used in FoFCou.
 Leave Link  703 at Sat Dec 28 21:01:21 2019, MaxMem=  4294967296 cpu:              10.5 elap:               3.6
 (Enter /n/sw/g16_nehalem/g16/l716.exe)
 Dipole        =-3.52880920D-01 9.94346853D-01-1.81584961D+00
 ***** Axes restored to original set *****
 -------------------------------------------------------------------
 Center     Atomic                   Forces (Hartrees/Bohr)
 Number     Number              X              Y              Z
 -------------------------------------------------------------------
      1        7          -0.024504629   -0.058150835   -0.004179818
      2        1          -0.000659503    0.001289322    0.000639109
      3        6           0.030229149   -0.003093932    0.010953447
      4        1          -0.009209562   -0.000033115   -0.021471351
      5        6          -0.010610767   -0.003807138    0.013864090
      6        6           0.053704113    0.061926809   -0.017401046
      7        1          -0.024682790    0.002652600   -0.004086408
      8        8          -0.001638986   -0.042437871    0.068910520
      9        7          -0.031457736   -0.026838382   -0.064985106
     10        1           0.002236256    0.001616235    0.008569056
     11        6          -0.003987885   -0.016758753    0.015950882
     12        1           0.013753065   -0.006678185   -0.017045127
     13        6          -0.044836903   -0.009329908   -0.012472632
     14        6           0.008188701   -0.041691462    0.079573891
     15        1           0.000636610    0.014639705   -0.023906838
     16        8           0.026400161    0.066267639   -0.062644512
     17        8          -0.036797934   -0.038856292   -0.013972132
     18        6           0.024305505   -0.010797263    0.004647974
     19        1           0.009492438    0.006344745    0.011197202
     20        1           0.011462575   -0.005801940   -0.010927803
     21        1           0.042760449    0.035358578   -0.013904043
     22        9          -0.068952057   -0.003017726    0.020089222
     23        9           0.007290263    0.015541974    0.013708467
     24        9           0.001241793    0.018899520    0.008603820
     25        9          -0.009534344   -0.013526176    0.011294671
     26        6          -0.007155565    0.020600288   -0.003460447
     27        8           0.046988205    0.012919773    0.003599613
     28        6          -0.012974274    0.043198703   -0.003790676
     29        1           0.004229282   -0.006568349   -0.012372061
     30        1           0.012682140   -0.002484652    0.009212868
     31        1          -0.008597769   -0.011383913    0.005805168
 -------------------------------------------------------------------
 Cartesian Forces:  Max     0.079573891 RMS     0.026862403
 Leave Link  716 at Sat Dec 28 21:01:21 2019, MaxMem=  4294967296 cpu:               1.9 elap:               0.8
 (Enter /n/sw/g16_nehalem/g16/l103.exe)

 GradGradGradGradGradGradGradGradGradGradGradGradGradGradGradGradGradGrad
 Berny optimization.
 FormGI is forming the generalized inverse of G from B-inverse, IUseBI=4.
 Internal  Forces:  Max     0.279985271 RMS     0.040815860
 Search for a local minimum.
 Step number   1 out of a maximum of  153
 All quantities printed in internal units (Hartrees-Bohrs-Radians)
 RMS Force = .40816D-01 SwitMx=.10000D-02 MixMth= 1
 Mixed Optimization -- RFO/linear search
 Second derivative matrix not updated -- first step.
 ITU=  0
     Eigenvalues ---    0.00237   0.00435   0.00435   0.00448   0.00475
     Eigenvalues ---    0.00475   0.00591   0.00680   0.00766   0.00766
     Eigenvalues ---    0.00932   0.00932   0.01044   0.01044   0.01295
     Eigenvalues ---    0.01295   0.04822   0.04822   0.05366   0.05366
     Eigenvalues ---    0.06205   0.06205   0.06283   0.06283   0.07243
     Eigenvalues ---    0.07243   0.07651   0.07651   0.10344   0.10344
     Eigenvalues ---    0.16000   0.16000   0.16000   0.16000   0.16000
     Eigenvalues ---    0.16000   0.16000   0.16000   0.16000   0.16000
     Eigenvalues ---    0.16898   0.16898   0.18432   0.18432   0.22000
     Eigenvalues ---    0.22000   0.23462   0.23462   0.24168   0.24168
     Eigenvalues ---    0.25000   0.25000   0.25000   0.25000   0.25000
     Eigenvalues ---    0.25000   0.25000   0.28519   0.29890   0.29890
     Eigenvalues ---    0.30175   0.30175   0.34813   0.34813   0.34813
     Eigenvalues ---    0.34813   0.35740   0.35740   0.37230   0.37230
     Eigenvalues ---    0.37230   0.37230   0.37230   0.37230   0.38376
     Eigenvalues ---    0.38376   0.40989   0.40989   0.47688   0.47688
     Eigenvalues ---    0.55021   0.55021   0.55021   0.55021   0.80209
     Eigenvalues ---    0.80209   0.92213
 RFO step:  Lambda=-3.95660280D-01 EMin= 2.36824112D-03
 Linear search not attempted -- first point.
 Maximum step size (   0.300) exceeded in Quadratic search.
    -- Step size scaled by   0.453
 Iteration  1 RMS(Cart)=  0.17221060 RMS(Int)=  0.01308128
 Iteration  2 RMS(Cart)=  0.05394650 RMS(Int)=  0.00100650
 Iteration  3 RMS(Cart)=  0.00202575 RMS(Int)=  0.00027118
 Iteration  4 RMS(Cart)=  0.00000349 RMS(Int)=  0.00027118
 Iteration  5 RMS(Cart)=  0.00000000 RMS(Int)=  0.00027118
 ITry= 1 IFail=0 DXMaxC= 1.12D+00 DCOld= 1.00D+10 DXMaxT= 3.00D-01 DXLimC= 3.00D+00 Rises=F
 Variable       Old X    -DE/DX   Delta X   Delta X   Delta X     New X
                                 (Linear)    (Quad)   (Total)
    R1        1.88973  -0.00061   0.00000  -0.00032  -0.00032   1.88941
    R2        2.73821   0.00466   0.00000   0.00270   0.00270   2.74092
    R3        2.77790  -0.06637   0.00000  -0.03990  -0.03990   2.73799
    R4        2.05980   0.02327   0.00000   0.01416   0.01416   2.07396
    R5        2.88183   0.05141   0.00000   0.03351   0.03351   2.91534
    R6        2.87616   0.00746   0.00000   0.00485   0.00485   2.88101
    R7        2.05980   0.02438   0.00000   0.01484   0.01484   2.07465
    R8        2.55113  -0.00937   0.00000  -0.00448  -0.00448   2.54665
    R9        2.55113  -0.00780   0.00000  -0.00373  -0.00373   2.54740
   R10        2.37803  -0.08038   0.00000  -0.03038  -0.03038   2.34765
   R11        2.77790  -0.07923   0.00000  -0.04764  -0.04764   2.73026
   R12        1.88973   0.00567   0.00000   0.00294   0.00294   1.89267
   R13        2.73821  -0.00291   0.00000  -0.00169  -0.00169   2.73652
   R14        2.05980   0.02249   0.00000   0.01369   0.01369   2.07350
   R15        2.88183   0.06502   0.00000   0.04238   0.04238   2.92422
   R16        2.87616   0.03549   0.00000   0.02304   0.02304   2.89920
   R17        2.05980   0.02622   0.00000   0.01596   0.01596   2.07576
   R18        2.55113   0.00424   0.00000   0.00203   0.00203   2.55316
   R19        2.55113  -0.01131   0.00000  -0.00541  -0.00541   2.54572
   R20        2.37803  -0.09451   0.00000  -0.03573  -0.03573   2.34230
   R21        2.70231   0.02085   0.00000   0.01172   0.01172   2.71403
   R22        2.70231   0.02902   0.00000   0.01631   0.01631   2.71862
   R23        2.02201   0.01288   0.00000   0.00759   0.00759   2.02960
   R24        2.02201   0.01547   0.00000   0.00912   0.00912   2.03113
   R25        2.02201  -0.02190   0.00000  -0.01291  -0.01291   2.00909
   R26        2.31929  -0.04726   0.00000  -0.01624  -0.01624   2.30305
   R27        2.91018  -0.02167   0.00000  -0.01441  -0.01441   2.89576
   R28        2.02201   0.01449   0.00000   0.00854   0.00854   2.03055
   R29        2.02201   0.01493   0.00000   0.00880   0.00880   2.03081
   R30        2.02201   0.01538   0.00000   0.00907   0.00907   2.03107
    A1        2.09439   0.00294   0.00000   0.00207   0.00207   2.09646
    A2        2.09440   0.00524   0.00000   0.00395   0.00395   2.09834
    A3        2.09439  -0.00818   0.00000  -0.00602  -0.00602   2.08838
    A4        1.91114   0.00257   0.00000   0.00097   0.00094   1.91207
    A5        1.93906   0.00260   0.00000   0.00277   0.00281   1.94187
    A6        1.93906  -0.01460   0.00000  -0.01125  -0.01130   1.92776
    A7        1.89605  -0.00790   0.00000  -0.00631  -0.00630   1.88975
    A8        1.89605  -0.00291   0.00000  -0.00277  -0.00278   1.89327
    A9        1.88137   0.02036   0.00000   0.01667   0.01669   1.89806
   A10        1.91114   0.00457   0.00000   0.00475   0.00470   1.91583
   A11        1.91114   0.01476   0.00000   0.01009   0.01004   1.92118
   A12        1.91114   0.02292   0.00000   0.01591   0.01585   1.92699
   A13        1.91013  -0.00608   0.00000  -0.00404  -0.00408   1.90605
   A14        1.91013  -0.01017   0.00000  -0.00716  -0.00723   1.90291
   A15        1.91013  -0.02604   0.00000  -0.01957  -0.01962   1.89051
   A16        2.09439   0.01058   0.00000   0.00742   0.00741   2.10181
   A17        2.09440   0.00165   0.00000   0.00116   0.00115   2.09555
   A18        2.09440  -0.01223   0.00000  -0.00857  -0.00858   2.08582
   A19        2.09440   0.01157   0.00000   0.00901   0.00901   2.10340
   A20        2.09439  -0.01072   0.00000  -0.00788  -0.00788   2.08651
   A21        2.09439  -0.00086   0.00000  -0.00112  -0.00112   2.09327
   A22        1.91114   0.01256   0.00000   0.00532   0.00545   1.91658
   A23        1.93906  -0.07192   0.00000  -0.05699  -0.05642   1.88264
   A24        1.93906  -0.01738   0.00000  -0.01583  -0.01487   1.92419
   A25        1.89605   0.02859   0.00000   0.02864   0.02827   1.92432
   A26        1.89605  -0.02767   0.00000  -0.02069  -0.02204   1.87402
   A27        1.88137   0.07807   0.00000   0.06165   0.06104   1.94241
   A28        1.91114   0.01334   0.00000   0.01358   0.01323   1.92436
   A29        1.91114   0.04286   0.00000   0.02966   0.02937   1.94050
   A30        1.91114   0.00159   0.00000  -0.00186  -0.00178   1.90935
   A31        1.91013   0.00358   0.00000   0.00861   0.00794   1.91807
   A32        1.91013  -0.00871   0.00000  -0.00738  -0.00736   1.90277
   A33        1.91013  -0.05273   0.00000  -0.04267  -0.04254   1.86759
   A34        2.09439  -0.07180   0.00000  -0.05035  -0.05053   2.04386
   A35        2.09440   0.16452   0.00000   0.11538   0.11520   2.20959
   A36        2.09440  -0.09272   0.00000  -0.06503  -0.06520   2.02919
   A37        1.91114   0.27999   0.00000   0.19635   0.19635   2.10748
   A38        1.91063  -0.03642   0.00000  -0.03093  -0.03092   1.87972
   A39        1.91063  -0.00139   0.00000  -0.00078  -0.00124   1.90940
   A40        1.91063   0.07523   0.00000   0.06220   0.06200   1.97264
   A41        1.91063  -0.00544   0.00000  -0.00624  -0.00649   1.90414
   A42        1.91063  -0.02905   0.00000  -0.02438  -0.02413   1.88650
   A43        1.91063  -0.00293   0.00000   0.00012  -0.00048   1.91016
   A44        2.13323  -0.01425   0.00000  -0.00999  -0.00999   2.12323
   A45        2.01673  -0.00024   0.00000  -0.00017  -0.00017   2.01656
   A46        2.13323   0.01449   0.00000   0.01016   0.01016   2.14339
   A47        1.91063   0.00084   0.00000   0.00066   0.00066   1.91129
   A48        1.91063   0.00795   0.00000   0.00661   0.00661   1.91724
   A49        1.91063  -0.00136   0.00000  -0.00122  -0.00122   1.90941
   A50        1.91063  -0.00251   0.00000  -0.00182  -0.00182   1.90881
   A51        1.91063  -0.00192   0.00000  -0.00183  -0.00183   1.90881
   A52        1.91063  -0.00300   0.00000  -0.00241  -0.00241   1.90822
    D1        2.09440  -0.00067   0.00000  -0.00051  -0.00050   2.09389
    D2       -2.09439  -0.00719   0.00000  -0.00597  -0.00596  -2.10036
    D3        0.00000   0.01050   0.00000   0.00942   0.00940   0.00940
    D4       -1.04720  -0.00030   0.00000  -0.00009  -0.00008  -1.04728
    D5        1.04720  -0.00682   0.00000  -0.00556  -0.00554   1.04165
    D6        3.14159   0.01088   0.00000   0.00984   0.00982  -3.13177
    D7        3.14159   0.00090   0.00000   0.00101   0.00101  -3.14058
    D8       -0.00004   0.00043   0.00000   0.00048   0.00048   0.00044
    D9        0.00000   0.00053   0.00000   0.00059   0.00059   0.00059
   D10        3.14155   0.00005   0.00000   0.00006   0.00006  -3.14157
   D11       -2.09440   0.00053   0.00000   0.00154   0.00157  -2.09282
   D12        0.00000   0.00494   0.00000   0.00569   0.00571   0.00571
   D13        2.09439  -0.00387   0.00000  -0.00235  -0.00234   2.09206
   D14        0.00894   0.00021   0.00000   0.00038   0.00039   0.00933
   D15        2.10333   0.00461   0.00000   0.00452   0.00453   2.10786
   D16       -2.08546  -0.00419   0.00000  -0.00352  -0.00352  -2.08898
   D17        2.06045   0.00367   0.00000   0.00283   0.00281   2.06326
   D18       -2.12834   0.00807   0.00000   0.00698   0.00695  -2.12139
   D19       -0.03394  -0.00073   0.00000  -0.00107  -0.00110  -0.03504
   D20        2.06045  -0.00349   0.00000  -0.00317  -0.00314   2.05731
   D21       -1.08114   0.00017   0.00000   0.00096   0.00100  -1.08014
   D22       -0.04288   0.00425   0.00000   0.00438   0.00437  -0.03851
   D23        3.09871   0.00791   0.00000   0.00851   0.00851   3.10722
   D24       -2.09440   0.00402   0.00000   0.00422   0.00418  -2.09021
   D25        1.04720   0.00769   0.00000   0.00835   0.00833   1.05553
   D26        0.00000  -0.00113   0.00000  -0.00128  -0.00127  -0.00127
   D27        3.14159  -0.00059   0.00000  -0.00067  -0.00066   3.14094
   D28        3.14159   0.00253   0.00000   0.00285   0.00284  -3.13875
[...]
     21          1           0       -4.496601    0.864472   -1.281650
     22          9           0       -3.662149   -1.402316   -0.351155
     23          9           0       -2.435727   -1.468668    1.342842
     24          9           0        1.756700   -1.363526    1.515344
     25          9           0        1.819543   -2.677822   -0.108833
     26          6           0        3.739371    1.236823   -0.109228
     27          8           0        4.545191    0.429383   -0.517476
     28          6           0        4.076853    2.592689    0.425322
     29          1           0        3.579142    3.397942   -0.132009
     30          1           0        3.809618    2.695481    1.487192
     31          1           0        5.163865    2.771449    0.349279
 ---------------------------------------------------------------------
 Rotational constants (GHZ):           0.5793473           0.2103675           0.1821752
 Leave Link  202 at Sat Dec 28 23:10:38 2019, MaxMem=  4294967296 cpu:               3.9 elap:               1.9
 (Enter /n/sw/g16_nehalem/g16/l601.exe)
 Copying SCF densities to generalized density rwf, IOpCl= 0 IROHF=0.

 **********************************************************************

            Population analysis using the SCF density.

 **********************************************************************

 Orbital symmetries:
       Occupied  (A) (A) (A) (A) (A) (A) (A) (A) (A) (A) (A) (A)
                 (A) (A) (A) (A) (A) (A) (A) (A) (A) (A) (A) (A)
                 (A) (A) (A) (A) (A) (A) (A) (A) (A) (A) (A) (A)
                 (A) (A) (A) (A) (A) (A) (A) (A) (A) (A) (A) (A)
                 (A) (A) (A) (A) (A) (A) (A)
       Virtual   (A) (A) (A) (A) (A) (A) (A) (A) (A) (A) (A) (A)
                 (A) (A) (A) (A) (A) (A) (A) (A) (A) (A) (A) (A)
                 (A) (A) (A) (A) (A) (A) (A) (A) (A)
 The electronic state is 1-A.
 Alpha  occ. eigenvalues --   -1.53150  -1.52976  -1.51738  -1.51582  -1.40452
 Alpha  occ. eigenvalues --   -1.36947  -1.17217  -1.15041  -1.14334  -1.13499
 Alpha  occ. eigenvalues --   -1.04127  -1.00479  -0.96474  -0.94081  -0.88479
 Alpha  occ. eigenvalues --   -0.85925  -0.78691  -0.78209  -0.76434  -0.72325
 Alpha  occ. eigenvalues --   -0.69348  -0.68575  -0.67559  -0.67474  -0.66790
 Alpha  occ. eigenvalues --   -0.66299  -0.64241  -0.63237  -0.62414  -0.61323
 Alpha  occ. eigenvalues --   -0.60530  -0.60503  -0.59935  -0.58314  -0.58035
 Alpha  occ. eigenvalues --   -0.57601  -0.57118  -0.56808  -0.55045  -0.54564
 Alpha  occ. eigenvalues --   -0.53986  -0.53414  -0.53058  -0.52114  -0.51785
 Alpha  occ. eigenvalues --   -0.50361  -0.50185  -0.49791  -0.48998  -0.43062
 Alpha  occ. eigenvalues --   -0.42699  -0.41812  -0.41223  -0.39558  -0.38872
 Alpha virt. eigenvalues --   -0.00101   0.00451   0.02256   0.02544   0.03412
 Alpha virt. eigenvalues --    0.04000   0.06318   0.07488   0.07586   0.07975
 Alpha virt. eigenvalues --    0.08370   0.08642   0.09518   0.09907   0.10949
 Alpha virt. eigenvalues --    0.12426   0.13596   0.14225   0.14853   0.15145
 Alpha virt. eigenvalues --    0.15445   0.15903   0.16146   0.16640   0.16797
 Alpha virt. eigenvalues --    0.16881   0.17199   0.17539   0.18221   0.19814
 Alpha virt. eigenvalues --    0.20605   0.20964   0.21802
          Condensed to atoms (all electrons):
               1          2          3          4          5          6
     1  N    5.623300   0.000000   0.000000   0.000000   0.000000   0.000000
     2  H    0.000000   0.673260   0.000000   0.000000   0.000000   0.000000
     3  C    0.000000   0.000000   4.063577   0.000000   0.000000   0.000000
     4  H    0.000000   0.000000   0.000000   0.786000   0.000000   0.000000
     5  C    0.000000   0.000000   0.000000   0.000000   3.746702   0.000000
     6  C    0.000000   0.000000   0.000000   0.000000   0.000000   3.443141
     7  H    0.000000   0.000000   0.000000   0.000000   0.000000   0.000000
     8  O    0.000000   0.000000   0.000000   0.000000   0.000000   0.000000
     9  N    0.000000   0.000000   0.000000   0.000000   0.000000   0.000000
    10  H    0.000000   0.000000   0.000000   0.000000   0.000000   0.000000
    11  C    0.000000   0.000000   0.000000   0.000000   0.000000   0.000000
    12  H    0.000000   0.000000   0.000000   0.000000   0.000000   0.000000
    13  C    0.000000   0.000000   0.000000   0.000000   0.000000   0.000000
    14  C    0.000000   0.000000   0.000000   0.000000   0.000000   0.000000
    15  H    0.000000   0.000000   0.000000   0.000000   0.000000   0.000000
    16  O    0.000000   0.000000   0.000000   0.000000   0.000000   0.000000
    17  O    0.000000   0.000000   0.000000   0.000000   0.000000   0.000000
    18  C    0.000000   0.000000   0.000000   0.000000   0.000000   0.000000
    19  H    0.000000   0.000000   0.000000   0.000000   0.000000   0.000000
    20  H    0.000000   0.000000   0.000000   0.000000   0.000000   0.000000
    21  H    0.000000   0.000000   0.000000   0.000000   0.000000   0.000000
    22  F    0.000000   0.000000   0.000000   0.000000   0.000000   0.000000
    23  F    0.000000   0.000000   0.000000   0.000000   0.000000   0.000000
    24  F    0.000000   0.000000   0.000000   0.000000   0.000000   0.000000
    25  F    0.000000   0.000000   0.000000   0.000000   0.000000   0.000000
    26  C    0.000000   0.000000   0.000000   0.000000   0.000000   0.000000
    27  O    0.000000   0.000000   0.000000   0.000000   0.000000   0.000000
    28  C    0.000000   0.000000   0.000000   0.000000   0.000000   0.000000
    29  H    0.000000   0.000000   0.000000   0.000000   0.000000   0.000000
    30  H    0.000000   0.000000   0.000000   0.000000   0.000000   0.000000
    31  H    0.000000   0.000000   0.000000   0.000000   0.000000   0.000000
               7          8          9         10         11         12
     1  N    0.000000   0.000000   0.000000   0.000000   0.000000   0.000000
     2  H    0.000000   0.000000   0.000000   0.000000   0.000000   0.000000
     3  C    0.000000   0.000000   0.000000   0.000000   0.000000   0.000000
     4  H    0.000000   0.000000   0.000000   0.000000   0.000000   0.000000
     5  C    0.000000   0.000000   0.000000   0.000000   0.000000   0.000000
     6  C    0.000000   0.000000   0.000000   0.000000   0.000000   0.000000
     7  H    0.816464   0.000000   0.000000   0.000000   0.000000   0.000000
     8  O    0.000000   6.488882   0.000000   0.000000   0.000000   0.000000
     9  N    0.000000   0.000000   5.590715   0.000000   0.000000   0.000000
    10  H    0.000000   0.000000   0.000000   0.653009   0.000000   0.000000
    11  C    0.000000   0.000000   0.000000   0.000000   4.105652   0.000000
    12  H    0.000000   0.000000   0.000000   0.000000   0.000000   0.797747
    13  C    0.000000   0.000000   0.000000   0.000000   0.000000   0.000000
    14  C    0.000000   0.000000   0.000000   0.000000   0.000000   0.000000
    15  H    0.000000   0.000000   0.000000   0.000000   0.000000   0.000000
    16  O    0.000000   0.000000   0.000000   0.000000   0.000000   0.000000
    17  O    0.000000   0.000000   0.000000   0.000000   0.000000   0.000000
    18  C    0.000000   0.000000   0.000000   0.000000   0.000000   0.000000
    19  H    0.000000   0.000000   0.000000   0.000000   0.000000   0.000000
    20  H    0.000000   0.000000   0.000000   0.000000   0.000000   0.000000
    21  H    0.000000   0.000000   0.000000   0.000000   0.000000   0.000000
    22  F    0.000000   0.000000   0.000000   0.000000   0.000000   0.000000
    23  F    0.000000   0.000000   0.000000   0.000000   0.000000   0.000000
    24  F    0.000000   0.000000   0.000000   0.000000   0.000000   0.000000
    25  F    0.000000   0.000000   0.000000   0.000000   0.000000   0.000000
    26  C    0.000000   0.000000   0.000000   0.000000   0.000000   0.000000
    27  O    0.000000   0.000000   0.000000   0.000000   0.000000   0.000000
    28  C    0.000000   0.000000   0.000000   0.000000   0.000000   0.000000
    29  H    0.000000   0.000000   0.000000   0.000000   0.000000   0.000000
    30  H    0.000000   0.000000   0.000000   0.000000   0.000000   0.000000
    31  H    0.000000   0.000000   0.000000   0.000000   0.000000   0.000000
              13         14         15         16         17         18
     1  N    0.000000   0.000000   0.000000   0.000000   0.000000   0.000000
     2  H    0.000000   0.000000   0.000000   0.000000   0.000000   0.000000
     3  C    0.000000   0.000000   0.000000   0.000000   0.000000   0.000000
     4  H    0.000000   0.000000   0.000000   0.000000   0.000000   0.000000
     5  C    0.000000   0.000000   0.000000   0.000000   0.000000   0.000000
     6  C    0.000000   0.000000   0.000000   0.000000   0.000000   0.000000
     7  H    0.000000   0.000000   0.000000   0.000000   0.000000   0.000000
     8  O    0.000000   0.000000   0.000000   0.000000   0.000000   0.000000
     9  N    0.000000   0.000000   0.000000   0.000000   0.000000   0.000000
    10  H    0.000000   0.000000   0.000000   0.000000   0.000000   0.000000
    11  C    0.000000   0.000000   0.000000   0.000000   0.000000   0.000000
    12  H    0.000000   0.000000   0.000000   0.000000   0.000000   0.000000
    13  C    3.749923   0.000000   0.000000   0.000000   0.000000   0.000000
    14  C    0.000000   3.436404   0.000000   0.000000   0.000000   0.000000
    15  H    0.000000   0.000000   0.820114   0.000000   0.000000   0.000000
    16  O    0.000000   0.000000   0.000000   6.427368   0.000000   0.000000
    17  O    0.000000   0.000000   0.000000   0.000000   6.344645   0.000000
    18  C    0.000000   0.000000   0.000000   0.000000   0.000000   4.196063
    19  H    0.000000   0.000000   0.000000   0.000000   0.000000   0.000000
    20  H    0.000000   0.000000   0.000000   0.000000   0.000000   0.000000
    21  H    0.000000   0.000000   0.000000   0.000000   0.000000   0.000000
    22  F    0.000000   0.000000   0.000000   0.000000   0.000000   0.000000
    23  F    0.000000   0.000000   0.000000   0.000000   0.000000   0.000000
    24  F    0.000000   0.000000   0.000000   0.000000   0.000000   0.000000
    25  F    0.000000   0.000000   0.000000   0.000000   0.000000   0.000000
    26  C    0.000000   0.000000   0.000000   0.000000   0.000000   0.000000
    27  O    0.000000   0.000000   0.000000   0.000000   0.000000   0.000000
    28  C    0.000000   0.000000   0.000000   0.000000   0.000000   0.000000
    29  H    0.000000   0.000000   0.000000   0.000000   0.000000   0.000000
    30  H    0.000000   0.000000   0.000000   0.000000   0.000000   0.000000
    31  H    0.000000   0.000000   0.000000   0.000000   0.000000   0.000000
              19         20         21         22         23         24
     1  N    0.000000   0.000000   0.000000   0.000000   0.000000   0.000000
     2  H    0.000000   0.000000   0.000000   0.000000   0.000000   0.000000
     3  C    0.000000   0.000000   0.000000   0.000000   0.000000   0.000000
     4  H    0.000000   0.000000   0.000000   0.000000   0.000000   0.000000
     5  C    0.000000   0.000000   0.000000   0.000000   0.000000   0.000000
     6  C    0.000000   0.000000   0.000000   0.000000   0.000000   0.000000
     7  H    0.000000   0.000000   0.000000   0.000000   0.000000   0.000000
     8  O    0.000000   0.000000   0.000000   0.000000   0.000000   0.000000
     9  N    0.000000   0.000000   0.000000   0.000000   0.000000   0.000000
    10  H    0.000000   0.000000   0.000000   0.000000   0.000000   0.000000
    11  C    0.000000   0.000000   0.000000   0.000000   0.000000   0.000000
    12  H    0.000000   0.000000   0.000000   0.000000   0.000000   0.000000
    13  C    0.000000   0.000000   0.000000   0.000000   0.000000   0.000000
    14  C    0.000000   0.000000   0.000000   0.000000   0.000000   0.000000
    15  H    0.000000   0.000000   0.000000   0.000000   0.000000   0.000000
    16  O    0.000000   0.000000   0.000000   0.000000   0.000000   0.000000
    17  O    0.000000   0.000000   0.000000   0.000000   0.000000   0.000000
    18  C    0.000000   0.000000   0.000000   0.000000   0.000000   0.000000
    19  H    0.834111   0.000000   0.000000   0.000000   0.000000   0.000000
    20  H    0.000000   0.865807   0.000000   0.000000   0.000000   0.000000
    21  H    0.000000   0.000000   0.851218   0.000000   0.000000   0.000000
    22  F    0.000000   0.000000   0.000000   7.207744   0.000000   0.000000
    23  F    0.000000   0.000000   0.000000   0.000000   7.188281   0.000000
    24  F    0.000000   0.000000   0.000000   0.000000   0.000000   7.212910
    25  F    0.000000   0.000000   0.000000   0.000000   0.000000   0.000000
    26  C    0.000000   0.000000   0.000000   0.000000   0.000000   0.000000
    27  O    0.000000   0.000000   0.000000   0.000000   0.000000   0.000000
    28  C    0.000000   0.000000   0.000000   0.000000   0.000000   0.000000
    29  H    0.000000   0.000000   0.000000   0.000000   0.000000   0.000000
    30  H    0.000000   0.000000   0.000000   0.000000   0.000000   0.000000
    31  H    0.000000   0.000000   0.000000   0.000000   0.000000   0.000000
              25         26         27         28         29         30
     1  N    0.000000   0.000000   0.000000   0.000000   0.000000   0.000000
     2  H    0.000000   0.000000   0.000000   0.000000   0.000000   0.000000
     3  C    0.000000   0.000000   0.000000   0.000000   0.000000   0.000000
     4  H    0.000000   0.000000   0.000000   0.000000   0.000000   0.000000
     5  C    0.000000   0.000000   0.000000   0.000000   0.000000   0.000000
     6  C    0.000000   0.000000   0.000000   0.000000   0.000000   0.000000
     7  H    0.000000   0.000000   0.000000   0.000000   0.000000   0.000000
     8  O    0.000000   0.000000   0.000000   0.000000   0.000000   0.000000
     9  N    0.000000   0.000000   0.000000   0.000000   0.000000   0.000000
    10  H    0.000000   0.000000   0.000000   0.000000   0.000000   0.000000
    11  C    0.000000   0.000000   0.000000   0.000000   0.000000   0.000000
    12  H    0.000000   0.000000   0.000000   0.000000   0.000000   0.000000
    13  C    0.000000   0.000000   0.000000   0.000000   0.000000   0.000000
    14  C    0.000000   0.000000   0.000000   0.000000   0.000000   0.000000
    15  H    0.000000   0.000000   0.000000   0.000000   0.000000   0.000000
    16  O    0.000000   0.000000   0.000000   0.000000   0.000000   0.000000
    17  O    0.000000   0.000000   0.000000   0.000000   0.000000   0.000000
    18  C    0.000000   0.000000   0.000000   0.000000   0.000000   0.000000
    19  H    0.000000   0.000000   0.000000   0.000000   0.000000   0.000000
    20  H    0.000000   0.000000   0.000000   0.000000   0.000000   0.000000
    21  H    0.000000   0.000000   0.000000   0.000000   0.000000   0.000000
    22  F    0.000000   0.000000   0.000000   0.000000   0.000000   0.000000
    23  F    0.000000   0.000000   0.000000   0.000000   0.000000   0.000000
    24  F    0.000000   0.000000   0.000000   0.000000   0.000000   0.000000
    25  F    7.201063   0.000000   0.000000   0.000000   0.000000   0.000000
    26  C    0.000000   3.378183   0.000000   0.000000   0.000000   0.000000
    27  O    0.000000   0.000000   6.526804   0.000000   0.000000   0.000000
    28  C    0.000000   0.000000   0.000000   4.525087   0.000000   0.000000
    29  H    0.000000   0.000000   0.000000   0.000000   0.821262   0.000000
    30  H    0.000000   0.000000   0.000000   0.000000   0.000000   0.816545
    31  H    0.000000   0.000000   0.000000   0.000000   0.000000   0.000000
              31
     1  N    0.000000
     2  H    0.000000
     3  C    0.000000
     4  H    0.000000
     5  C    0.000000
     6  C    0.000000
     7  H    0.000000
     8  O    0.000000
     9  N    0.000000
    10  H    0.000000
    11  C    0.000000
    12  H    0.000000
    13  C    0.000000
    14  C    0.000000
    15  H    0.000000
    16  O    0.000000
    17  O    0.000000
    18  C    0.000000
    19  H    0.000000
    20  H    0.000000
    21  H    0.000000
    22  F    0.000000
    23  F    0.000000
    24  F    0.000000
    25  F    0.000000
    26  C    0.000000
    27  O    0.000000
    28  C    0.000000
    29  H    0.000000
    30  H    0.000000
    31  H    0.808021
 Mulliken charges:
               1
     1  N   -0.623300
     2  H    0.326740
     3  C   -0.063577
     4  H    0.214000
     5  C    0.253298
     6  C    0.556859
     7  H    0.183536
     8  O   -0.488882
     9  N   -0.590715
    10  H    0.346991
    11  C   -0.105652
    12  H    0.202253
    13  C    0.250077
    14  C    0.563596
    15  H    0.179886
    16  O   -0.427368
    17  O   -0.344645
    18  C   -0.196063
    19  H    0.165889
    20  H    0.134193
    21  H    0.148782
    22  F   -0.207744
    23  F   -0.188281
    24  F   -0.212910
    25  F   -0.201063
    26  C    0.621817
    27  O   -0.526804
    28  C   -0.525087
    29  H    0.178738
    30  H    0.183455
    31  H    0.191979
 Sum of Mulliken charges =   0.00000
 Mulliken charges with hydrogens summed into heavy atoms:
               1
     1  N   -0.296559
     3  C    0.150423
     5  C    0.436834
     6  C    0.556859
     8  O   -0.488882
     9  N   -0.243724
    11  C    0.096600
    13  C    0.429963
    14  C    0.563596
    16  O   -0.427368
    17  O   -0.344645
    18  C    0.252802
    22  F   -0.207744
    23  F   -0.188281
    24  F   -0.212910
    25  F   -0.201063
    26  C    0.621817
    27  O   -0.526804
    28  C    0.029086
 Charge=              0.0000 electrons
 Dipole moment (field-independent basis, Debye):
    X=             -0.0073    Y=              3.9307    Z=             -1.7896  Tot=              4.3189
 N-N= 9.913778611911D+02 E-N=-1.615180129278D+03  KE=-2.853773974426D+02
 Leave Link  601 at Sat Dec 28 23:10:42 2019, MaxMem=  4294967296 cpu:               8.2 elap:               4.1
 (Enter /n/sw/g16_nehalem/g16/l9999.exe)
 1\1\GINC-HOLYSEAS01\FOpt\RPM7\ZDO\C9H12F4N2O4\CWAGEN\28-Dec-2019\0\\#p
  opt pm7\\title\\0,1\N,-2.5029875788,-2.0692269016,0.2686928772\H,-1.7
 003172136,-1.9122125085,0.8554235722\C,-3.2149165949,-0.9156802634,-0.
 2613622056\H,-3.4307017158,-1.0862979744,-1.3666116187\C,-4.5941360199
 ,-0.7543561245,0.4539224044\C,-2.3906187308,0.3701058643,-0.1551888801
 \H,-5.2875059429,-1.6280352965,0.257008581\O,-2.3142040201,1.153295342
 2,-1.0745672987\N,-1.6842378243,0.5835375032,1.0163257711\H,-1.9115282
 89,0.1225353873,1.899547208\C,-0.912229171,1.8201356638,1.1463353701\H
 ,-0.3860742517,2.0376903327,0.175455547\C,-1.8729853671,3.0025853157,1
 .4833020086\C,0.0651296526,1.5659098593,2.2953686796\H,-2.7539605206,3
 .05407006,0.7721333909\O,-0.2551371431,0.8960018236,3.2426311289\O,1.3
 26837164,2.0444995038,2.2785952083\C,1.8183186721,2.7491187851,1.14938
 78524\H,2.8757245908,2.8987865162,1.4222071448\H,1.7495243968,2.146856
 9594,0.2391093625\H,1.3250666084,3.7195532854,1.0446817621\F,-1.187808
 541,4.1579295169,1.4848463121\F,-2.2775753568,2.9055699652,2.758480149
 7\F,-4.4174369054,-0.5681496179,1.7728204497\F,-5.1492802929,0.4087493
 028,0.075956367\C,-2.9373889563,-3.3454208462,-0.0787341898\O,-3.92478
 66889,-3.4688689873,-0.769949354\C,-2.1255063288,-4.4760162908,0.46954
 60607\H,-1.0748923491,-4.4291426194,0.1520888663\H,-2.1499704809,-4.50
 61331932,1.5686552366\H,-2.527770891,-5.4406282633,0.1131181558\\Versi
 on=ES64L-G16RevA.03\State=1-A\HF=-0.588822\RMSD=5.764e-09\RMSF=5.460e-
 06\Dipole=1.4352092,-0.7439846,-0.5233237\PG=C01 [X(C9H12F4N2O4)]\\@


 THE REASON MAN'S BEST FRIEND IS A DOG IS BECAUSE
 HE WAGS HIS TAIL INSTEAD OF HIS TONGUE.
 Job cpu time:       0 days  4 hours 55 minutes 48.2 seconds.
 Elapsed time:       0 days  2 hours 10 minutes 13.2 seconds.
 File lengths (MBytes):  RWF=     10 Int=      0 D2E=      0 Chk=      3 Scr=      1
 Normal termination of Gaussian 16 at Sat Dec 28 23:10:43 2019.
