 Entering Gaussian System, Link 0=g16
 Input=scan_ts.gjf
 Output=scan_ts.out
 Initial command:
 /home/cwagen/sw/g16/g16/l1.exe "/scratch/users/cwagen/cwagen_scan_ts/Gau-31137.inp" -scrdir="/scratch/users/cwagen/cwagen_scan_ts/"
 Entering Link 1 = /home/cwagen/sw/g16/g16/l1.exe PID=     31138.
  
 Copyright (c) 1988,1990,1992,1993,1995,1998,2003,2009,2016,
            Gaussian, Inc.  All Rights Reserved.
  
 This is part of the Gaussian(R) 16 program.  It is based on
 the Gaussian(R) 09 system (copyright 2009, Gaussian, Inc.),
 the Gaussian(R) 03 system (copyright 2003, Gaussian, Inc.),
 the Gaussian(R) 98 system (copyright 1998, Gaussian, Inc.),
 the Gaussian(R) 94 system (copyright 1995, Gaussian, Inc.),
 the Gaussian 92(TM) system (copyright 1992, Gaussian, Inc.),
 the Gaussian 90(TM) system (copyright 1990, Gaussian, Inc.),
 the Gaussian 88(TM) system (copyright 1988, Gaussian, Inc.),
 the Gaussian 86(TM) system (copyright 1986, Carnegie Mellon
 University), and the Gaussian 82(TM) system (copyright 1983,
 Carnegie Mellon University). Gaussian is a federally registered
 trademark of Gaussian, Inc.
  
 This software contains proprietary and confidential information,
 including trade secrets, belonging to Gaussian, Inc.
  
 This software is provided under written license and may be
 used, copied, transmitted, or stored only in accord with that
 written license.
  
 The following legend is applicable only to US Government
 contracts under FAR:
  
                    RESTRICTED RIGHTS LEGEND
  
 Use, reproduction and disclosure by the US Government is
 subject to restrictions as set forth in subparagraphs (a)
 and (c) of the Commercial Computer Software - Restricted
 Rights clause in FAR 52.227-19.
  
 Gaussian, Inc.
 340 Quinnipiac St., Bldg. 40, Wallingford CT 06492
  
  
 ---------------------------------------------------------------
 Warning -- This program may not be used in any manner that
 competes with the business of Gaussian, Inc. or will provide
 assistance to any competitor of Gaussian, Inc.  The licensee
 of this program is prohibited from giving any competitor of
 Gaussian, Inc. access to this program.  By using this program,
 the user acknowledges that Gaussian, Inc. is engaged in the
 business of creating and licensing software in the field of
 computational chemistry and represents and warrants to the
 licensee that it is not a competitor of Gaussian, Inc. and that
 it will not use this program in any manner prohibited above.
 ---------------------------------------------------------------
  

 Cite this work as:
 Gaussian 16, Revision A.03,
 M. J. Frisch, G. W. Trucks, H. B. Schlegel, G. E. Scuseria, 
 M. A. Robb, J. R. Cheeseman, G. Scalmani, V. Barone, 
 G. A. Petersson, H. Nakatsuji, X. Li, M. Caricato, A. V. Marenich, 
 J. Bloino, B. G. Janesko, R. Gomperts, B. Mennucci, H. P. Hratchian, 
 J. V. Ortiz, A. F. Izmaylov, J. L. Sonnenberg, D. Williams-Young, 
 F. Ding, F. Lipparini, F. Egidi, J. Goings, B. Peng, A. Petrone, 
 T. Henderson, D. Ranasinghe, V. G. Zakrzewski, J. Gao, N. Rega, 
 G. Zheng, W. Liang, M. Hada, M. Ehara, K. Toyota, R. Fukuda, 
 J. Hasegawa, M. Ishida, T. Nakajima, Y. Honda, O. Kitao, H. Nakai, 
 T. Vreven, K. Throssell, J. A. Montgomery, Jr., J. E. Peralta, 
 F. Ogliaro, M. J. Bearpark, J. J. Heyd, E. N. Brothers, K. N. Kudin, 
 V. N. Staroverov, T. A. Keith, R. Kobayashi, J. Normand, 
 K. Raghavachari, A. P. Rendell, J. C. Burant, S. S. Iyengar, 
 J. Tomasi, M. Cossi, J. M. Millam, M. Klene, C. Adamo, R. Cammi, 
 J. W. Ochterski, R. L. Martin, K. Morokuma, O. Farkas, 
 J. B. Foresman, and D. J. Fox, Gaussian, Inc., Wallingford CT, 2016.
 
 ******************************************
 Gaussian 16:  AS64L-G16RevA.03 25-Dec-2016
                 8-Jan-2020 
 ******************************************
 %nprocshared=16
 Will use up to   16 processors via shared memory.
 %mem=32GB
 ----------------------------------------------------------------------
 #p opt=(ts, calcfc, noeigentest) freq=noraman b3lyp/6-31+g(d) scrf=(sm
 d, solvent=tetrahydrofuran)
 ----------------------------------------------------------------------
 1/5=1,10=4,11=1,18=20,26=3,38=1/1,3;
 2/9=110,12=2,17=6,18=5,40=1/2;
 3/5=1,6=6,7=11,11=2,25=1,30=1,70=32201,71=2,72=20,74=-5,140=1/1,2,3;
 4//1;
 5/5=2,38=5,53=20/2;
 8/6=4,10=90,11=11/1;
 11/6=1,8=1,9=11,15=111,16=1/1,2,10;
 10/6=1,13=1/2;
 6/7=2,8=2,9=2,10=2,28=1/1;
 7/10=1,18=20,25=1/1,2,3,16;
 1/5=1,10=4,11=1,18=20,26=3/3(2);
 2/9=110/2;
 99//99;
 2/9=110/2;
 3/5=1,6=6,7=11,11=2,25=1,30=1,70=32205,71=1,72=20,74=-5/1,2,3;
 4/5=5,16=3,69=1/1;
 5/5=2,38=5,53=20/2;
 7//1,2,3,16;
 1/5=1,11=1,18=20,26=3/3(-5);
 2/9=110/2;
 6/7=2,8=2,9=2,10=2,19=2,28=1/1;
 99/9=1/99;
 Leave Link    1 at Wed Jan  8 10:01:56 2020, MaxMem=  4294967296 cpu:               1.2 elap:               0.1
 (Enter /home/cwagen/sw/g16/g16/l101.exe)
 -----
 title
 -----
 Symbolic Z-matrix:
 Charge = -1 Multiplicity = 1
 6                    -0.14367   0.56174   0.2437 
 8                    -0.22865   0.97547   1.38673 
 6                    -0.31364   1.43009  -0.98879 
 1                    -0.14639   0.87192  -1.91177 
 1                    -1.32972   1.84186  -0.98696 
 1                     0.40396   2.25653  -0.92405 
 17                   -1.28036  -1.04778  -0.09891 
 6                     1.52976  -0.28289  -0.06653 
 7                     2.60466  -0.74507  -0.10285 
 
 Add virtual bond connecting atoms C8         and C1         Dist= 3.59D+00.
 ITRead=  0  0  0  0  0  0  0  0  0
 MicOpt= -1 -1 -1 -1 -1 -1 -1 -1 -1
 NAtoms=      9 NQM=        9 NQMF=       0 NMMI=      0 NMMIF=      0
                NMic=       0 NMicF=      0.
                    Isotopes and Nuclear Properties:
 (Nuclear quadrupole moments (NQMom) in fm**2, nuclear magnetic moments (NMagM)
  in nuclear magnetons)

  Atom         1           2           3           4           5           6           7           8           9
 IAtWgt=          12          16          12           1           1           1          35          12          14
 AtmWgt=  12.0000000  15.9949146  12.0000000   1.0078250   1.0078250   1.0078250  34.9688527  12.0000000  14.0030740
 NucSpn=           0           0           0           1           1           1           3           0           2
 AtZEff=   0.0000000   0.0000000   0.0000000   0.0000000   0.0000000   0.0000000   0.0000000   0.0000000   0.0000000
 NQMom=    0.0000000   0.0000000   0.0000000   0.0000000   0.0000000   0.0000000  -8.1650000   0.0000000   2.0440000
 NMagM=    0.0000000   0.0000000   0.0000000   2.7928460   2.7928460   2.7928460   0.8218740   0.0000000   0.4037610
 AtZNuc=   6.0000000   8.0000000   6.0000000   1.0000000   1.0000000   1.0000000  17.0000000   6.0000000   7.0000000
 Leave Link  101 at Wed Jan  8 10:01:57 2020, MaxMem=  4294967296 cpu:               8.2 elap:               0.5
 (Enter /home/cwagen/sw/g16/g16/l103.exe)

 GradGradGradGradGradGradGradGradGradGradGradGradGradGradGradGradGradGrad
 Berny optimization.
 Initialization pass.
                           ----------------------------
                           !    Initial Parameters    !
                           ! (Angstroms and Degrees)  !
 --------------------------                            --------------------------
 ! Name  Definition              Value          Derivative Info.                !
 --------------------------------------------------------------------------------
 ! R1    R(1,2)                  1.2186         calculate D2E/DX2 analytically  !
 ! R2    R(1,3)                  1.5172         calculate D2E/DX2 analytically  !
 ! R3    R(1,7)                  2.0            calculate D2E/DX2 analytically  !
 ! R4    R(1,8)                  1.9            calculate D2E/DX2 analytically  !
 ! R5    R(3,4)                  1.0915         calculate D2E/DX2 analytically  !
 ! R6    R(3,5)                  1.0964         calculate D2E/DX2 analytically  !
 ! R7    R(3,6)                  1.0964         calculate D2E/DX2 analytically  !
 ! R8    R(8,9)                  1.1706         calculate D2E/DX2 analytically  !
 ! A1    A(2,1,3)              124.0455         calculate D2E/DX2 analytically  !
 ! A2    A(2,1,7)              113.2211         calculate D2E/DX2 analytically  !
 ! A3    A(2,1,8)              111.4391         calculate D2E/DX2 analytically  !
 ! A4    A(3,1,7)              104.9371         calculate D2E/DX2 analytically  !
 ! A5    A(3,1,8)              102.7358         calculate D2E/DX2 analytically  !
 ! A6    A(7,1,8)               96.5949         calculate D2E/DX2 analytically  !
 ! A7    A(1,3,4)              112.1523         calculate D2E/DX2 analytically  !
 ! A8    A(1,3,5)              108.5075         calculate D2E/DX2 analytically  !
 ! A9    A(1,3,6)              108.0656         calculate D2E/DX2 analytically  !
 ! A10   A(4,3,5)              109.6021         calculate D2E/DX2 analytically  !
 ! A11   A(4,3,6)              109.5785         calculate D2E/DX2 analytically  !
 ! A12   A(5,3,6)              108.8666         calculate D2E/DX2 analytically  !
 ! A13   L(1,8,9,6,-1)         180.7946         calculate D2E/DX2 analytically  !
 ! A14   L(1,8,9,6,-2)         168.5169         calculate D2E/DX2 analytically  !
 ! D1    D(2,1,3,4)            176.9954         calculate D2E/DX2 analytically  !
 ! D2    D(2,1,3,5)            -61.789          calculate D2E/DX2 analytically  !
 ! D3    D(2,1,3,6)             56.1073         calculate D2E/DX2 analytically  !
 ! D4    D(7,1,3,4)            -50.7262         calculate D2E/DX2 analytically  !
 ! D5    D(7,1,3,5)             70.4894         calculate D2E/DX2 analytically  !
 ! D6    D(7,1,3,6)           -171.6143         calculate D2E/DX2 analytically  !
 ! D7    D(8,1,3,4)             49.7693         calculate D2E/DX2 analytically  !
 ! D8    D(8,1,3,5)            170.9849         calculate D2E/DX2 analytically  !
 ! D9    D(8,1,3,6)            -71.1188         calculate D2E/DX2 analytically  !
 --------------------------------------------------------------------------------
 Trust Radius=3.00D-01 FncErr=1.00D-07 GrdErr=1.00D-06 EigMax=2.50D+02 EigMin=1.00D-04
 Number of steps in this run=     41 maximum allowed number of steps=    100.
 Search for a saddle point of order  1.
 GradGradGradGradGradGradGradGradGradGradGradGradGradGradGradGradGradGrad

 Leave Link  103 at Wed Jan  8 10:01:57 2020, MaxMem=  4294967296 cpu:               0.2 elap:               0.1
 (Enter /home/cwagen/sw/g16/g16/l202.exe)
                          Input orientation:                          
 ---------------------------------------------------------------------
 Center     Atomic      Atomic             Coordinates (Angstroms)
 Number     Number       Type             X           Y           Z
 ---------------------------------------------------------------------
      1          6           0       -0.143665    0.561742    0.243700
      2          8           0       -0.228648    0.975473    1.386733
      3          6           0       -0.313636    1.430085   -0.988792
      4          1           0       -0.146385    0.871916   -1.911773
      5          1           0       -1.329716    1.841864   -0.986960
      6          1           0        0.403963    2.256528   -0.924046
      7         17           0       -1.280355   -1.047778   -0.098907
      8          6           0        1.529760   -0.282892   -0.066528
      9          7           0        2.604659   -0.745067   -0.102849
 ---------------------------------------------------------------------
                    Distance matrix (angstroms):
                    1          2          3          4          5
     1  C    0.000000
     2  O    1.218573   0.000000
     3  C    1.517217   2.420127   0.000000
     4  H    2.177677   3.301156   1.091522   0.000000
     5  H    2.135405   2.756339   1.096350   1.787834   0.000000
     6  H    2.129748   2.716799   1.096425   1.787635   1.783689
     7  Cl   2.000000   2.721536   2.804683   2.873603   3.023426
     8  C    1.900000   2.605273   2.680106   2.747357   3.679455
     9  N    3.062863   3.634108   3.746015   3.668117   4.790947
                    6          7          8          9
     6  H    0.000000
     7  Cl   3.799503   0.000000
     8  C    2.907131   2.912532   0.000000
     9  N    3.811430   3.896791   1.170612   0.000000
 Stoichiometry    C3H3ClNO(1-)
 Framework group  C1[X(C3H3ClNO)]
 Deg. of freedom    21
 Full point group                 C1      NOp   1
 Largest Abelian subgroup         C1      NOp   1
 Largest concise Abelian subgroup C1      NOp   1
                         Standard orientation:                         
 ---------------------------------------------------------------------
 Center     Atomic      Atomic             Coordinates (Angstroms)
 Number     Number       Type             X           Y           Z
 ---------------------------------------------------------------------
      1          6           0       -0.143665    0.561742    0.243700
      2          8           0       -0.228649    0.975473    1.386733
      3          6           0       -0.313637    1.430085   -0.988792
      4          1           0       -0.146386    0.871916   -1.911773
      5          1           0       -1.329717    1.841863   -0.986960
      6          1           0        0.403962    2.256528   -0.924046
      7         17           0       -1.280355   -1.047779   -0.098907
      8          6           0        1.529760   -0.282891   -0.066528
      9          7           0        2.604659   -0.745066   -0.102849
 ---------------------------------------------------------------------
 Rotational constants (GHZ):           3.3990320           2.1670628           1.7734681
 Leave Link  202 at Wed Jan  8 10:01:57 2020, MaxMem=  4294967296 cpu:               0.1 elap:               0.0
 (Enter /home/cwagen/sw/g16/g16/l301.exe)
 Standard basis: 6-31+G(d) (6D, 7F)
 Ernie: Thresh=  0.10000D-02 Tol=  0.10000D-05 Strict=F.
 There are   124 symmetry adapted cartesian basis functions of A   symmetry.
 There are   124 symmetry adapted basis functions of A   symmetry.
   124 basis functions,   228 primitive gaussians,   124 cartesian basis functions
    27 alpha electrons       27 beta electrons
       nuclear repulsion energy       251.2206839741 Hartrees.
 IExCor=  402 DFT=T Ex+Corr=B3LYP ExCW=0 ScaHFX=  0.200000
 ScaDFX=  0.800000  0.720000  1.000000  0.810000 ScalE2=  1.000000  1.000000
 IRadAn=      5 IRanWt=     -1 IRanGd=            0 ICorTp=0 IEmpDi=  4
 NAtoms=    9 NActive=    9 NUniq=    9 SFac= 1.00D+00 NAtFMM=   60 NAOKFM=F Big=F
 Integral buffers will be    131072 words long.
 Raffenetti 2 integral format.
 Two-electron integral symmetry is turned on.
 Force inversion solution in PCM.
 ------------------------------------------------------------------------------
 Polarizable Continuum Model (PCM)
 =================================
 Model                : PCM.
 Atomic radii         : SMD-Coulomb.
 Polarization charges : Total charges.
 Charge compensation  : None.
 Solution method      : Matrix inversion.
 Cavity type          : VdW (van der Waals Surface) (Alpha=1.000).
 Cavity algorithm     : GePol (No added spheres)
                        Default sphere list used, NSphG=    9.
                        Lebedev-Laikov grids with approx.  5.0 points / Ang**2.
                        Smoothing algorithm: York/Karplus (Gamma=1.0000).
                        Polarization charges: spherical gaussians, with
                                              point-specific exponents (IZeta= 3).
                        Self-potential: point-specific (ISelfS= 7).
                        Self-field    : sphere-specific E.n sum rule (ISelfD= 2).
 1st derivatives      : Analytical E(r).r(x)/FMM algorithm (CHGder, D1EAlg=3).
                        Cavity 1st derivative terms included.
 2nd derivatives      : Analytical E(r).r(xy)/FMM algorithm (CHGder, D2EAlg=3).
                        Cavity 2nd derivative terms included.
 Solvent              : TetraHydroFuran, Eps=   7.425700 Eps(inf)=   1.974025
 ------------------------------------------------------------------------------
 Spheres list:
 ISph  on   Nord     Re0    Alpha      Xe            Ye            Ze
    1   C      1    1.8500  1.000     -0.143665      0.561742      0.243700
    2   O      2    2.2940  1.000     -0.228649      0.975473      1.386733
    3   C      3    1.8500  1.000     -0.313637      1.430085     -0.988792
    4   H      4    1.2000  1.000     -0.146386      0.871916     -1.911773
    5   H      5    1.2000  1.000     -1.329717      1.841863     -0.986960
    6   H      6    1.2000  1.000      0.403962      2.256528     -0.924046
    7  Cl      7    2.3800  1.000     -1.280355     -1.047779     -0.098907
    8   C      8    1.8500  1.000      1.529760     -0.282891     -0.066528
    9   N      9    1.8900  1.000      2.604659     -0.745066     -0.102849
 ------------------------------------------------------------------------------
 GePol: Number of generator spheres                  =       9
 GePol: Total number of spheres                      =       9
 GePol: Number of exposed spheres                    =       9 (100.00%)
 GePol: Number of points                             =    1151
 GePol: Average weight of points                     =       0.14
 GePol: Minimum weight of points                     =   0.12D-09
 GePol: Maximum weight of points                     =    0.18138
 GePol: Number of points with low weight             =      36
 GePol: Fraction of low-weight points (<1% of avg)   =       3.13%
 GePol: Cavity surface area                          =    155.877 Ang**2
 GePol: Cavity volume                                =    143.616 Ang**3
 ------------------------------------------------------------------------------
 Atomic radii for non-electrostatic terms: SMD-CDS.
 ------------------------------------------------------------------------------
 PCM non-electrostatic energy =        -0.0003556067 Hartrees.
 Nuclear repulsion after PCM non-electrostatic terms =      251.2203283674 Hartrees.
 Leave Link  301 at Wed Jan  8 10:01:57 2020, MaxMem=  4294967296 cpu:               2.0 elap:               0.2
 (Enter /home/cwagen/sw/g16/g16/l302.exe)
 NPDir=0 NMtPBC=     1 NCelOv=     1 NCel=       1 NClECP=     1 NCelD=      1
         NCelK=      1 NCelE2=     1 NClLst=     1 CellRange=     0.0.
 One-electron integrals computed using PRISM.
 One-electron integral symmetry used in STVInt
 NBasis=   124 RedAO= T EigKep=  4.96D-05  NBF=   124
 NBsUse=   124 1.00D-06 EigRej= -1.00D+00 NBFU=   124
 Precomputing XC quadrature grid using
 IXCGrd= 4 IRadAn=           5 IRanWt=          -1 IRanGd=           0 AccXCQ= 0.00D+00.
 Generated NRdTot=       0 NPtTot=           0 NUsed=           0 NTot=          32
 NSgBfM=   124   124   124   124   124 MxSgAt=     9 MxSgA2=     9.
 Leave Link  302 at Wed Jan  8 10:01:57 2020, MaxMem=  4294967296 cpu:               4.1 elap:               0.3
 (Enter /home/cwagen/sw/g16/g16/l303.exe)
 DipDrv:  MaxL=1.
 Leave Link  303 at Wed Jan  8 10:01:57 2020, MaxMem=  4294967296 cpu:               0.6 elap:               0.1
 (Enter /home/cwagen/sw/g16/g16/l401.exe)
 ExpMin= 4.38D-02 ExpMax= 2.52D+04 ExpMxC= 3.78D+03 IAcc=3 IRadAn=         5 AccDes= 0.00D+00
 Harris functional with IExCor=  402 and IRadAn=       5 diagonalized for initial guess.
 HarFok:  IExCor=  402 AccDes= 0.00D+00 IRadAn=         5 IDoV= 1 UseB2=F ITyADJ=14
 ICtDFT=  3500011 ScaDFX=  1.000000  1.000000  1.000000  1.000000
 FoFCou: FMM=F IPFlag=           0 FMFlag=      100000 FMFlg1=           0
         NFxFlg=           0 DoJE=T BraDBF=F KetDBF=T FulRan=T
         wScrn=  0.000000 ICntrl=       500 IOpCl=  0 I1Cent=   200000004 NGrid=           0
         NMat0=    1 NMatS0=      1 NMatT0=    0 NMatD0=    1 NMtDS0=    0 NMtDT0=    0
 Petite list used in FoFCou.
 Harris En= -706.417432628941    
 JPrj=0 DoOrth=F DoCkMO=F.
 Leave Link  401 at Wed Jan  8 10:01:58 2020, MaxMem=  4294967296 cpu:               8.9 elap:               0.6
 (Enter /home/cwagen/sw/g16/g16/l502.exe)
 Keep R1 ints in memory in canonical form, NReq=45236517.
 FoFCou: FMM=F IPFlag=           0 FMFlag=           0 FMFlg1=           0
         NFxFlg=           0 DoJE=F BraDBF=F KetDBF=F FulRan=T
         wScrn=  0.000000 ICntrl=       600 IOpCl=  0 I1Cent=           0 NGrid=           0
         NMat0=    1 NMatS0=   7750 NMatT0=    0 NMatD0=    1 NMtDS0=    0 NMtDT0=    0
 Symmetry not used in FoFCou.
 Two-electron integral symmetry not used.
 Closed shell SCF:
 Using DIIS extrapolation, IDIIS=  1040.
 NGot=  4294967296 LenX=  4264898079 LenY=  4264882262
 Requested convergence on RMS density matrix=1.00D-08 within 128 cycles.
 Requested convergence on MAX density matrix=1.00D-06.
 Requested convergence on             energy=1.00D-06.
 No special actions if energy rises.

 Cycle   1  Pass 1  IDiag  1:
 Inv3:  Mode=1 IEnd=     3974403.
 Iteration    1 A*A^-1 deviation from unit magnitude is 3.44D-15 for   1146.
 Iteration    1 A*A^-1 deviation from orthogonality  is 2.05D-15 for   1151    887.
 Iteration    1 A^-1*A deviation from unit magnitude is 3.66D-15 for   1146.
 Iteration    1 A^-1*A deviation from orthogonality  is 1.55D-15 for   1148   1014.
 E= -706.210967359654    
 DIIS: error= 2.69D-02 at cycle   1 NSaved=   1.
 NSaved= 1 IEnMin= 1 EnMin= -706.210967359654     IErMin= 1 ErrMin= 2.69D-02
 ErrMax= 2.69D-02  0.00D+00 EMaxC= 1.00D-01 BMatC= 2.36D-01 BMatP= 2.36D-01
 IDIUse=3 WtCom= 7.31D-01 WtEn= 2.69D-01
 Coeff-Com:  0.100D+01
 Coeff-En:   0.100D+01
 Coeff:      0.100D+01
 Gap=     0.344 Goal=   None    Shift=    0.000
 GapD=    0.344 DampG=1.000 DampE=0.500 DampFc=0.5000 IDamp=-1.
 Damping current iteration by 5.00D-01
 RMSDP=1.64D-02 MaxDP=3.59D-01              OVMax= 4.00D-01

 Cycle   2  Pass 1  IDiag  1:
 E= -706.192688635922     Delta-E=        0.018278723732 Rises=F Damp=T
 DIIS: error= 1.43D-02 at cycle   2 NSaved=   2.
 NSaved= 2 IEnMin= 1 EnMin= -706.210967359654     IErMin= 2 ErrMin= 1.43D-02
 ErrMax= 1.43D-02  0.00D+00 EMaxC= 1.00D-01 BMatC= 8.78D-02 BMatP= 2.36D-01
 IDIUse=3 WtCom= 8.57D-01 WtEn= 1.43D-01
 Coeff-Com:  0.352D+00 0.648D+00
 Coeff-En:   0.532D+00 0.468D+00
 Coeff:      0.378D+00 0.622D+00
 Gap=     0.223 Goal=   None    Shift=    0.000
 RMSDP=6.02D-03 MaxDP=1.33D-01 DE= 1.83D-02 OVMax= 2.86D-01

 Cycle   3  Pass 1  IDiag  1:
 E= -706.378396397363     Delta-E=       -0.185707761440 Rises=F Damp=F
 DIIS: error= 1.15D-02 at cycle   3 NSaved=   3.
 NSaved= 3 IEnMin= 3 EnMin= -706.378396397363     IErMin= 3 ErrMin= 1.15D-02
 ErrMax= 1.15D-02  0.00D+00 EMaxC= 1.00D-01 BMatC= 3.90D-02 BMatP= 8.78D-02
 IDIUse=3 WtCom= 8.85D-01 WtEn= 1.15D-01
 Coeff-Com:  0.134D+00 0.399D+00 0.467D+00
 Coeff-En:   0.000D+00 0.000D+00 0.100D+01
 Coeff:      0.119D+00 0.353D+00 0.529D+00
 Gap=     0.256 Goal=   None    Shift=    0.000
 RMSDP=3.32D-03 MaxDP=7.03D-02 DE=-1.86D-01 OVMax= 6.60D-02

 Cycle   4  Pass 1  IDiag  1:
 E= -706.413700455748     Delta-E=       -0.035304058386 Rises=F Damp=F
 DIIS: error= 2.72D-03 at cycle   4 NSaved=   4.
 NSaved= 4 IEnMin= 4 EnMin= -706.413700455748     IErMin= 4 ErrMin= 2.72D-03
 ErrMax= 2.72D-03  0.00D+00 EMaxC= 1.00D-01 BMatC= 2.66D-03 BMatP= 3.90D-02
 IDIUse=3 WtCom= 9.73D-01 WtEn= 2.72D-02
 Coeff-Com:  0.570D-02 0.415D-01 0.224D+00 0.729D+00
 Coeff-En:   0.000D+00 0.000D+00 0.363D-02 0.996D+00
 Coeff:      0.554D-02 0.403D-01 0.218D+00 0.736D+00
 Gap=     0.245 Goal=   None    Shift=    0.000
 RMSDP=6.89D-04 MaxDP=1.49D-02 DE=-3.53D-02 OVMax= 1.13D-02

 Cycle   5  Pass 1  IDiag  1:
 E= -706.415976860584     Delta-E=       -0.002276404836 Rises=F Damp=F
 DIIS: error= 7.59D-04 at cycle   5 NSaved=   5.
 NSaved= 5 IEnMin= 5 EnMin= -706.415976860584     IErMin= 5 ErrMin= 7.59D-04
 ErrMax= 7.59D-04  0.00D+00 EMaxC= 1.00D-01 BMatC= 1.22D-04 BMatP= 2.66D-03
 IDIUse=3 WtCom= 9.92D-01 WtEn= 7.59D-03
 Coeff-Com: -0.191D-02 0.452D-02 0.824D-01 0.342D+00 0.573D+00
 Coeff-En:   0.000D+00 0.000D+00 0.000D+00 0.000D+00 0.100D+01
 Coeff:     -0.190D-02 0.449D-02 0.818D-01 0.339D+00 0.576D+00
 Gap=     0.244 Goal=   None    Shift=    0.000
 RMSDP=1.64D-04 MaxDP=5.34D-03 DE=-2.28D-03 OVMax= 3.46D-03

 Cycle   6  Pass 1  IDiag  1:
 E= -706.416101334491     Delta-E=       -0.000124473907 Rises=F Damp=F
 DIIS: error= 1.34D-04 at cycle   6 NSaved=   6.
 NSaved= 6 IEnMin= 6 EnMin= -706.416101334491     IErMin= 6 ErrMin= 1.34D-04
 ErrMax= 1.34D-04  0.00D+00 EMaxC= 1.00D-01 BMatC= 5.44D-06 BMatP= 1.22D-04
 IDIUse=3 WtCom= 9.99D-01 WtEn= 1.34D-03
 Coeff-Com: -0.622D-03 0.157D-03 0.208D-01 0.885D-01 0.229D+00 0.663D+00
 Coeff-En:   0.000D+00 0.000D+00 0.000D+00 0.000D+00 0.000D+00 0.100D+01
 Coeff:     -0.621D-03 0.157D-03 0.208D-01 0.884D-01 0.228D+00 0.663D+00
 Gap=     0.244 Goal=   None    Shift=    0.000
 RMSDP=3.74D-05 MaxDP=7.58D-04 DE=-1.24D-04 OVMax= 8.89D-04

 Cycle   7  Pass 1  IDiag  1:
 E= -706.416104341510     Delta-E=       -0.000003007019 Rises=F Damp=F
 DIIS: error= 9.86D-05 at cycle   7 NSaved=   7.
 NSaved= 7 IEnMin= 7 EnMin= -706.416104341510     IErMin= 7 ErrMin= 9.86D-05
 ErrMax= 9.86D-05  0.00D+00 EMaxC= 1.00D-01 BMatC= 2.62D-06 BMatP= 5.44D-06
 IDIUse=1 WtCom= 1.00D+00 WtEn= 0.00D+00
 Coeff-Com: -0.268D-03-0.878D-03 0.595D-02 0.273D-01 0.103D+00 0.455D+00
 Coeff-Com:  0.411D+00
 Coeff:     -0.268D-03-0.878D-03 0.595D-02 0.273D-01 0.103D+00 0.455D+00
 Coeff:      0.411D+00
 Gap=     0.244 Goal=   None    Shift=    0.000
 RMSDP=1.29D-05 MaxDP=3.56D-04 DE=-3.01D-06 OVMax= 5.52D-04

 Cycle   8  Pass 1  IDiag  1:
 E= -706.416106505270     Delta-E=       -0.000002163760 Rises=F Damp=F
 DIIS: error= 1.49D-05 at cycle   8 NSaved=   8.
 NSaved= 8 IEnMin= 8 EnMin= -706.416106505270     IErMin= 8 ErrMin= 1.49D-05
 ErrMax= 1.49D-05  0.00D+00 EMaxC= 1.00D-01 BMatC= 1.12D-07 BMatP= 2.62D-06
 IDIUse=1 WtCom= 1.00D+00 WtEn= 0.00D+00
 Coeff-Com: -0.240D-05-0.462D-03 0.455D-03 0.240D-02 0.266D-01 0.172D+00
 Coeff-Com:  0.222D+00 0.577D+00
 Coeff:     -0.240D-05-0.462D-03 0.455D-03 0.240D-02 0.266D-01 0.172D+00
 Coeff:      0.222D+00 0.577D+00
 Gap=     0.244 Goal=   None    Shift=    0.000
 RMSDP=5.88D-06 MaxDP=9.49D-05 DE=-2.16D-06 OVMax= 1.42D-04

 Cycle   9  Pass 1  IDiag  1:
 E= -706.416106596687     Delta-E=       -0.000000091417 Rises=F Damp=F
 DIIS: error= 8.81D-06 at cycle   9 NSaved=   9.
 NSaved= 9 IEnMin= 9 EnMin= -706.416106596687     IErMin= 9 ErrMin= 8.81D-06
 ErrMax= 8.81D-06  0.00D+00 EMaxC= 1.00D-01 BMatC= 1.98D-08 BMatP= 1.12D-07
 IDIUse=1 WtCom= 1.00D+00 WtEn= 0.00D+00
 Coeff-Com:  0.247D-04-0.146D-03-0.262D-03-0.103D-02 0.347D-02 0.393D-01
 Coeff-Com:  0.677D-01 0.340D+00 0.551D+00
 Coeff:      0.247D-04-0.146D-03-0.262D-03-0.103D-02 0.347D-02 0.393D-01
 Coeff:      0.677D-01 0.340D+00 0.551D+00
 Gap=     0.244 Goal=   None    Shift=    0.000
 RMSDP=2.70D-06 MaxDP=8.16D-05 DE=-9.14D-08 OVMax= 3.71D-05

 Cycle  10  Pass 1  IDiag  1:
 E= -706.416106617047     Delta-E=       -0.000000020360 Rises=F Damp=F
 DIIS: error= 1.49D-06 at cycle  10 NSaved=  10.
 NSaved=10 IEnMin=10 EnMin= -706.416106617047     IErMin=10 ErrMin= 1.49D-06
 ErrMax= 1.49D-06  0.00D+00 EMaxC= 1.00D-01 BMatC= 3.89D-10 BMatP= 1.98D-08
 IDIUse=1 WtCom= 1.00D+00 WtEn= 0.00D+00
 Coeff-Com:  0.388D-05-0.102D-04-0.179D-03-0.675D-03-0.114D-02-0.127D-02
 Coeff-Com:  0.333D-02 0.672D-01 0.168D+00 0.765D+00
 Coeff:      0.388D-05-0.102D-04-0.179D-03-0.675D-03-0.114D-02-0.127D-02
 Coeff:      0.333D-02 0.672D-01 0.168D+00 0.765D+00
 Gap=     0.244 Goal=   None    Shift=    0.000
 RMSDP=7.54D-07 MaxDP=2.10D-05 DE=-2.04D-08 OVMax= 7.81D-06

 Cycle  11  Pass 1  IDiag  1:
 E= -706.416106617456     Delta-E=       -0.000000000410 Rises=F Damp=F
 DIIS: error= 3.18D-07 at cycle  11 NSaved=  11.
 NSaved=11 IEnMin=11 EnMin= -706.416106617456     IErMin=11 ErrMin= 3.18D-07
 ErrMax= 3.18D-07  0.00D+00 EMaxC= 1.00D-01 BMatC= 3.72D-11 BMatP= 3.89D-10
 IDIUse=1 WtCom= 1.00D+00 WtEn= 0.00D+00
 Coeff-Com: -0.155D-05 0.837D-05-0.547D-04-0.192D-03-0.562D-03-0.246D-02
 Coeff-Com: -0.224D-02 0.745D-02 0.244D-01 0.264D+00 0.709D+00
 Coeff:     -0.155D-05 0.837D-05-0.547D-04-0.192D-03-0.562D-03-0.246D-02
 Coeff:     -0.224D-02 0.745D-02 0.244D-01 0.264D+00 0.709D+00
 Gap=     0.244 Goal=   None    Shift=    0.000
 RMSDP=1.17D-07 MaxDP=3.00D-06 DE=-4.10D-10 OVMax= 2.60D-06

 Cycle  12  Pass 1  IDiag  1:
 E= -706.416106617494     Delta-E=       -0.000000000038 Rises=F Damp=F
 DIIS: error= 9.70D-08 at cycle  12 NSaved=  12.
 NSaved=12 IEnMin=12 EnMin= -706.416106617494     IErMin=12 ErrMin= 9.70D-08
 ErrMax= 9.70D-08  0.00D+00 EMaxC= 1.00D-01 BMatC= 4.49D-12 BMatP= 3.72D-11
 IDIUse=1 WtCom= 1.00D+00 WtEn= 0.00D+00
 Coeff-Com: -0.188D-05 0.515D-05-0.106D-04-0.273D-04-0.146D-03-0.979D-03
 Coeff-Com: -0.126D-02-0.171D-02-0.385D-02 0.576D-01 0.315D+00 0.635D+00
 Coeff:     -0.188D-05 0.515D-05-0.106D-04-0.273D-04-0.146D-03-0.979D-03
 Coeff:     -0.126D-02-0.171D-02-0.385D-02 0.576D-01 0.315D+00 0.635D+00
 Gap=     0.244 Goal=   None    Shift=    0.000
 RMSDP=3.77D-08 MaxDP=9.91D-07 DE=-3.76D-11 OVMax= 1.01D-06

 Cycle  13  Pass 1  IDiag  1:
 E= -706.416106617498     Delta-E=       -0.000000000004 Rises=F Damp=F
 DIIS: error= 1.86D-08 at cycle  13 NSaved=  13.
 NSaved=13 IEnMin=13 EnMin= -706.416106617498     IErMin=13 ErrMin= 1.86D-08
 ErrMax= 1.86D-08  0.00D+00 EMaxC= 1.00D-01 BMatC= 1.77D-13 BMatP= 4.49D-12
 IDIUse=1 WtCom= 1.00D+00 WtEn= 0.00D+00
 Coeff-Com: -0.453D-06 0.729D-06 0.449D-06 0.364D-05 0.711D-05 0.866D-05
 Coeff-Com: -0.458D-04-0.808D-03-0.299D-02-0.956D-02 0.988D-02 0.163D+00
 Coeff-Com:  0.841D+00
 Coeff:     -0.453D-06 0.729D-06 0.449D-06 0.364D-05 0.711D-05 0.866D-05
 Coeff:     -0.458D-04-0.808D-03-0.299D-02-0.956D-02 0.988D-02 0.163D+00
 Coeff:      0.841D+00
 Gap=     0.244 Goal=   None    Shift=    0.000
 RMSDP=7.60D-09 MaxDP=2.26D-07 DE=-3.64D-12 OVMax= 2.08D-07

 Error on total polarization charges =  0.02305
 SCF Done:  E(RB3LYP) =  -706.416106617     A.U. after   13 cycles
            NFock= 13  Conv=0.76D-08     -V/T= 2.0054
 KE= 7.026144563296D+02 PE=-2.180999613293D+03 EE= 5.207487219788D+02
 SMD-CDS (non-electrostatic) energy       (kcal/mol) =      -0.22
 (included in total energy above)
 Leave Link  502 at Wed Jan  8 10:02:13 2020, MaxMem=  4294967296 cpu:             215.4 elap:              14.7
 (Enter /home/cwagen/sw/g16/g16/l801.exe)
 DoSCS=F DFT=T ScalE2(SS,OS)=  1.000000  1.000000
 Range of M.O.s used for correlation:     1   124
 NBasis=   124 NAE=    27 NBE=    27 NFC=     0 NFV=     0
 NROrb=    124 NOA=    27 NOB=    27 NVA=    97 NVB=    97

 **** Warning!!: The largest alpha MO coefficient is  0.57434795D+02

 Leave Link  801 at Wed Jan  8 10:02:13 2020, MaxMem=  4294967296 cpu:               1.0 elap:               0.1
 (Enter /home/cwagen/sw/g16/g16/l1101.exe)
 Using compressed storage, NAtomX=     9.
 Will process     10 centers per pass.
 Leave Link 1101 at Wed Jan  8 10:02:13 2020, MaxMem=  4294967296 cpu:               3.4 elap:               0.3
 (Enter /home/cwagen/sw/g16/g16/l1102.exe)
 Symmetrizing basis deriv contribution to polar:
 IMax=3 JMax=2 DiffMx= 0.00D+00
 Leave Link 1102 at Wed Jan  8 10:02:13 2020, MaxMem=  4294967296 cpu:               0.6 elap:               0.1
 (Enter /home/cwagen/sw/g16/g16/l1110.exe)
 Forming Gx(P) for the SCF density, NAtomX=     9.
 Integral derivatives from FoFJK, PRISM(SPDF).
 Do as many integral derivatives as possible in FoFJK.
 G2DrvN: MDV=    4294966512.
 G2DrvN: will do    10 centers at a time, making    1 passes.
 Calling FoFCou, ICntrl=  3107 FMM=F I1Cent=   0 AccDes= 0.00D+00.
 FoFJK:  IHMeth= 1 ICntrl=    3107 DoSepK=F KAlg= 0 I1Cent=           0 FoldK=F
 IRaf=         0 NMat=       1 IRICut=       1 DoRegI=T DoRafI=F ISym2E= 0 IDoP0=0 IntGTp=1.
 FoFCou: FMM=F IPFlag=           0 FMFlag=      100000 FMFlg1=           0
         NFxFlg=           0 DoJE=F BraDBF=F KetDBF=F FulRan=T
         wScrn=  0.000000 ICntrl=      3107 IOpCl=  0 I1Cent=           0 NGrid=           0
         NMat0=    1 NMatS0=      1 NMatT0=    0 NMatD0=    1 NMtDS0=    0 NMtDT0=    0
 Symmetry not used in FoFCou.
 NEqPCM:  Using equilibrium solvation (IEInf=0, Eps=   7.4257, EpsInf=   1.9740)
 G2PCM: DoFxE=T DoFxN=T DoGrad=T DoDP/DQ/DG/TGxP=FFFF NFrqRd=   0 IEInf=0 SqF1=F DoCFld=F IF1Alg=4.
 GePol: Maximum number of non-zero 1st derivatives   =     342
 End of G2Drv F.D. properties file   721 does not exist.
 End of G2Drv F.D. properties file   722 does not exist.
 End of G2Drv F.D. properties file   788 does not exist.
 Leave Link 1110 at Wed Jan  8 10:02:27 2020, MaxMem=  4294967296 cpu:             219.5 elap:              13.9
 (Enter /home/cwagen/sw/g16/g16/l1002.exe)
 Minotr:  Closed shell wavefunction.
          IDoAtm=111111111
 NEqPCM:  Using equilibrium solvation (IEInf=0, Eps=   7.4257, EpsInf=   1.9740)
          Direct CPHF calculation.
          Differentiating once with respect to nuclear coordinates.
          Requested convergence is 1.0D-08 RMS, and 1.0D-07 maximum.
          Secondary convergence is 1.0D-12 RMS, and 1.0D-12 maximum.
          NewPWx=T KeepS1=F KeepF1=F KeepIn=T MapXYZ=F SortEE=F KeepMc=T.
         2718 words used for storage of precomputed grid.
 Keep R1 ints in memory in canonical form, NReq=45189103.
 FoFCou: FMM=F IPFlag=           0 FMFlag=           0 FMFlg1=           0
         NFxFlg=           0 DoJE=F BraDBF=F KetDBF=F FulRan=T
         wScrn=  0.000000 ICntrl=       600 IOpCl=  0 I1Cent=           0 NGrid=           0
         NMat0=    1 NMatS0=   7750 NMatT0=    0 NMatD0=    1 NMtDS0=    0 NMtDT0=    0
 Symmetry not used in FoFCou.
 Two-electron integral symmetry not used.
          MDV=    4294967296 using IRadAn=       1.
          Solving linear equations simultaneously, MaxMat=       0.
          There are    30 degrees of freedom in the 1st order CPHF.  IDoFFX=6 NUNeed=     0.
     24 vectors produced by pass  0 Test12= 8.73D-15 3.33D-09 XBig12= 2.21D-01 1.57D-01.
 AX will form    24 AO Fock derivatives at one time.
     24 vectors produced by pass  1 Test12= 8.73D-15 3.33D-09 XBig12= 5.55D-02 4.84D-02.
     24 vectors produced by pass  2 Test12= 8.73D-15 3.33D-09 XBig12= 1.70D-03 9.12D-03.
     24 vectors produced by pass  3 Test12= 8.73D-15 3.33D-09 XBig12= 1.05D-05 7.22D-04.
     24 vectors produced by pass  4 Test12= 8.73D-15 3.33D-09 XBig12= 2.98D-08 2.94D-05.
     23 vectors produced by pass  5 Test12= 8.73D-15 3.33D-09 XBig12= 5.47D-11 1.19D-06.
      7 vectors produced by pass  6 Test12= 8.73D-15 3.33D-09 XBig12= 9.11D-14 4.02D-08.
 InvSVY:  IOpt=1 It=  1 EMax= 1.22D-15
 Solved reduced A of dimension   150 with    24 vectors.
 End of Minotr F.D. properties file   721 does not exist.
 End of Minotr F.D. properties file   722 does not exist.
 End of Minotr F.D. properties file   788 does not exist.
 Leave Link 1002 at Wed Jan  8 10:02:39 2020, MaxMem=  4294967296 cpu:             189.4 elap:              12.0
 (Enter /home/cwagen/sw/g16/g16/l601.exe)
 Copying SCF densities to generalized density rwf, IOpCl= 0 IROHF=0.

 **********************************************************************

            Population analysis using the SCF density.

 **********************************************************************

 Orbital symmetries:
       Occupied  (A) (A) (A) (A) (A) (A) (A) (A) (A) (A) (A) (A)
                 (A) (A) (A) (A) (A) (A) (A) (A) (A) (A) (A) (A)
                 (A) (A) (A)
       Virtual   (A) (A) (A) (A) (A) (A) (A) (A) (A) (A) (A) (A)
                 (A) (A) (A) (A) (A) (A) (A) (A) (A) (A) (A) (A)
                 (A) (A) (A) (A) (A) (A) (A) (A) (A) (A) (A) (A)
                 (A) (A) (A) (A) (A) (A) (A) (A) (A) (A) (A) (A)
                 (A) (A) (A) (A) (A) (A) (A) (A) (A) (A) (A) (A)
                 (A) (A) (A) (A) (A) (A) (A) (A) (A) (A) (A) (A)
                 (A) (A) (A) (A) (A) (A) (A) (A) (A) (A) (A) (A)
                 (A) (A) (A) (A) (A) (A) (A) (A) (A) (A) (A) (A)
                 (A)
 The electronic state is 1-A.
 Alpha  occ. eigenvalues -- -101.47708 -19.10960 -14.29987 -10.30554 -10.18088
 Alpha  occ. eigenvalues --  -10.17123  -9.39354  -7.15513  -7.14895  -7.14883
 Alpha  occ. eigenvalues --   -1.01828  -0.86014  -0.76677  -0.71117  -0.53398
 Alpha  occ. eigenvalues --   -0.45695  -0.43058  -0.41188  -0.37820  -0.36038
 Alpha  occ. eigenvalues --   -0.34573  -0.30743  -0.30175  -0.26515  -0.26249
 Alpha  occ. eigenvalues --   -0.24281  -0.23587
 Alpha virt. eigenvalues --    0.00825   0.02595   0.04090   0.05492   0.05690
 Alpha virt. eigenvalues --    0.07243   0.07394   0.08394   0.09478   0.10147
 Alpha virt. eigenvalues --    0.10375   0.10479   0.12189   0.13304   0.13852
 Alpha virt. eigenvalues --    0.14324   0.14717   0.16968   0.18374   0.22241
 Alpha virt. eigenvalues --    0.24042   0.25245   0.25285   0.25822   0.27428
 Alpha virt. eigenvalues --    0.28695   0.29344   0.30591   0.34832   0.35824
 Alpha virt. eigenvalues --    0.37826   0.40879   0.45602   0.59803   0.61012
 Alpha virt. eigenvalues --    0.65427   0.66819   0.68012   0.69098   0.70195
 Alpha virt. eigenvalues --    0.73588   0.76185   0.77252   0.79191   0.81304
 Alpha virt. eigenvalues --    0.85807   0.89181   0.94546   0.95828   0.96856
 Alpha virt. eigenvalues --    1.00215   1.01129   1.02475   1.03624   1.05663
 Alpha virt. eigenvalues --    1.09499   1.13422   1.16124   1.19429   1.30419
 Alpha virt. eigenvalues --    1.33146   1.34736   1.36885   1.49632   1.52290
 Alpha virt. eigenvalues --    1.54973   1.57924   1.59100   1.60837   1.66086
 Alpha virt. eigenvalues --    1.70267   1.79240   1.84303   1.87336   1.93035
 Alpha virt. eigenvalues --    1.96912   2.00262   2.01439   2.05589   2.17250
 Alpha virt. eigenvalues --    2.26927   2.28917   2.37374   2.53729   2.55670
 Alpha virt. eigenvalues --    2.65206   2.71800   2.77662   2.87043   3.11017
 Alpha virt. eigenvalues --    3.11791   4.09972   4.19754   4.32332   4.37377
 Alpha virt. eigenvalues --    4.40933   4.55845
          Condensed to atoms (all electrons):
               1          2          3          4          5          6
     1  C    5.551912   0.625618   0.257749  -0.071120  -0.039955  -0.047740
     2  O    0.625618   8.236895  -0.167068   0.008492  -0.003370  -0.002951
     3  C    0.257749  -0.167068   5.751538   0.382947   0.363205   0.379889
     4  H   -0.071120   0.008492   0.382947   0.476819  -0.025092  -0.026615
     5  H   -0.039955  -0.003370   0.363205  -0.025092   0.476563  -0.024302
     6  H   -0.047740  -0.002951   0.379889  -0.026615  -0.024302   0.482681
     7  Cl  -0.034359  -0.130183  -0.114069   0.006080  -0.005763   0.009962
     8  C   -0.399831  -0.171656  -0.259075   0.011051   0.021466  -0.007173
     9  N   -0.003475  -0.004780  -0.009361  -0.000324   0.000051  -0.000995
               7          8          9
     1  C   -0.034359  -0.399831  -0.003475
     2  O   -0.130183  -0.171656  -0.004780
     3  C   -0.114069  -0.259075  -0.009361
     4  H    0.006080   0.011051  -0.000324
     5  H   -0.005763   0.021466   0.000051
     6  H    0.009962  -0.007173  -0.000995
     7  Cl  17.619911  -0.019047  -0.017794
     8  C   -0.019047   6.128947   0.613733
     9  N   -0.017794   0.613733   7.086447
 Mulliken charges:
               1
     1  C    0.161200
     2  O   -0.390998
     3  C   -0.585754
     4  H    0.237762
     5  H    0.237200
     6  H    0.237244
     7  Cl  -0.314737
     8  C    0.081585
     9  N   -0.663502
 Sum of Mulliken charges =  -1.00000
 Mulliken charges with hydrogens summed into heavy atoms:
               1
     1  C    0.161200
     2  O   -0.390998
     3  C    0.126452
     7  Cl  -0.314737
     8  C    0.081585
     9  N   -0.663502
 APT charges:
               1
     1  C   -0.222935
     2  O   -0.246057
     3  C   -1.199808
     4  H    0.396935
     5  H    0.493554
     6  H    0.496640
     7  Cl  -0.253438
     8  C   -0.730593
     9  N    0.265702
 Sum of APT charges =  -1.00000
 APT charges with hydrogens summed into heavy atoms:
               1
     1  C   -0.222935
     2  O   -0.246057
     3  C    0.187321
     7  Cl  -0.253438
     8  C   -0.730593
     9  N    0.265702
 Electronic spatial extent (au):  <R**2>=            745.5128
 Charge=             -1.0000 electrons
 Dipole moment (field-independent basis, Debye):
    X=             -3.3353    Y=              3.5696    Z=             -3.0443  Tot=              5.7563
 Quadrupole moment (field-independent basis, Debye-Ang):
   XX=            -67.5131   YY=            -50.0310   ZZ=            -49.9618
   XY=              2.6618   XZ=              1.5767   YZ=             -4.6794
 Traceless Quadrupole moment (field-independent basis, Debye-Ang):
   XX=            -11.6778   YY=              5.8043   ZZ=              5.8735
   XY=              2.6618   XZ=              1.5767   YZ=             -4.6794
 Octapole moment (field-independent basis, Debye-Ang**2):
  XXX=            -58.5056  YYY=              8.9608  ZZZ=             -5.9057  XYY=             -5.2117
  XXY=             21.8208  XXZ=              3.2201  XZZ=             -1.9274  YZZ=             -2.8611
  YYZ=             -3.5296  XYZ=              0.6094
 Hexadecapole moment (field-independent basis, Debye-Ang**3):
 XXXX=           -728.7150 YYYY=           -326.5381 ZZZZ=           -193.1470 XXXY=             44.9421
 XXXZ=              7.7931 YYYX=             10.9486 YYYZ=             -4.6378 ZZZX=              2.2282
 ZZZY=             -5.4204 XXYY=           -161.8093 XXZZ=           -127.8850 YYZZ=            -91.6705
 XXYZ=             -2.5233 YYXZ=              2.1616 ZZXY=              2.6206
 N-N= 2.512203283674D+02 E-N=-2.180999610676D+03  KE= 7.026144563296D+02
  Exact polarizability:   0.000   0.000   0.000   0.000   0.000   0.000
 Approx polarizability: 112.905  -1.737 100.760  -1.736  16.024  80.714
 No NMR shielding tensors so no spin-rotation constants.
 Leave Link  601 at Wed Jan  8 10:02:40 2020, MaxMem=  4294967296 cpu:               2.7 elap:               0.2
 (Enter /home/cwagen/sw/g16/g16/l701.exe)
 ... and contract with generalized density number  0.
 Compute integral second derivatives.
 D2PCM: PCM CHGder 2nd derivatives, FixD1E=F FixD2E=F DoIter=F DoCFld=F I1PDM=0
 GePol: Maximum number of non-zero 2nd derivatives   =     342
 Leave Link  701 at Wed Jan  8 10:02:45 2020, MaxMem=  4294967296 cpu:              87.6 elap:               5.5
 (Enter /home/cwagen/sw/g16/g16/l702.exe)
 L702 exits ... SP integral derivatives will be done elsewhere.
 Leave Link  702 at Wed Jan  8 10:02:45 2020, MaxMem=  4294967296 cpu:               0.5 elap:               0.1
 (Enter /home/cwagen/sw/g16/g16/l703.exe)
 Integral derivatives from FoFJK, PRISM(SPDF).
 Compute integral second derivatives, UseDBF=F ICtDFT=           0.
 Calling FoFJK, ICntrl=    100147 FMM=F ISym2X=0 I1Cent= 0 IOpClX= 0 NMat=1 NMatS=1 NMatT=0.
 FoFJK:  IHMeth= 1 ICntrl=  100147 DoSepK=F KAlg= 0 I1Cent=           0 FoldK=F
 IRaf=         0 NMat=       1 IRICut=       1 DoRegI=T DoRafI=F ISym2E= 0 IDoP0=0 IntGTp=1.
 FoFCou: FMM=F IPFlag=           0 FMFlag=      100000 FMFlg1=         800
         NFxFlg=           0 DoJE=F BraDBF=F KetDBF=F FulRan=T
         wScrn=  0.000000 ICntrl=    100147 IOpCl=  0 I1Cent=           0 NGrid=           0
         NMat0=    1 NMatS0=      1 NMatT0=    0 NMatD0=    1 NMtDS0=    0 NMtDT0=    0
 Symmetry not used in FoFCou.
 Leave Link  703 at Wed Jan  8 10:03:00 2020, MaxMem=  4294967296 cpu:             234.5 elap:              14.7
 (Enter /home/cwagen/sw/g16/g16/l716.exe)
 Dipole        =-1.31222343D+00 1.40439385D+00-1.19772949D+00
 Polarizability= 0.00000000D+00 0.00000000D+00 0.00000000D+00
                 0.00000000D+00 0.00000000D+00 0.00000000D+00
 ***** Axes restored to original set *****
 -------------------------------------------------------------------
 Center     Atomic                   Forces (Hartrees/Bohr)
 Number     Number              X              Y              Z
 -------------------------------------------------------------------
      1        6           0.025916456    0.004240801   -0.000410236
      2        8           0.000012257    0.000019783    0.000000682
      3        6          -0.000009004   -0.000017565   -0.000016517
      4        1          -0.000008586   -0.000030780    0.000004465
      5        1          -0.000009200   -0.000014229   -0.000007666
      6        1          -0.000013450   -0.000001350   -0.000029003
      7       17          -0.009007014   -0.012766411   -0.002680780
      8        6          -0.016889210    0.008548226    0.003136398
      9        7           0.000007752    0.000021525    0.000002657
 -------------------------------------------------------------------
 Cartesian Forces:  Max     0.025916456 RMS     0.006963578
 Force constants in Cartesian coordinates: 
                1             2             3             4             5 
      1  0.778450D-01
      2 -0.857122D-02  0.256059D+00
      3  0.886700D-02  0.383122D-01  0.836191D+00
      4 -0.691933D-01  0.132012D-01  0.372892D-01  0.669424D-01
      5  0.964528D-02 -0.117187D+00 -0.176274D+00 -0.142307D-01  0.142585D+00
      6  0.185891D-01 -0.120797D+00 -0.607728D+00 -0.457207D-01  0.206063D+00
      7 -0.570551D-01  0.128014D-01 -0.967763D-02  0.110985D-01 -0.209021D-02
      8  0.123677D-01 -0.110736D+00  0.623555D-01 -0.187132D-02  0.139556D-01
      9 -0.112084D-01  0.572675D-01 -0.152515D+00 -0.247462D-02  0.142477D-01
     10 -0.242133D-02 -0.237745D-02 -0.439433D-02  0.227056D-02  0.781002D-03
     11 -0.375277D-02  0.100328D-01  0.194738D-01  0.915800D-03 -0.132491D-02
     12  0.574425D-02 -0.208650D-01 -0.214127D-01 -0.138876D-02  0.538249D-02
     13 -0.557317D-02  0.628748D-03  0.133447D-02  0.151951D-02 -0.805696D-03
     14  0.176166D-01 -0.804457D-02 -0.439856D-03 -0.171020D-02  0.762976D-03
     15 -0.233168D-01  0.869223D-02 -0.800120D-03  0.178467D-02 -0.107607D-03
     16  0.373080D-03  0.289976D-02 -0.172259D-02  0.541742D-03  0.994460D-03
     17 -0.131106D-01 -0.149723D-01 -0.119889D-02  0.161516D-02  0.177512D-02
     18  0.169398D-01  0.181837D-01 -0.171895D-02 -0.123211D-02 -0.247478D-03
     19 -0.416511D-02  0.147276D-01  0.196100D-01  0.299977D-02 -0.206494D-01
     20  0.269527D-01  0.625156D-03  0.297327D-01 -0.157929D-01 -0.302835D-01
     21  0.111007D-01  0.902138D-02 -0.206969D-01 -0.152154D-01 -0.288668D-01
     22  0.290074D-01 -0.241105D-01 -0.391498D-01 -0.967625D-02  0.209868D-01
     23 -0.312934D-01 -0.283431D-01  0.236047D-01  0.170399D-01 -0.735931D-02
     24 -0.306625D-01  0.108996D-01 -0.422920D-01  0.316437D-01 -0.232528D-01
     25  0.311826D-01 -0.919957D-02 -0.121564D-01 -0.650291D-02  0.536854D-02
     26 -0.985418D-02  0.125663D-01  0.443392D-02  0.833051D-03 -0.292412D-02
     27  0.394667D-02 -0.714655D-03  0.109724D-01 -0.468593D-02  0.305562D-02
                6             7             8             9            10 
      6  0.679750D+00
      7  0.370225D-02  0.571533D+00
      8 -0.149598D-01  0.747807D-02  0.531599D+00
      9 -0.453204D-01 -0.147855D-01  0.710243D-01  0.536701D+00
     10 -0.648441D-03 -0.541575D-01  0.223568D-01  0.370460D-01  0.540580D-01
     11  0.354793D-02  0.230350D-01 -0.123717D+00 -0.126564D+00 -0.245231D-01
     12 -0.465082D-02  0.354200D-01 -0.118295D+00 -0.243910D+00 -0.387350D-01
     13 -0.367098D-03 -0.277765D+00  0.925465D-01  0.116343D-02 -0.266053D-02
     14 -0.128013D-02  0.904674D-01 -0.838696D-01 -0.661630D-03  0.141500D-01
     15  0.120289D-02  0.318098D-02 -0.141364D-02 -0.493029D-01  0.256121D-01
     16  0.942451D-03 -0.163665D+00 -0.132065D+00 -0.104747D-01  0.393203D-02
     17 -0.133917D-02 -0.130793D+00 -0.197230D+00 -0.132843D-01 -0.975335D-02
     18  0.194619D-02 -0.123075D-01 -0.149224D-01 -0.504469D-01 -0.188847D-01
     19 -0.249362D-01 -0.821316D-02 -0.903814D-02 -0.138818D-02 -0.483052D-03
     20 -0.416304D-01 -0.238672D-01 -0.229456D-01 -0.138656D-02 -0.766443D-03
     21 -0.105358D-01  0.633102D-02  0.981831D-02  0.166582D-02  0.369412D-03
     22  0.389772D-01 -0.155923D-01  0.753802D-02  0.721735D-03 -0.588475D-03
     23 -0.266910D-01  0.226788D-01 -0.686635D-02 -0.728147D-03  0.825953D-04
     24 -0.151715D-01 -0.147126D-01  0.735775D-02  0.455763D-02 -0.147446D-03
     25  0.946143D-02 -0.618386D-02  0.687687D-03  0.140024D-02  0.502493D-04
     26 -0.291337D-02  0.289386D-03 -0.189770D-03  0.851146D-04  0.499990D-04
     27  0.508050D-03  0.284897D-02 -0.964836D-03 -0.142930D-02 -0.217659D-03
               11            12            13            14            15 
     11  0.131491D+00
     12  0.130635D+00  0.263848D+00
     13  0.382090D-03  0.817323D-04  0.300061D+00
     14 -0.557469D-02  0.135110D-02 -0.101664D+00  0.879355D-01
     15 -0.876879D-02  0.226516D-02 -0.168649D-02 -0.162755D-02  0.486980D-01
     16  0.500727D-02 -0.476573D-03 -0.170314D-01 -0.225329D-01 -0.180910D-02
     17 -0.106036D-01  0.249759D-03  0.814635D-02  0.112333D-01  0.782420D-03
     18 -0.192024D-01  0.478375D-03  0.258412D-03  0.556386D-04 -0.600499D-03
     19 -0.741460D-03  0.446870D-03  0.133548D-02  0.106155D-03 -0.283529D-03
     20 -0.695539D-03  0.948447D-03 -0.312719D-03  0.528619D-03 -0.123874D-02
     21  0.107865D-02  0.169554D-02  0.234546D-03 -0.206004D-03  0.392479D-05
     22 -0.228687D-03 -0.986280D-03  0.355553D-03  0.227900D-02 -0.223284D-02
     23  0.431876D-03  0.625269D-03  0.108314D-02 -0.278513D-02  0.367367D-02
     24 -0.606444D-03  0.221112D-02 -0.110763D-02  0.356063D-02 -0.197806D-02
     25 -0.941203D-04 -0.106334D-03 -0.241333D-03  0.128812D-02 -0.124905D-02
     26 -0.403505D-04 -0.323916D-04 -0.432958D-05 -0.186456D-03  0.800443D-05
     27  0.405755D-03 -0.524667D-03  0.886193D-04 -0.752200D-03  0.511642D-03
               16            17            18            19            20 
     16  0.173433D+00
     17  0.144760D+00  0.212884D+00
     18  0.133592D-01  0.125997D-01  0.508291D-01
     19  0.181286D-02 -0.146733D-02  0.169964D-02  0.327413D-01
     20  0.772459D-03 -0.369265D-02  0.442872D-02  0.257161D-01  0.528195D-01
     21 -0.488769D-04  0.233471D-02 -0.582013D-03  0.172362D-02  0.499886D-02
     22  0.334787D-03  0.694296D-03 -0.562808D-04 -0.213464D-01 -0.995759D-02
     23  0.172303D-03  0.823968D-03 -0.108542D-02 -0.131516D-01  0.246622D-02
     24  0.351090D-03 -0.149268D-03  0.148059D-03  0.359683D-02  0.514934D-02
     25  0.268761D-03 -0.922291D-04  0.223511D-03 -0.468165D-02 -0.274438D-02
     26 -0.839583D-05 -0.217740D-03  0.189905D-03  0.449809D-02  0.117771D-02
     27 -0.120944D-03  0.499252D-05 -0.534079D-04 -0.469036D-03 -0.100235D-02
               21            22            23            24            25 
     21  0.245408D-01
     22 -0.344445D-02  0.102842D+01
     23  0.151001D-02 -0.427988D+00  0.242161D+00
     24  0.458337D-02 -0.276123D-01  0.145384D-01  0.650638D-01
     25 -0.105057D-02 -0.101091D+01  0.431376D+00  0.386509D-01  0.997022D+00
     26  0.310862D-03  0.430787D+00 -0.200529D+00 -0.174972D-01 -0.426590D+00
     27 -0.674743D-03  0.337831D-01 -0.154474D-01 -0.171224D-01 -0.351738D-01
               26            27 
     26  0.190343D+00
     27  0.154151D-01  0.781244D-02
 FormGI is forming the generalized inverse of G from B-inverse, IUseBI=4.
 Force constants in internal coordinates: 
                1             2             3             4             5 
      1  0.752840D+00
      2  0.255706D-01  0.278068D+00
      3  0.593182D-01  0.146172D-01  0.707641D-01
      4  0.668855D-01  0.137736D-01  0.228935D-01  0.943777D-03
      5  0.645412D-03  0.803973D-03  0.843182D-03  0.137834D-02  0.351180D+00
      6  0.358316D-03  0.364473D-02  0.378862D-03  0.173677D-02  0.207830D-02
      7  0.324297D-03  0.323803D-02  0.126191D-02  0.406863D-03  0.219083D-02
      8  0.116709D-01  0.155999D-02  0.602422D-02 -0.169872D-01  0.950824D-04
      9  0.334550D-01  0.169379D-01 -0.296464D-01 -0.218845D-01  0.886722D-02
     10  0.663524D-03 -0.195506D-01  0.107226D-01  0.822801D-02 -0.345194D-03
     11  0.436547D-02 -0.162477D-01  0.978554D-02  0.550760D-02 -0.130164D-02
     12 -0.234346D-01  0.131311D-01  0.227263D-01 -0.119421D-01 -0.579261D-02
     13 -0.241388D-01  0.115678D-01 -0.157674D-01  0.247781D-01 -0.390622D-02
     14 -0.756682D-03 -0.975058D-02  0.947670D-02  0.200287D-02  0.210913D-03
     15  0.629366D-02  0.204506D-01  0.823987D-03 -0.549170D-03  0.529250D-03
     16 -0.250320D-02  0.114993D-01 -0.367139D-02  0.848980D-02 -0.532920D-02
     17 -0.378918D-02  0.121556D-01  0.848263D-02 -0.189436D-02 -0.524460D-02
     18 -0.128807D-02 -0.155406D-01  0.474837D-03 -0.340021D-02  0.466466D-02
     19 -0.851381D-03 -0.157563D-01 -0.375793D-02  0.220401D-03  0.502387D-02
     20  0.204546D-02 -0.131331D-01 -0.236477D-02 -0.286788D-02  0.126751D-03
     21  0.286879D-03 -0.489268D-03  0.343531D-02 -0.438711D-02  0.905416D-04
     22 -0.392627D-02 -0.595954D-03 -0.133177D-02 -0.547529D-03 -0.365893D-03
     23  0.487993D-03  0.152047D-03 -0.126598D-01  0.121861D-01  0.229018D-03
     24  0.118924D-02  0.151817D-02 -0.140309D-01  0.133349D-01  0.279907D-02
     25  0.161564D-03 -0.109431D-02 -0.141674D-01  0.135221D-01 -0.285369D-02
     26  0.704787D-02  0.150982D-02  0.133949D-02 -0.101862D-01  0.164327D-02
     27  0.774913D-02  0.287594D-02 -0.316678D-04 -0.903740D-02  0.421332D-02
     28  0.672145D-02  0.263460D-03 -0.168157D-03 -0.885018D-02 -0.143945D-02
     29 -0.786809D-02 -0.165257D-02  0.129074D-01 -0.361427D-02 -0.971786D-03
     30 -0.716684D-02 -0.286445D-03  0.115363D-01 -0.246548D-02  0.159827D-02
     31 -0.819452D-02 -0.289893D-02  0.113998D-01 -0.227826D-02 -0.405450D-02
                6             7             8             9            10 
      6  0.340900D+00
      7  0.226318D-02  0.340397D+00
      8  0.682292D-03  0.960274D-04  0.118202D+01
      9 -0.335420D-02 -0.426456D-02 -0.495024D-02  0.147212D+00
     10  0.134363D-02 -0.140270D-02  0.180968D-02 -0.648423D-01  0.112059D+00
     11 -0.182568D-02  0.122333D-02  0.243611D-02 -0.568233D-01  0.286077D-01
     12 -0.205775D-02  0.729791D-02 -0.334242D-02 -0.284930D-01 -0.860187D-01
     13  0.744618D-02 -0.138666D-02  0.296162D-02 -0.236488D-01  0.289265D-02
     14 -0.444168D-03 -0.615500D-03  0.306763D-02 -0.528312D-02  0.179669D-01
     15 -0.552326D-02 -0.528859D-02 -0.374256D-03  0.171189D-01 -0.546248D-02
     16  0.243198D-02 -0.509020D-02  0.247238D-02 -0.772130D-02  0.336712D-02
     17 -0.507179D-02  0.152793D-02 -0.722964D-03 -0.707143D-02 -0.299595D-02
     18  0.405622D-02  0.106205D-03 -0.769741D-03 -0.356919D-02  0.119856D-02
     19  0.409702D-04  0.447385D-02  0.153702D-03 -0.348693D-02  0.312114D-02
     20  0.424678D-02  0.448983D-02 -0.758162D-03  0.447794D-02  0.867376D-03
     21 -0.713276D-03  0.677678D-03 -0.414812D-03 -0.287835D-02  0.271012D-02
     22  0.364527D-03 -0.267186D-03  0.335662D-02  0.340220D-02 -0.138973D-02
     23 -0.146657D-02  0.165027D-02  0.257591D-02  0.682389D-03 -0.630453D-02
     24  0.174717D-02 -0.504701D-02  0.305018D-02  0.188799D-02 -0.600114D-02
     25  0.532259D-02 -0.165286D-02  0.310171D-02 -0.911295D-03 -0.478368D-02
     26 -0.503030D-02  0.375119D-02 -0.330554D-02  0.106701D-01  0.491556D-02
     27 -0.181656D-02 -0.294608D-02 -0.283127D-02  0.118757D-01  0.521895D-02
     28  0.175886D-02  0.448059D-03 -0.277974D-02  0.907640D-02  0.643641D-02
     29 -0.374912D-02  0.469529D-02 -0.230194D-04 -0.103575D-01  0.105817D-02
     30 -0.535380D-03 -0.200198D-02  0.451252D-03 -0.915185D-02  0.136156D-02
     31  0.304004D-02  0.139216D-02  0.502783D-03 -0.119511D-01  0.257902D-02
               11            12            13            14            15 
     11  0.926887D-01
     12  0.904769D-03  0.148190D+00
     13 -0.759320D-01  0.513821D-02  0.135364D+00
     14  0.207119D-01 -0.343980D-01 -0.378999D-01  0.479768D-01
     15 -0.375102D-02 -0.549325D-02 -0.767026D-02  0.156241D-02  0.107913D+00
     16 -0.391932D-02 -0.240359D-02  0.151909D-01 -0.249926D-02 -0.206732D-01
     17  0.314875D-02  0.127311D-01 -0.290316D-02 -0.165451D-02 -0.208425D-01
     18  0.272303D-02  0.273068D-02 -0.304177D-02  0.619683D-03 -0.397421D-01
     19  0.712020D-03 -0.323941D-02  0.326870D-02  0.557006D-03 -0.391790D-01
     20  0.116810D-02 -0.425549D-02 -0.475694D-02  0.138010D-02  0.112072D-01
     21  0.973427D-02 -0.153313D-02 -0.158673D-01  0.949166D-02  0.144748D-02
     22 -0.136906D-01 -0.808052D-03  0.116187D-01  0.148843D-02 -0.160325D-02
     23  0.747833D-02 -0.874017D-02  0.658816D-02  0.141121D-02 -0.902561D-03
     24  0.583907D-02 -0.104526D-01  0.819167D-02  0.148867D-02  0.408094D-02
     25  0.682162D-02 -0.979919D-02  0.923976D-02  0.850076D-03 -0.539569D-02
     26 -0.249014D-02  0.130137D-02 -0.604075D-02 -0.156208D-01  0.963075D-03
     27 -0.412939D-02 -0.411034D-03 -0.443724D-02 -0.155433D-01  0.594657D-02
     28 -0.314685D-02  0.242344D-03 -0.338915D-02 -0.161819D-01 -0.353005D-02
     29 -0.381510D-02  0.742323D-02 -0.284027D-02  0.143336D-01 -0.129842D-02
     30 -0.545436D-02  0.571083D-02 -0.123676D-02  0.144110D-01  0.368508D-02
     31 -0.447181D-02  0.636421D-02 -0.188670D-03  0.137724D-01 -0.579155D-02
               16            17            18            19            20 
     16  0.105277D+00
     17 -0.156810D-01  0.106292D+00
     18 -0.418121D-01  0.113298D-01  0.512590D-01
     19  0.111925D-01 -0.421443D-01  0.957760D-02  0.510862D-01
     20 -0.381167D-01 -0.386731D-01  0.952254D-02  0.965689D-02  0.469789D-01
     21 -0.302545D-02  0.281585D-03  0.550970D-03 -0.624314D-04  0.777490D-03
     22  0.118657D-02  0.174224D-03  0.289835D-03  0.559910D-03 -0.593776D-03
     23 -0.152457D-02  0.238288D-02 -0.669221D-02  0.700473D-02 -0.205026D-03
     24  0.431594D-02 -0.735339D-02  0.384911D-02  0.161429D-02 -0.698778D-02
     25  0.791137D-02 -0.323645D-02 -0.143521D-02 -0.404235D-02  0.665786D-02
     26 -0.660620D-02  0.555510D-02 -0.515631D-02  0.470358D-02  0.587867D-03
     27 -0.765683D-03 -0.418117D-02  0.538501D-02 -0.686867D-03 -0.619489D-02
     28  0.282974D-02 -0.642254D-04  0.100688D-03 -0.634350D-02  0.745075D-02
     29 -0.519914D-02  0.642787D-02 -0.468201D-02  0.541967D-02 -0.610962D-03
     30  0.641371D-03 -0.330841D-02  0.585931D-02  0.292236D-04 -0.739372D-02
     31  0.423680D-02  0.808541D-03  0.574988D-03 -0.562741D-02  0.625192D-02
               21            22            23            24            25 
     21  0.315623D-01
     22  0.533276D-03  0.175379D-01
     23 -0.102912D-02 -0.192670D-02  0.195435D-01
     24 -0.146841D-02 -0.178072D-02  0.953935D-02  0.199010D-01
     25 -0.204251D-02 -0.174163D-02  0.977701D-02  0.990488D-02  0.203491D-01
     26 -0.140259D-02 -0.169989D-02  0.326128D-03 -0.100111D-01 -0.985853D-02
     27 -0.184187D-02 -0.155391D-02 -0.967803D-02  0.350518D-03 -0.973067D-02
     28 -0.241597D-02 -0.151482D-02 -0.944037D-02 -0.964560D-02  0.713591D-03
     29  0.337485D-02  0.330879D-02  0.146124D-02 -0.876902D-02 -0.879028D-02
     30  0.293557D-02  0.345477D-02 -0.854291D-02  0.159262D-02 -0.866241D-02
     31  0.236146D-02  0.349386D-02 -0.830526D-02 -0.840350D-02  0.178185D-02
               26            27            28            29            30 
     26  0.198587D-01
     27  0.952142D-02  0.195500D-01
     28  0.967401D-02  0.946878D-02  0.198280D-01
     29  0.158492D-02 -0.864534D-02 -0.866660D-02  0.181341D-01
     30 -0.875233D-02  0.138321D-02 -0.887183D-02  0.790382D-02  0.180393D-01
     31 -0.859974D-02 -0.869798D-02  0.148736D-02  0.788255D-02  0.778431D-02
               31 
     31  0.179697D-01
 Leave Link  716 at Wed Jan  8 10:03:01 2020, MaxMem=  4294967296 cpu:               7.9 elap:               0.5
 (Enter /home/cwagen/sw/g16/g16/l103.exe)

 GradGradGradGradGradGradGradGradGradGradGradGradGradGradGradGradGradGrad
 Berny optimization.
 Red2BG is reusing G-inverse.
 Internal  Forces:  Max     0.019190563 RMS     0.004471736
 Search for a saddle point.
 Step number   1 out of a maximum of   41
 All quantities printed in internal units (Hartrees-Bohrs-Radians)
 Swapping is turned off.
 Second derivative matrix not updated -- analytic derivatives used.
 ITU=  0
     Eigenvalues ---   -0.02856   0.00357   0.01393   0.02714   0.03883
     Eigenvalues ---    0.04462   0.04708   0.08764   0.09330   0.12771
     Eigenvalues ---    0.13888   0.14354   0.20487   0.21365   0.23583
     Eigenvalues ---    0.31055   0.33994   0.34374   0.35340   0.76933
     Eigenvalues ---    1.18269
 Eigenvectors required to have negative eigenvalues:
                          R4        R3        A5        D2        D3
   1                   -0.88388   0.27644   0.15568   0.15170   0.15135
                          D1        A4        D4        D6        D5
   1                    0.13937  -0.09142  -0.08572  -0.07373  -0.07338
 RFO step:  Lambda0=1.139912111D-02 Lambda=-1.97208853D-03.
 Linear search not attempted -- option 19 set.
 Maximum step size (   0.300) exceeded in Quadratic search.
    -- Step size scaled by   0.574
 Iteration  1 RMS(Cart)=  0.03815740 RMS(Int)=  0.01559269
 Iteration  2 RMS(Cart)=  0.01889926 RMS(Int)=  0.00068901
 Iteration  3 RMS(Cart)=  0.00003379 RMS(Int)=  0.00068866
 Iteration  4 RMS(Cart)=  0.00000001 RMS(Int)=  0.00068866
 ITry= 1 IFail=0 DXMaxC= 1.38D-01 DCOld= 1.00D+10 DXMaxT= 3.00D-01 DXLimC= 3.00D+00 Rises=F
 Variable       Old X    -DE/DX   Delta X   Delta X   Delta X     New X
                                 (Linear)    (Quad)   (Total)
    R1        2.30277   0.00000   0.00000  -0.02862  -0.02862   2.27415
    R2        2.86712   0.00000   0.00000  -0.01347  -0.01347   2.85365
    R3        3.77945   0.01586   0.00000   0.00399   0.00399   3.78344
    R4        3.59048  -0.01919   0.00000   0.28517   0.28517   3.87565
    R5        2.06268   0.00000   0.00000  -0.00282  -0.00282   2.05986
    R6        2.07180   0.00000   0.00000   0.00189   0.00189   2.07369
    R7        2.07194   0.00000   0.00000  -0.00193  -0.00193   2.07001
    R8        2.21214   0.00000   0.00000   0.00559   0.00559   2.21773
    A1        2.16500   0.00002   0.00000   0.04021   0.03874   2.20374
    A2        1.97608   0.00000   0.00000   0.01537   0.01293   1.98901
    A3        1.94498   0.00000   0.00000  -0.03172  -0.03119   1.91379
    A4        1.83150  -0.00001   0.00000   0.02460   0.02275   1.85425
    A5        1.79308  -0.00002   0.00000  -0.05623  -0.05569   1.73739
    A6        1.68590   0.00001   0.00000  -0.00890  -0.00836   1.67754
    A7        1.95743  -0.00001   0.00000  -0.00480  -0.00481   1.95261
    A8        1.89381   0.00000   0.00000  -0.00465  -0.00467   1.88915
    A9        1.88610   0.00001   0.00000   0.00042   0.00042   1.88652
   A10        1.91292   0.00001   0.00000   0.00088   0.00086   1.91378
   A11        1.91250   0.00000   0.00000   0.00535   0.00535   1.91786
   A12        1.90008   0.00000   0.00000   0.00292   0.00292   1.90300
   A13        3.15546   0.00000   0.00000   0.02434   0.02434   3.17980
   A14        2.94117   0.00000   0.00000  -0.00943  -0.00943   2.93175
    D1        3.08915   0.00000   0.00000  -0.05739  -0.05799   3.03116
    D2       -1.07842   0.00000   0.00000  -0.06251  -0.06310  -1.14152
    D3        0.97926   0.00000   0.00000  -0.06135  -0.06194   0.91731
    D4       -0.88534   0.00000   0.00000   0.03409   0.03472  -0.85062
    D5        1.23027   0.00000   0.00000   0.02897   0.02961   1.25989
    D6       -2.99523   0.00000   0.00000   0.03013   0.03077  -2.96447
    D7        0.86864   0.00000   0.00000   0.01381   0.01376   0.88239
    D8        2.98425   0.00000   0.00000   0.00869   0.00865   2.99290
    D9       -1.24126   0.00000   0.00000   0.00985   0.00981  -1.23145
         Item               Value     Threshold  Converged?
 Maximum Force            0.019191     0.000450     NO 
 RMS     Force            0.004472     0.000300     NO 
 Maximum Displacement     0.137789     0.001800     NO 
 RMS     Displacement     0.052298     0.001200     NO 
 Predicted change in Energy= 4.381506D-03
 Lowest energy point so far.  Saving SCF results.
 GradGradGradGradGradGradGradGradGradGradGradGradGradGradGradGradGradGrad

 Leave Link  103 at Wed Jan  8 10:03:01 2020, MaxMem=  4294967296 cpu:               4.8 elap:               0.4
 (Enter /home/cwagen/sw/g16/g16/l202.exe)
                          Input orientation:                          
 ---------------------------------------------------------------------
 Center     Atomic      Atomic             Coordinates (Angstroms)
 Number     Number       Type             X           Y           Z
 ---------------------------------------------------------------------
      1          6           0       -0.214422    0.586792    0.257941
      2          8           0       -0.260475    0.979031    1.394721
      3          6           0       -0.324413    1.436717   -0.985400
      4          1           0       -0.141942    0.857636   -1.890681
      5          1           0       -1.333481    1.866603   -1.019431
      6          1           0        0.407242    2.248300   -0.908445
      7         17           0       -1.316755   -1.049392   -0.082947
      8          6           0        1.602675   -0.296775   -0.093755
      9          7           0        2.677549   -0.767040   -0.121427
 ---------------------------------------------------------------------
                    Distance matrix (angstroms):
                    1          2          3          4          5
     1  C    0.000000
     2  O    1.203429   0.000000
     3  C    1.510089   2.424570   0.000000
     4  H    2.166838   3.289780   1.090030   0.000000
     5  H    2.126474   2.786980   1.097351   1.787975   0.000000
     6  H    2.123095   2.713202   1.095403   1.788948   1.785533
     7  Cl   2.002109   2.722816   2.824872   2.878341   3.062729
     8  C    2.050908   2.704546   2.741112   2.757770   3.762725
     9  N    3.215630   3.738911   3.822927   3.703965   4.881685
                    6          7          8          9
     6  H    0.000000
     7  Cl   3.811612   0.000000
     8  C    2.927488   3.014900   0.000000
     9  N    3.855640   4.004456   1.173571   0.000000
 Stoichiometry    C3H3ClNO(1-)
 Framework group  C1[X(C3H3ClNO)]
 Deg. of freedom    21
 Full point group                 C1      NOp   1
 RotChk:  IX=0 Diff= 4.32D-02
 Largest Abelian subgroup         C1      NOp   1
 Largest concise Abelian subgroup C1      NOp   1
                         Standard orientation:                         
 ---------------------------------------------------------------------
 Center     Atomic      Atomic             Coordinates (Angstroms)
 Number     Number       Type             X           Y           Z
 ---------------------------------------------------------------------
      1          6           0       -0.225336    0.582941    0.249947
      2          8           0       -0.302708    0.975530    1.384904
      3          6           0       -0.331029    1.428359   -0.996835
      4          1           0       -0.117423    0.852501   -1.897349
      5          1           0       -1.349060    1.834354   -1.051245
      6          1           0        0.379730    2.257023   -0.907151
      7         17           0       -1.282100   -1.079170   -0.109328
      8          6           0        1.618510   -0.258134   -0.064775
      9          7           0        2.704464   -0.703033   -0.070705
 ---------------------------------------------------------------------
 Rotational constants (GHZ):           3.3608990           2.0587477           1.6928652
 Leave Link  202 at Wed Jan  8 10:03:01 2020, MaxMem=  4294967296 cpu:               0.2 elap:               0.0
 (Enter /home/cwagen/sw/g16/g16/l301.exe)
 Standard basis: 6-31+G(d) (6D, 7F)
 Ernie: Thresh=  0.10000D-02 Tol=  0.10000D-05 Strict=F.
 There are   124 symmetry adapted cartesian basis functions of A   symmetry.
 There are   124 symmetry adapted basis functions of A   symmetry.
   124 basis functions,   228 primitive gaussians,   124 cartesian basis functions
    27 alpha electrons       27 beta electrons
       nuclear repulsion energy       248.1806468528 Hartrees.
 IExCor=  402 DFT=T Ex+Corr=B3LYP ExCW=0 ScaHFX=  0.200000
 ScaDFX=  0.800000  0.720000  1.000000  0.810000 ScalE2=  1.000000  1.000000
 IRadAn=      5 IRanWt=     -1 IRanGd=            0 ICorTp=0 IEmpDi=  4
 NAtoms=    9 NActive=    9 NUniq=    9 SFac= 1.00D+00 NAtFMM=   60 NAOKFM=F Big=F
 Integral buffers will be    131072 words long.
 Raffenetti 2 integral format.
 Two-electron integral symmetry is turned on.
 ------------------------------------------------------------------------------
 Polarizable Continuum Model (PCM)
 =================================
 Model                : PCM.
 Atomic radii         : SMD-Coulomb.
 Polarization charges : Total charges.
 Charge compensation  : None.
 Solution method      : Matrix inversion.
 Cavity type          : VdW (van der Waals Surface) (Alpha=1.000).
 Cavity algorithm     : GePol (No added spheres)
                        Default sphere list used, NSphG=    9.
                        Lebedev-Laikov grids with approx.  5.0 points / Ang**2.
                        Smoothing algorithm: York/Karplus (Gamma=1.0000).
                        Polarization charges: spherical gaussians, with
                                              point-specific exponents (IZeta= 3).
                        Self-potential: point-specific (ISelfS= 7).
                        Self-field    : sphere-specific E.n sum rule (ISelfD= 2).
 1st derivatives      : Analytical E(r).r(x)/FMM algorithm (CHGder, D1EAlg=3).
                        Cavity 1st derivative terms included.
 Solvent              : TetraHydroFuran, Eps=   7.425700 Eps(inf)=   1.974025
 ------------------------------------------------------------------------------
 Spheres list:
 ISph  on   Nord     Re0    Alpha      Xe            Ye            Ze
    1   C      1    1.8500  1.000     -0.225336      0.582941      0.249947
    2   O      2    2.2940  1.000     -0.302708      0.975530      1.384904
    3   C      3    1.8500  1.000     -0.331029      1.428359     -0.996835
    4   H      4    1.2000  1.000     -0.117423      0.852501     -1.897349
    5   H      5    1.2000  1.000     -1.349060      1.834354     -1.051245
    6   H      6    1.2000  1.000      0.379730      2.257023     -0.907151
    7  Cl      7    2.3800  1.000     -1.282100     -1.079170     -0.109328
    8   C      8    1.8500  1.000      1.618510     -0.258134     -0.064775
    9   N      9    1.8900  1.000      2.704464     -0.703033     -0.070705
 ------------------------------------------------------------------------------
 GePol: Number of generator spheres                  =       9
 GePol: Total number of spheres                      =       9
 GePol: Number of exposed spheres                    =       9 (100.00%)
 GePol: Number of points                             =    1169
 GePol: Average weight of points                     =       0.13
 GePol: Minimum weight of points                     =   0.48D-07
 GePol: Maximum weight of points                     =    0.18138
 GePol: Number of points with low weight             =      34
 GePol: Fraction of low-weight points (<1% of avg)   =       2.91%
 GePol: Cavity surface area                          =    157.488 Ang**2
 GePol: Cavity volume                                =    144.807 Ang**3
 ------------------------------------------------------------------------------
 Atomic radii for non-electrostatic terms: SMD-CDS.
 ------------------------------------------------------------------------------
 PCM non-electrostatic energy =         0.0003861090 Hartrees.
 Nuclear repulsion after PCM non-electrostatic terms =      248.1810329617 Hartrees.
 Leave Link  301 at Wed Jan  8 10:03:01 2020, MaxMem=  4294967296 cpu:               2.0 elap:               0.1
 (Enter /home/cwagen/sw/g16/g16/l302.exe)
 NPDir=0 NMtPBC=     1 NCelOv=     1 NCel=       1 NClECP=     1 NCelD=      1
         NCelK=      1 NCelE2=     1 NClLst=     1 CellRange=     0.0.
 One-electron integrals computed using PRISM.
 One-electron integral symmetry used in STVInt
 NBasis=   124 RedAO= T EigKep=  5.62D-05  NBF=   124
 NBsUse=   124 1.00D-06 EigRej= -1.00D+00 NBFU=   124
 Precomputing XC quadrature grid using
 IXCGrd= 4 IRadAn=           5 IRanWt=          -1 IRanGd=           0 AccXCQ= 0.00D+00.
 Generated NRdTot=       0 NPtTot=           0 NUsed=           0 NTot=          32
 NSgBfM=   124   124   124   124   124 MxSgAt=     9 MxSgA2=     9.
 Leave Link  302 at Wed Jan  8 10:03:01 2020, MaxMem=  4294967296 cpu:               5.2 elap:               0.4
 (Enter /home/cwagen/sw/g16/g16/l303.exe)
 DipDrv:  MaxL=1.
 Leave Link  303 at Wed Jan  8 10:03:02 2020, MaxMem=  4294967296 cpu:               0.6 elap:               0.1
 (Enter /home/cwagen/sw/g16/g16/l401.exe)
 Initial guess from the checkpoint file:  "/scratch/users/cwagen/cwagen_scan_ts/Gau-31138.chk"
 B after Tr=     0.000000    0.000000    0.000000
         Rot=    0.999906    0.001305    0.007686   -0.011288 Ang=   1.57 deg.
 Guess basis will be translated and rotated to current coordinates.
 JPrj=2 DoOrth=T DoCkMO=T.
 Generating alternative initial guess.
 ExpMin= 4.38D-02 ExpMax= 2.52D+04 ExpMxC= 3.78D+03 IAcc=2 IRadAn=         4 AccDes= 0.00D+00
 Harris functional with IExCor=  402 and IRadAn=       4 diagonalized for initial guess.
 HarFok:  IExCor=  402 AccDes= 0.00D+00 IRadAn=         4 IDoV= 1 UseB2=F ITyADJ=14
 ICtDFT=  3500011 ScaDFX=  1.000000  1.000000  1.000000  1.000000
 FoFCou: FMM=F IPFlag=           0 FMFlag=      100000 FMFlg1=           0
         NFxFlg=           0 DoJE=T BraDBF=F KetDBF=T FulRan=T
         wScrn=  0.000000 ICntrl=       500 IOpCl=  0 I1Cent=   200000004 NGrid=           0
         NMat0=    1 NMatS0=      1 NMatT0=    0 NMatD0=    1 NMtDS0=    0 NMtDT0=    0
 Petite list used in FoFCou.
 Harris En= -706.412329701178    
 Leave Link  401 at Wed Jan  8 10:03:02 2020, MaxMem=  4294967296 cpu:               7.5 elap:               0.6
 (Enter /home/cwagen/sw/g16/g16/l502.exe)
 Keep R1 ints in memory in canonical form, NReq=45236517.
 FoFCou: FMM=F IPFlag=           0 FMFlag=           0 FMFlg1=           0
         NFxFlg=           0 DoJE=F BraDBF=F KetDBF=F FulRan=T
         wScrn=  0.000000 ICntrl=       600 IOpCl=  0 I1Cent=           0 NGrid=           0
         NMat0=    1 NMatS0=   7750 NMatT0=    0 NMatD0=    1 NMtDS0=    0 NMtDT0=    0
 Symmetry not used in FoFCou.
 Two-electron integral symmetry not used.
 Closed shell SCF:
 Using DIIS extrapolation, IDIIS=  1040.
 NGot=  4294967296 LenX=  4264898079 LenY=  4264882262
 Requested convergence on RMS density matrix=1.00D-08 within 128 cycles.
 Requested convergence on MAX density matrix=1.00D-06.
 Requested convergence on             energy=1.00D-06.
 No special actions if energy rises.

 Cycle   1  Pass 1  IDiag  1:
 Inv3:  Mode=1 IEnd=     4099683.
 Iteration    1 A*A^-1 deviation from unit magnitude is 2.89D-15 for    100.
 Iteration    1 A*A^-1 deviation from orthogonality  is 1.79D-15 for   1164   1013.
 Iteration    1 A^-1*A deviation from unit magnitude is 3.11D-15 for    100.
 Iteration    1 A^-1*A deviation from orthogonality  is 1.19D-15 for   1165   1164.
 E= -706.405521991510    
 DIIS: error= 3.68D-03 at cycle   1 NSaved=   1.
 NSaved= 1 IEnMin= 1 EnMin= -706.405521991510     IErMin= 1 ErrMin= 3.68D-03
 ErrMax= 3.68D-03  0.00D+00 EMaxC= 1.00D-01 BMatC= 3.58D-03 BMatP= 3.58D-03
 IDIUse=3 WtCom= 9.63D-01 WtEn= 3.68D-02
 Coeff-Com:  0.100D+01
 Coeff-En:   0.100D+01
 Coeff:      0.100D+01
 Gap=     0.617 Goal=   None    Shift=    0.000
 GapD=    0.617 DampG=2.000 DampE=1.000 DampFc=2.0000 IDamp=-1.
 RMSDP=2.83D-03 MaxDP=8.84D-02              OVMax= 4.40D-02

 Cycle   2  Pass 1  IDiag  1:
 E= -706.411303390302     Delta-E=       -0.005781398792 Rises=F Damp=F
 DIIS: error= 1.23D-03 at cycle   2 NSaved=   2.
 NSaved= 2 IEnMin= 2 EnMin= -706.411303390302     IErMin= 2 ErrMin= 1.23D-03
 ErrMax= 1.23D-03  0.00D+00 EMaxC= 1.00D-01 BMatC= 5.51D-04 BMatP= 3.58D-03
 IDIUse=3 WtCom= 9.88D-01 WtEn= 1.23D-02
 Coeff-Com:  0.155D+00 0.845D+00
 Coeff-En:   0.000D+00 0.100D+01
 Coeff:      0.153D+00 0.847D+00
 Gap=     0.239 Goal=   None    Shift=    0.000
 RMSDP=5.15D-04 MaxDP=1.11D-02 DE=-5.78D-03 OVMax= 1.52D-02

 Cycle   3  Pass 1  IDiag  1:
 E= -706.410459678475     Delta-E=        0.000843711827 Rises=F Damp=F
 DIIS: error= 2.38D-03 at cycle   3 NSaved=   3.
 NSaved= 3 IEnMin= 2 EnMin= -706.411303390302     IErMin= 2 ErrMin= 1.23D-03
 ErrMax= 2.38D-03  0.00D+00 EMaxC= 1.00D-01 BMatC= 1.71D-03 BMatP= 5.51D-04
 IDIUse=3 WtCom= 1.70D-01 WtEn= 8.30D-01
 Coeff-Com: -0.330D-01 0.658D+00 0.375D+00
 Coeff-En:   0.000D+00 0.691D+00 0.309D+00
 Coeff:     -0.561D-02 0.685D+00 0.320D+00
 Gap=     0.241 Goal=   None    Shift=    0.000
 RMSDP=3.35D-04 MaxDP=7.33D-03 DE= 8.44D-04 OVMax= 7.89D-03

 Cycle   4  Pass 1  IDiag  1:
 E= -706.411794167859     Delta-E=       -0.001334489385 Rises=F Damp=F
 DIIS: error= 2.57D-04 at cycle   4 NSaved=   4.
 NSaved= 4 IEnMin= 4 EnMin= -706.411794167859     IErMin= 4 ErrMin= 2.57D-04
 ErrMax= 2.57D-04  0.00D+00 EMaxC= 1.00D-01 BMatC= 2.37D-05 BMatP= 5.51D-04
 IDIUse=3 WtCom= 9.97D-01 WtEn= 2.57D-03
 Coeff-Com: -0.168D-01 0.237D+00 0.655D-01 0.714D+00
 Coeff-En:   0.000D+00 0.000D+00 0.000D+00 0.100D+01
 Coeff:     -0.167D-01 0.237D+00 0.653D-01 0.715D+00
 Gap=     0.241 Goal=   None    Shift=    0.000
 RMSDP=6.76D-05 MaxDP=1.00D-03 DE=-1.33D-03 OVMax= 1.68D-03

 Cycle   5  Pass 1  IDiag  1:
 E= -706.411812764112     Delta-E=       -0.000018596253 Rises=F Damp=F
 DIIS: error= 1.10D-04 at cycle   5 NSaved=   5.
 NSaved= 5 IEnMin= 5 EnMin= -706.411812764112     IErMin= 5 ErrMin= 1.10D-04
 ErrMax= 1.10D-04  0.00D+00 EMaxC= 1.00D-01 BMatC= 2.51D-06 BMatP= 2.37D-05
 IDIUse=3 WtCom= 9.99D-01 WtEn= 1.10D-03
 Coeff-Com: -0.383D-02 0.283D-01-0.223D-01 0.365D+00 0.632D+00
 Coeff-En:   0.000D+00 0.000D+00 0.000D+00 0.000D+00 0.100D+01
 Coeff:     -0.383D-02 0.282D-01-0.222D-01 0.365D+00 0.633D+00
 Gap=     0.241 Goal=   None    Shift=    0.000
 RMSDP=3.44D-05 MaxDP=1.07D-03 DE=-1.86D-05 OVMax= 6.97D-04

 Cycle   6  Pass 1  IDiag  1:
 E= -706.411814459122     Delta-E=       -0.000001695010 Rises=F Damp=F
 DIIS: error= 5.99D-05 at cycle   6 NSaved=   6.
 NSaved= 6 IEnMin= 6 EnMin= -706.411814459122     IErMin= 6 ErrMin= 5.99D-05
 ErrMax= 5.99D-05  0.00D+00 EMaxC= 1.00D-01 BMatC= 1.12D-06 BMatP= 2.51D-06
 IDIUse=1 WtCom= 1.00D+00 WtEn= 0.00D+00
 Coeff-Com: -0.782D-03-0.140D-01-0.266D-01 0.156D+00 0.458D+00 0.427D+00
 Coeff:     -0.782D-03-0.140D-01-0.266D-01 0.156D+00 0.458D+00 0.427D+00
 Gap=     0.241 Goal=   None    Shift=    0.000
 RMSDP=1.08D-05 MaxDP=1.95D-04 DE=-1.70D-06 OVMax= 2.76D-04

 Cycle   7  Pass 1  IDiag  1:
 E= -706.411815412154     Delta-E=       -0.000000953032 Rises=F Damp=F
 DIIS: error= 1.01D-05 at cycle   7 NSaved=   7.
 NSaved= 7 IEnMin= 7 EnMin= -706.411815412154     IErMin= 7 ErrMin= 1.01D-05
 ErrMax= 1.01D-05  0.00D+00 EMaxC= 1.00D-01 BMatC= 2.26D-08 BMatP= 1.12D-06
 IDIUse=1 WtCom= 1.00D+00 WtEn= 0.00D+00
 Coeff-Com:  0.428D-03-0.108D-01-0.106D-01 0.235D-01 0.121D+00 0.156D+00
 Coeff-Com:  0.721D+00
 Coeff:      0.428D-03-0.108D-01-0.106D-01 0.235D-01 0.121D+00 0.156D+00
 Coeff:      0.721D+00
 Gap=     0.241 Goal=   None    Shift=    0.000
 RMSDP=2.93D-06 MaxDP=5.26D-05 DE=-9.53D-07 OVMax= 1.07D-04

 Cycle   8  Pass 1  IDiag  1:
 E= -706.411815434849     Delta-E=       -0.000000022696 Rises=F Damp=F
 DIIS: error= 3.28D-06 at cycle   8 NSaved=   8.
 NSaved= 8 IEnMin= 8 EnMin= -706.411815434849     IErMin= 8 ErrMin= 3.28D-06
 ErrMax= 3.28D-06  0.00D+00 EMaxC= 1.00D-01 BMatC= 3.88D-09 BMatP= 2.26D-08
 IDIUse=1 WtCom= 1.00D+00 WtEn= 0.00D+00
[...]
               16            17            18            19            20 
     16  0.107707D+00
     17 -0.157684D-01  0.107822D+00
     18 -0.426931D-01  0.110536D-01  0.501880D-01
     19  0.108830D-01 -0.426414D-01  0.956838D-02  0.517333D-01
     20 -0.391811D-01 -0.379204D-01  0.991035D-02  0.976670D-02  0.464757D-01
     21 -0.140424D-02  0.404210D-04  0.134835D-03  0.394016D-04  0.164208D-03
     22  0.269952D-03 -0.869656D-04  0.364591D-03  0.274450D-03 -0.188502D-03
     23 -0.220501D-02  0.296004D-02 -0.658950D-02  0.645192D-02 -0.251268D-04
     24  0.346477D-02 -0.677197D-02  0.428144D-02  0.132208D-02 -0.683702D-02
     25  0.725151D-02 -0.269387D-02 -0.129719D-02 -0.394362D-02  0.658296D-02
     26 -0.643774D-02  0.543118D-02 -0.531037D-02  0.450635D-02  0.724138D-03
     27 -0.767964D-03 -0.430084D-02  0.556058D-02 -0.623496D-03 -0.608776D-02
     28  0.301878D-02 -0.222731D-03 -0.180573D-04 -0.588919D-02  0.733222D-02
     29 -0.509505D-02  0.584890D-02 -0.493584D-02  0.516544D-02 -0.366814D-03
     30  0.574726D-03 -0.388311D-02  0.593510D-02  0.355971D-04 -0.717871D-02
     31  0.436147D-02  0.194990D-03  0.356472D-03 -0.523010D-02  0.624127D-02
               21            22            23            24            25 
     21  0.130462D-01
     22  0.271495D-03  0.549166D-02
     23 -0.399780D-03 -0.132117D-02  0.164593D-01
     24 -0.556725D-03 -0.107776D-02  0.647471D-02  0.165244D-01
     25 -0.110318D-02 -0.120012D-02  0.682450D-02  0.672858D-02  0.169993D-01
     26 -0.183007D-02 -0.101886D-02  0.147834D-02 -0.869405D-02 -0.844065D-02
     27 -0.198701D-02 -0.775442D-03 -0.850621D-02  0.135566D-02 -0.853658D-02
     28 -0.253346D-02 -0.897800D-03 -0.815642D-02 -0.844019D-02  0.173416D-02
     29  0.247351D-02  0.192985D-02  0.302703D-02 -0.683140D-02 -0.691503D-02
     30  0.231656D-02  0.217326D-02 -0.695752D-02  0.321831D-02 -0.701095D-02
     31  0.177011D-02  0.205091D-02 -0.660773D-02 -0.657754D-02  0.325979D-02
               26            27            28            29            30 
     26  0.173360D-01
     27  0.716363D-02  0.170255D-01
     28  0.741704D-02  0.713327D-02  0.173076D-01
     29  0.236480D-02 -0.749364D-02 -0.757726D-02  0.151560D-01
     30 -0.780760D-02  0.236823D-02 -0.786103D-02  0.529755D-02  0.154734D-01
     31 -0.755419D-02 -0.752400D-02  0.231332D-02  0.521393D-02  0.524412D-02
               31 
     31  0.150814D-01
 Leave Link  716 at Wed Jan  8 10:05:29 2020, MaxMem=  4294967296 cpu:               2.0 elap:               0.2
 (Enter /home/cwagen/sw/g16/g16/l103.exe)

 GradGradGradGradGradGradGradGradGradGradGradGradGradGradGradGradGradGrad
 Berny optimization.
 Red2BG is reusing G-inverse.
 Internal  Forces:  Max     0.000173830 RMS     0.000032437
 Search for a saddle point.
 Step number   1 out of a maximum of    2
 All quantities printed in internal units (Hartrees-Bohrs-Radians)
 Swapping is turned off.
 Second derivative matrix not updated -- analytic derivatives used.
 ITU=  0
     Eigenvalues ---   -0.01807   0.00314   0.00415   0.01098   0.03639
     Eigenvalues ---    0.04370   0.04645   0.06308   0.07110   0.12839
     Eigenvalues ---    0.13536   0.14330   0.16091   0.20593   0.21247
     Eigenvalues ---    0.31036   0.33812   0.34749   0.36034   0.88277
     Eigenvalues ---    1.14766
 Eigenvectors required to have negative eigenvalues:
                          R4        R3        D3        D2        D1
   1                   -0.86026   0.28279   0.19484   0.19294   0.17503
                          A5        D4        A3        D5        D6
   1                    0.13093  -0.10848   0.09510  -0.09058  -0.08868
 Angle between quadratic step and forces=  79.07 degrees.
 Linear search not attempted -- option 19 set.
 Iteration  1 RMS(Cart)=  0.00037117 RMS(Int)=  0.00000010
 Iteration  2 RMS(Cart)=  0.00000010 RMS(Int)=  0.00000000
 ITry= 1 IFail=0 DXMaxC= 1.24D-03 DCOld= 1.00D+10 DXMaxT= 3.00D-01 DXLimC= 3.00D+00 Rises=F
 Variable       Old X    -DE/DX   Delta X   Delta X   Delta X     New X
                                 (Linear)    (Quad)   (Total)
    R1        2.25459  -0.00017   0.00000  -0.00020  -0.00020   2.25439
    R2        2.84040  -0.00001   0.00000  -0.00002  -0.00002   2.84037
    R3        3.77541  -0.00002   0.00000  -0.00015  -0.00015   3.77526
    R4        4.26128  -0.00001   0.00000   0.00037   0.00037   4.26165
    R5        2.05731  -0.00001   0.00000  -0.00002  -0.00002   2.05730
    R6        2.07537   0.00000   0.00000   0.00000   0.00000   2.07537
    R7        2.06798   0.00000   0.00000   0.00001   0.00001   2.06799
    R8        2.22337   0.00001   0.00000   0.00002   0.00002   2.22339
    A1        2.24679   0.00000   0.00000   0.00002   0.00002   2.24681
    A2        2.00689  -0.00001   0.00000  -0.00004  -0.00004   2.00686
    A3        1.85976   0.00000   0.00000   0.00013   0.00013   1.85989
    A4        1.87702   0.00002   0.00000   0.00012   0.00012   1.87714
    A5        1.67642   0.00001   0.00000  -0.00001  -0.00001   1.67641
    A6        1.66899  -0.00002   0.00000  -0.00035  -0.00035   1.66865
    A7        1.95278   0.00000   0.00000   0.00001   0.00001   1.95279
    A8        1.87580   0.00001   0.00000   0.00003   0.00003   1.87583
    A9        1.89113   0.00000   0.00000   0.00000   0.00000   1.89113
   A10        1.91282   0.00000   0.00000   0.00002   0.00002   1.91284
   A11        1.92352   0.00000   0.00000  -0.00004  -0.00004   1.92347
   A12        1.90669   0.00000   0.00000  -0.00001  -0.00001   1.90668
   A13        3.19241   0.00000   0.00000   0.00056   0.00056   3.19297
   A14        2.94163   0.00000   0.00000   0.00034   0.00034   2.94197
    D1        2.93638   0.00001   0.00000   0.00049   0.00049   2.93687
    D2       -1.24616   0.00001   0.00000   0.00054   0.00054  -1.24562
    D3        0.81226   0.00001   0.00000   0.00054   0.00054   0.81280
    D4       -0.81199   0.00001   0.00000   0.00066   0.00066  -0.81133
    D5        1.28865   0.00001   0.00000   0.00071   0.00071   1.28936
    D6       -2.93611   0.00001   0.00000   0.00071   0.00071  -2.93539
    D7        0.89615  -0.00001   0.00000   0.00031   0.00031   0.89646
    D8        2.99680  -0.00001   0.00000   0.00036   0.00036   2.99716
    D9       -1.22796  -0.00001   0.00000   0.00036   0.00036  -1.22760
         Item               Value     Threshold  Converged?
 Maximum Force            0.000174     0.000450     YES
 RMS     Force            0.000032     0.000300     YES
 Maximum Displacement     0.001240     0.001800     YES
 RMS     Displacement     0.000371     0.001200     YES
 Predicted change in Energy=-3.166080D-08
 Optimization completed.
    -- Stationary point found.
                           ----------------------------
                           !   Optimized Parameters   !
                           ! (Angstroms and Degrees)  !
 --------------------------                            --------------------------
 ! Name  Definition              Value          Derivative Info.                !
 --------------------------------------------------------------------------------
 ! R1    R(1,2)                  1.1931         -DE/DX =   -0.0002              !
 ! R2    R(1,3)                  1.5031         -DE/DX =    0.0                 !
 ! R3    R(1,7)                  1.9979         -DE/DX =    0.0                 !
 ! R4    R(1,8)                  2.255          -DE/DX =    0.0                 !
 ! R5    R(3,4)                  1.0887         -DE/DX =    0.0                 !
 ! R6    R(3,5)                  1.0982         -DE/DX =    0.0                 !
 ! R7    R(3,6)                  1.0943         -DE/DX =    0.0                 !
 ! R8    R(8,9)                  1.1766         -DE/DX =    0.0                 !
 ! A1    A(2,1,3)              128.7314         -DE/DX =    0.0                 !
 ! A2    A(2,1,7)              114.9866         -DE/DX =    0.0                 !
 ! A3    A(2,1,8)              106.5565         -DE/DX =    0.0                 !
 ! A4    A(3,1,7)              107.5454         -DE/DX =    0.0                 !
 ! A5    A(3,1,8)               96.0519         -DE/DX =    0.0                 !
 ! A6    A(7,1,8)               95.6263         -DE/DX =    0.0                 !
 ! A7    A(1,3,4)              111.8862         -DE/DX =    0.0                 !
 ! A8    A(1,3,5)              107.4755         -DE/DX =    0.0                 !
 ! A9    A(1,3,6)              108.354          -DE/DX =    0.0                 !
 ! A10   A(4,3,5)              109.5962         -DE/DX =    0.0                 !
 ! A11   A(4,3,6)              110.2093         -DE/DX =    0.0                 !
 ! A12   A(5,3,6)              109.2454         -DE/DX =    0.0                 !
 ! A13   L(1,8,9,6,-1)         182.9114         -DE/DX =    0.0                 !
 ! A14   L(1,8,9,6,-2)         168.5429         -DE/DX =    0.0                 !
 ! D1    D(2,1,3,4)            168.2421         -DE/DX =    0.0                 !
 ! D2    D(2,1,3,5)            -71.3999         -DE/DX =    0.0                 !
 ! D3    D(2,1,3,6)             46.5393         -DE/DX =    0.0                 !
 ! D4    D(7,1,3,4)            -46.5237         -DE/DX =    0.0                 !
 ! D5    D(7,1,3,5)             73.8343         -DE/DX =    0.0                 !
 ! D6    D(7,1,3,6)           -168.2264         -DE/DX =    0.0                 !
 ! D7    D(8,1,3,4)             51.3459         -DE/DX =    0.0                 !
 ! D8    D(8,1,3,5)            171.7039         -DE/DX =    0.0                 !
 ! D9    D(8,1,3,6)            -70.3568         -DE/DX =    0.0                 !
 --------------------------------------------------------------------------------
 GradGradGradGradGradGradGradGradGradGradGradGradGradGradGradGradGradGrad

 Leave Link  103 at Wed Jan  8 10:05:29 2020, MaxMem=  4294967296 cpu:               6.7 elap:               0.5
 (Enter /home/cwagen/sw/g16/g16/l9999.exe)

 ----------------------------------------------------------------------

 Electric dipole moment (input orientation):
 (Debye = 10**-18 statcoulomb cm , SI units = C m)
                  (au)            (Debye)         (10**-30 SI)
   Tot        0.327881D+01      0.833390D+01      0.277989D+02
   x         -0.250501D+01     -0.636709D+01     -0.212383D+02
   y          0.189028D+01      0.480462D+01      0.160265D+02
   z         -0.949931D+00     -0.241448D+01     -0.805385D+01

 Dipole polarizability, Alpha (input orientation).
 (esu units = cm**3 , SI units = C**2 m**2 J**-1)
 Alpha(0;0):
               (au)            (10**-24 esu)      (10**-40 SI)
   iso        0.876721D+02      0.129917D+02      0.144552D+02
   aniso      0.364903D+02      0.540731D+01      0.601644D+01
   xx         0.107146D+03      0.158774D+02      0.176660D+02
   yx        -0.260990D+01     -0.386747D+00     -0.430314D+00
   yy         0.887875D+02      0.131569D+02      0.146391D+02
   zx        -0.135127D+01     -0.200238D+00     -0.222794D+00
   zy         0.574595D+01      0.851462D+00      0.947379D+00
   zz         0.670829D+02      0.994067D+01      0.110605D+02

 ----------------------------------------------------------------------

 Dipole orientation:
     6         -0.31222945         -0.96735902          0.96732165
     8         -1.70300250         -2.72610650          0.73120832
     6          1.99915771         -0.73640783          2.60195222
     1          3.10092937          0.93847196          2.13998040
     1          1.35989440         -0.62710941          4.57338302
     1          3.14695193         -2.43820052          2.35091415
    17         -1.98892108          2.41424866          0.88272664
     6          1.72046597         -0.51893371         -2.75095271
     7          2.57368259         -0.51054157         -4.80408190

 Electric dipole moment (dipole orientation):
 (Debye = 10**-18 statcoulomb cm , SI units = C m)
                  (au)            (Debye)         (10**-30 SI)
   Tot        0.327881D+01      0.833390D+01      0.277989D+02
   x          0.000000D+00      0.000000D+00      0.000000D+00
   y          0.000000D+00      0.000000D+00      0.000000D+00
   z          0.327881D+01      0.833390D+01      0.277989D+02

 Dipole polarizability, Alpha (dipole orientation).
 (esu units = cm**3 , SI units = C**2 m**2 J**-1)
 Alpha(0;0):
               (au)            (10**-24 esu)      (10**-40 SI)
   iso        0.876721D+02      0.129917D+02      0.144552D+02
   aniso      0.364903D+02      0.540731D+01      0.601644D+01
   xx         0.787763D+02      0.116734D+02      0.129884D+02
   yx        -0.942598D+01     -0.139679D+01     -0.155413D+01
   yy         0.867773D+02      0.128591D+02      0.143076D+02
   zx        -0.162988D+02     -0.241523D+01     -0.268731D+01
   zy        -0.120441D+01     -0.178475D+00     -0.198581D+00
   zz         0.974628D+02      0.144425D+02      0.160695D+02

 ----------------------------------------------------------------------
 1\1\GINC-NODE042\Freq\RB3LYP\6-31+G(d)\C3H3Cl1N1O1(1-)\CWAGEN\08-Jan-2
 020\0\\#P Geom=AllCheck Guess=TCheck SCRF=Check GenChk RB3LYP/6-31+G(d
 ) Freq\\title\\-1,1\C,-0.3067047805,0.6186655653,0.2730497743\O,-0.296
 2892949,0.9861337682,1.4080816389\C,-0.3397340066,1.4443549231,-0.9824
 894651\H,-0.1364829456,0.8446306961,-1.8680695389\H,-1.3417024944,1.88
 73349827,-1.0596304562\H,0.4018074717,2.2436711806,-0.8888639695\Cl,-1
 .3693451259,-1.0384669914,-0.0677665575\C,1.7043599598,-0.3244925937,-
 0.115497797\N,2.7800682164,-0.7999605308,-0.1482356291\\Version=AS64L-
 G16RevA.03\State=1-A\HF=-706.4101657\RMSD=2.445e-09\RMSF=4.700e-05\Zer
 oPoint=0.0534073\Thermal=0.0605912\Dipole=-2.5050056,1.8902835,-0.9499
 308\DipoleDeriv=2.6883059,0.3036539,-0.0581676,0.2619796,2.5474718,0.4
 372322,-0.1606291,1.128758,1.7210122,-0.8217896,-0.01691,0.0178033,0.0
 679194,-1.1385146,-0.3527277,0.2244707,-1.0600998,-1.5601222,-0.249889
 8,-0.0281232,-0.0279596,-0.023049,-0.1958918,0.1732232,-0.0482351,-0.0
 232176,-0.099102,0.1008423,0.0082099,0.0378094,0.0227309,0.0262799,-0.
 099435,0.0247911,-0.0125006,0.0263444,-0.0859152,0.089728,0.0057491,0.
 1267266,0.0372214,0.03297,-0.040294,0.0587296,0.0768024,0.0362404,-0.0
 951983,-0.0099891,-0.122434,-0.0416982,0.0148924,0.0024541,0.0458582,0
 .0586294,-0.9867321,-0.5868804,-0.1125324,-0.6962114,-1.3076384,-0.160
 7759,-0.1502252,-0.1233127,-0.4373579,-0.5916171,0.101869,0.1033374,0.
 0655618,-0.3748219,-0.0216922,0.1587688,-0.00778,-0.3255295,-1.0894447
 ,0.223651,0.0439495,0.2967763,-0.5524081,-0.0236869,-0.0111012,-0.0064
 352,-0.4606768\Polar=107.1459469,-2.6098995,88.7874559,-1.351271,5.745
 9516,67.0829418\Quadrupole=-12.604717,6.2905682,6.3141488,3.196118,1.7
 165293,-3.2289012\PG=C01 [X(C3H3Cl1N1O1)]\NImag=1\\0.06663440,0.010684
 39,0.24661114,0.02121473,0.06784961,0.97954459,-0.05202864,-0.00844075
 ,-0.01152812,0.05145311,-0.01196180,-0.11707745,-0.20247224,0.01333971
 ,0.13651314,-0.01928427,-0.15125434,-0.74688475,0.01327972,0.22277976,
 0.80568553,-0.05150825,-0.00056013,-0.00036145,0.01144173,-0.00005130,
 0.00247259,0.56235762,-0.00167525,-0.10801642,0.06551832,-0.00030645,0
 .01336995,-0.01419983,0.01726362,0.53918255,0.00380821,0.06211073,-0.1
 6405451,-0.00272880,0.01533760,-0.04308658,-0.01323299,0.07513389,0.54
 157027,-0.00346483,0.00009093,-0.00294866,0.00234594,0.00046046,-0.000
 40458,-0.05620304,0.02862706,0.04600998,0.05751160,-0.00379573,0.01022
 767,0.01904551,0.00078717,-0.00149167,0.00354988,0.02968647,-0.1378495
 6,-0.13611301,-0.03259520,0.14624773,0.00418471,-0.01976260,-0.0235319
 2,-0.00020024,0.00476395,-0.00344343,0.04399274,-0.12681102,-0.2339476
 0,-0.04755014,0.13824588,0.25292795,-0.00308403,0.00065326,-0.00091935
 ,0.00117654,-0.00033229,0.00044701,-0.26675649,0.09572918,-0.01517645,
 -0.00409945,0.00094731,-0.00034982,0.28858828,0.01610632,-0.00746120,0
 .00288820,-0.00121709,-0.00005237,-0.00172892,0.09547186,-0.08989203,0
 .00714496,0.01474185,-0.00612915,0.00265069,-0.10681661,0.09344368,-0.
 02431064,0.00886490,-0.00557837,0.00225971,0.00044195,0.00107466,-0.01
 534900,0.00746579,-0.04983560,0.02420923,-0.00900482,0.00450755,0.0177
 3457,-0.01061142,0.05038188,-0.00134476,0.00122652,-0.00144311,0.00065
 711,0.00105350,0.00050912,-0.17442914,-0.13695152,-0.01547521,0.005013
 09,0.00581100,-0.00034485,-0.01689704,-0.02098634,-0.00199697,0.184805
 82,-0.01228311,-0.01474380,-0.00019820,0.00163416,0.00157757,-0.001765
 44,-0.13476678,-0.19096415,-0.01870668,-0.01069175,-0.01052848,0.00005
 853,0.00925575,0.01191436,0.00090330,0.14847222,0.20515554,0.01790023,
 0.01841118,-0.00097123,-0.00133252,-0.00029461,0.00157086,-0.01794289,
 -0.02092537,-0.05189764,-0.01888201,-0.01739222,0.00019254,-0.00105966
 ,-0.00184240,-0.00076902,0.01880616,0.01779955,0.05275074,-0.00268348,
 0.01587385,0.02244452,-0.00100491,-0.01964599,-0.02421947,-0.00656329,
 -0.00909746,-0.00414152,-0.00053557,-0.00056571,0.00016403,0.00097094,
 -0.00060769,0.00038307,0.00177049,-0.00180732,0.00209276,0.02630878,0.
 02916595,-0.00139699,0.03652874,-0.01844729,-0.03010250,-0.04315902,-0
 .02213425,-0.02064755,-0.00529909,-0.00081889,-0.00048354,0.00092568,-
 0.00042797,0.00006504,-0.00048848,0.00083219,-0.00337262,0.00488243,0.
 02053415,0.05149698,0.01049079,0.01102916,-0.02342796,-0.01571257,-0.0
 2966011,-0.01056482,0.00624419,0.01014664,0.00170890,0.00022178,0.0009
 8545,0.00168961,0.00018966,-0.00015069,0.00007542,-0.00007225,0.002151
 54,-0.00069670,0.00035839,0.00306515,0.02799696,0.02309065,-0.01344478
 ,-0.01868055,-0.00777449,0.01285109,0.02006405,-0.01280068,0.00542545,
 0.00044819,-0.00059200,-0.00029299,-0.00026633,0.00052714,0.00210182,-
 0.00184947,0.00040440,0.00058582,0.00016650,-0.01428786,-0.00634192,-0
 .00088249,0.97876990,-0.01706183,-0.01577649,0.00696985,0.01106087,-0.
 00012325,-0.01107613,0.01399927,-0.00507553,0.00051083,0.00012712,-0.0
 0000076,0.00009564,0.00096564,-0.00145067,0.00222984,0.00059435,0.0011
 3854,-0.00072715,-0.00830294,0.00361684,0.00224011,-0.42678970,0.21278
 358,-0.01578046,0.00246984,-0.02079883,0.01891391,-0.01237439,-0.00394
 271,-0.00743088,0.00440755,-0.00046008,-0.00060448,0.00065992,0.002174
 33,-0.00098817,0.00209667,0.00011955,0.00006838,-0.00032044,-0.0001948
 3,0.00315481,0.00405715,0.00369297,-0.02822831,0.01292600,0.02711504,0
 .02438895,-0.00608329,-0.00777802,-0.00626637,0.00428662,0.00713583,-0
 .00553846,0.00098539,0.00048860,0.00002428,0.00001768,0.00036988,-0.00
 042588,0.00120587,-0.00108051,0.00002004,-0.00039900,0.00025142,-0.003
 97509,-0.00236196,-0.00083751,-0.96733704,0.42540724,0.03089519,0.9591
 0958,-0.00917893,0.00763354,0.00387022,0.00158967,-0.00261342,-0.00314
 596,0.00109124,-0.00010727,-0.00011924,0.00005842,0.00000776,-0.000166
 74,0.00002574,-0.00043768,0.00019895,-0.00005192,-0.00017697,0.0000886
 0,0.00361912,0.00082434,0.00019275,0.42590522,-0.19511226,-0.01392230,
 -0.42305856,0.18998196,0.00177668,0.00028151,0.00570297,-0.00295111,0.
 00147809,-0.00040877,0.00160769,-0.00073597,0.00000282,-0.00005112,0.0
 0002341,-0.00056903,0.00012220,-0.00044707,0.00002393,-0.00005128,0.00
 007784,0.00001528,-0.00023659,-0.00051255,-0.00047439,0.02922842,-0.01
 316899,-0.00770545,-0.02944489,0.01300372,0.00341263\\-0.00002159,-0.0
 0006134,-0.00014849,0.00001911,0.00003957,0.00016745,0.00000929,0.0000
 0975,-0.00000088,-0.00000138,0.00000926,-0.00000254,-0.00000807,-0.000
 00523,0.00001403,-0.00001232,0.00000577,0.00001577,-0.00001239,-0.0000
 1745,-0.00002069,0.00003053,0.00000538,-0.00000855,-0.00000316,0.00001
 429,-0.00001610\\\@


  THE LARGE PRINT GIVETH,
  AND THE SMALL PRINT TAKETH AWAY.

                     -- TOM WAITS
 Job cpu time:       0 days  0 hours 14 minutes 39.3 seconds.
 Elapsed time:       0 days  0 hours  0 minutes 56.3 seconds.
 File lengths (MBytes):  RWF=     62 Int=      0 D2E=      0 Chk=      7 Scr=      1
 Normal termination of Gaussian 16 at Wed Jan  8 10:05:30 2020.
