 Entering Gaussian System, Link 0=g16
 Input=conformer_final_04.gjf
 Output=conformer_final_04.out
 Initial command:
 /n/sw/g16_nehalem/g16/l1.exe "/scratch/cwagen_conformer_final_04/Gau-272090.inp" -scrdir="/scratch/cwagen_conformer_final_04/"
 Entering Link 1 = /n/sw/g16_nehalem/g16/l1.exe PID=    272092.
  
 Copyright (c) 1988,1990,1992,1993,1995,1998,2003,2009,2016,
            Gaussian, Inc.  All Rights Reserved.
  
 This is part of the Gaussian(R) 16 program.  It is based on
 the Gaussian(R) 09 system (copyright 2009, Gaussian, Inc.),
 the Gaussian(R) 03 system (copyright 2003, Gaussian, Inc.),
 the Gaussian(R) 98 system (copyright 1998, Gaussian, Inc.),
 the Gaussian(R) 94 system (copyright 1995, Gaussian, Inc.),
 the Gaussian 92(TM) system (copyright 1992, Gaussian, Inc.),
 the Gaussian 90(TM) system (copyright 1990, Gaussian, Inc.),
 the Gaussian 88(TM) system (copyright 1988, Gaussian, Inc.),
 the Gaussian 86(TM) system (copyright 1986, Carnegie Mellon
 University), and the Gaussian 82(TM) system (copyright 1983,
 Carnegie Mellon University). Gaussian is a federally registered
 trademark of Gaussian, Inc.
  
 This software contains proprietary and confidential information,
 including trade secrets, belonging to Gaussian, Inc.
  
 This software is provided under written license and may be
 used, copied, transmitted, or stored only in accord with that
 written license.
  
 The following legend is applicable only to US Government
 contracts under FAR:
  
                    RESTRICTED RIGHTS LEGEND
  
 Use, reproduction and disclosure by the US Government is
 subject to restrictions as set forth in subparagraphs (a)
 and (c) of the Commercial Computer Software - Restricted
 Rights clause in FAR 52.227-19.
  
 Gaussian, Inc.
 340 Quinnipiac St., Bldg. 40, Wallingford CT 06492
  
  
 ---------------------------------------------------------------
 Warning -- This program may not be used in any manner that
 competes with the business of Gaussian, Inc. or will provide
 assistance to any competitor of Gaussian, Inc.  The licensee
 of this program is prohibited from giving any competitor of
 Gaussian, Inc. access to this program.  By using this program,
 the user acknowledges that Gaussian, Inc. is engaged in the
 business of creating and licensing software in the field of
 computational chemistry and represents and warrants to the
 licensee that it is not a competitor of Gaussian, Inc. and that
 it will not use this program in any manner prohibited above.
 ---------------------------------------------------------------
  

 Cite this work as:
 Gaussian 16, Revision A.03,
 M. J. Frisch, G. W. Trucks, H. B. Schlegel, G. E. Scuseria, 
 M. A. Robb, J. R. Cheeseman, G. Scalmani, V. Barone, 
 G. A. Petersson, H. Nakatsuji, X. Li, M. Caricato, A. V. Marenich, 
 J. Bloino, B. G. Janesko, R. Gomperts, B. Mennucci, H. P. Hratchian, 
 J. V. Ortiz, A. F. Izmaylov, J. L. Sonnenberg, D. Williams-Young, 
 F. Ding, F. Lipparini, F. Egidi, J. Goings, B. Peng, A. Petrone, 
 T. Henderson, D. Ranasinghe, V. G. Zakrzewski, J. Gao, N. Rega, 
 G. Zheng, W. Liang, M. Hada, M. Ehara, K. Toyota, R. Fukuda, 
 J. Hasegawa, M. Ishida, T. Nakajima, Y. Honda, O. Kitao, H. Nakai, 
 T. Vreven, K. Throssell, J. A. Montgomery, Jr., J. E. Peralta, 
 F. Ogliaro, M. J. Bearpark, J. J. Heyd, E. N. Brothers, K. N. Kudin, 
 V. N. Staroverov, T. A. Keith, R. Kobayashi, J. Normand, 
 K. Raghavachari, A. P. Rendell, J. C. Burant, S. S. Iyengar, 
 J. Tomasi, M. Cossi, J. M. Millam, M. Klene, C. Adamo, R. Cammi, 
 J. W. Ochterski, R. L. Martin, K. Morokuma, O. Farkas, 
 J. B. Foresman, and D. J. Fox, Gaussian, Inc., Wallingford CT, 2016.
 
 ******************************************
 Gaussian 16:  ES64L-G16RevA.03 25-Dec-2016
                30-Dec-2019 
 ******************************************
 %nprocshared=16
 Will use up to   16 processors via shared memory.
 %mem=32GB
 ------------------------------------------------------------------
 #p opt freq=noraman m062x/6-31g(d) scrf=(smd,solvent=diethylether)
 ------------------------------------------------------------------
 1/18=20,19=15,26=3,38=1/1,3;
 2/9=110,12=2,17=6,18=5,40=1/2;
 3/5=1,6=6,7=1,11=2,25=1,30=1,70=32201,71=1,72=8,74=-55/1,2,3;
 4//1;
 5/5=2,38=5,53=8/2;
 6/7=2,8=2,9=2,10=2,28=1/1;
 7//1,2,3,16;
 1/18=20,19=15,26=3/3(2);
 2/9=110/2;
 99//99;
 2/9=110/2;
 3/5=1,6=6,7=1,11=2,25=1,30=1,70=32205,71=1,72=8,74=-55/1,2,3;
 4/5=5,16=3,69=1/1;
 5/5=2,38=5,53=8/2;
 7//1,2,3,16;
 1/18=20,19=15,26=3/3(-5);
 2/9=110/2;
 6/7=2,8=2,9=2,10=2,19=2,28=1/1;
 99/9=1/99;
 Leave Link    1 at Mon Dec 30 11:32:51 2019, MaxMem=  4294967296 cpu:               1.0 elap:               0.1
 (Enter /n/sw/g16_nehalem/g16/l101.exe)
 -----
 title
 -----
 Symbolic Z-matrix:
 Charge =  0 Multiplicity = 1
 7                     2.02465   0.82617   0.47585 
 1                     2.61116   0.50029   1.23419 
 6                     1.81509  -0.06337  -0.64788 
 1                     1.74585   0.54351  -1.55793 
 6                     3.0131   -0.98494  -0.77181 
 6                     0.53085  -0.89599  -0.52062 
 1                     2.87973  -1.77183  -1.51379 
 8                     0.54195  -2.11861  -0.53723 
 7                    -0.59607  -0.1582   -0.40702 
 1                    -0.54026   0.85963  -0.4465 
 6                    -1.87964  -0.8083   -0.30517 
 1                    -1.90098  -1.69883  -0.94064 
 6                    -2.11615  -1.26096   1.1351 
 6                    -3.02689   0.10526  -0.71868 
 1                    -1.27331  -1.8349    1.52735 
 8                    -4.15341  -0.2885   -0.87858 
 8                    -2.64064   1.37377  -0.84115 
 6                    -3.67561   2.30406  -1.18657 
 1                    -3.18763   3.27505  -1.24763 
 1                    -4.11813   2.03437  -2.14748 
 1                    -4.44774   2.30825  -0.41473 
 9                    -3.2431   -2.00496   1.21486 
 9                    -2.29913  -0.15743   1.91269 
 9                     4.11024  -0.24666  -1.08484 
 9                     3.25985  -1.55643   0.4407 
 6                     1.46263   2.05916   0.53067 
 8                     0.67495   2.4445   -0.3309 
 6                     1.85627   2.91929   1.70485 
 1                     0.95197   3.20251   2.24944 
 1                     2.55217   2.4257    2.38592 
 1                     2.31528   3.83495   1.32254 
 
 ITRead=  0  0  0  0  0  0  0  0  0  0  0  0  0  0  0  0  0  0  0  0
 ITRead=  0  0  0  0  0  0  0  0  0  0  0
 MicOpt= -1 -1 -1 -1 -1 -1 -1 -1 -1 -1 -1 -1 -1 -1 -1 -1 -1 -1 -1 -1
 MicOpt= -1 -1 -1 -1 -1 -1 -1 -1 -1 -1 -1
 NAtoms=     31 NQM=       31 NQMF=       0 NMMI=      0 NMMIF=      0
                NMic=       0 NMicF=      0.
                    Isotopes and Nuclear Properties:
 (Nuclear quadrupole moments (NQMom) in fm**2, nuclear magnetic moments (NMagM)
  in nuclear magnetons)

  Atom         1           2           3           4           5           6           7           8           9          10
 IAtWgt=          14           1          12           1          12          12           1          16          14           1
 AtmWgt=  14.0030740   1.0078250  12.0000000   1.0078250  12.0000000  12.0000000   1.0078250  15.9949146  14.0030740   1.0078250
 NucSpn=           2           1           0           1           0           0           1           0           2           1
 AtZEff=   0.0000000   0.0000000   0.0000000   0.0000000   0.0000000   0.0000000   0.0000000   0.0000000   0.0000000   0.0000000
 NQMom=    2.0440000   0.0000000   0.0000000   0.0000000   0.0000000   0.0000000   0.0000000   0.0000000   2.0440000   0.0000000
 NMagM=    0.4037610   2.7928460   0.0000000   2.7928460   0.0000000   0.0000000   2.7928460   0.0000000   0.4037610   2.7928460
 AtZNuc=   7.0000000   1.0000000   6.0000000   1.0000000   6.0000000   6.0000000   1.0000000   8.0000000   7.0000000   1.0000000

  Atom        11          12          13          14          15          16          17          18          19          20
 IAtWgt=          12           1          12          12           1          16          16          12           1           1
 AtmWgt=  12.0000000   1.0078250  12.0000000  12.0000000   1.0078250  15.9949146  15.9949146  12.0000000   1.0078250   1.0078250
 NucSpn=           0           1           0           0           1           0           0           0           1           1
 AtZEff=   0.0000000   0.0000000   0.0000000   0.0000000   0.0000000   0.0000000   0.0000000   0.0000000   0.0000000   0.0000000
 NQMom=    0.0000000   0.0000000   0.0000000   0.0000000   0.0000000   0.0000000   0.0000000   0.0000000   0.0000000   0.0000000
 NMagM=    0.0000000   2.7928460   0.0000000   0.0000000   2.7928460   0.0000000   0.0000000   0.0000000   2.7928460   2.7928460
 AtZNuc=   6.0000000   1.0000000   6.0000000   6.0000000   1.0000000   8.0000000   8.0000000   6.0000000   1.0000000   1.0000000

  Atom        21          22          23          24          25          26          27          28          29          30
 IAtWgt=           1          19          19          19          19          12          16          12           1           1
 AtmWgt=   1.0078250  18.9984033  18.9984033  18.9984033  18.9984033  12.0000000  15.9949146  12.0000000   1.0078250   1.0078250
 NucSpn=           1           1           1           1           1           0           0           0           1           1
 AtZEff=   0.0000000   0.0000000   0.0000000   0.0000000   0.0000000   0.0000000   0.0000000   0.0000000   0.0000000   0.0000000
 NQMom=    0.0000000   0.0000000   0.0000000   0.0000000   0.0000000   0.0000000   0.0000000   0.0000000   0.0000000   0.0000000
 NMagM=    2.7928460   2.6288670   2.6288670   2.6288670   2.6288670   0.0000000   0.0000000   0.0000000   2.7928460   2.7928460
 AtZNuc=   1.0000000   9.0000000   9.0000000   9.0000000   9.0000000   6.0000000   8.0000000   6.0000000   1.0000000   1.0000000

  Atom        31
 IAtWgt=           1
 AtmWgt=   1.0078250
 NucSpn=           1
 AtZEff=   0.0000000
 NQMom=    0.0000000
 NMagM=    2.7928460
 AtZNuc=   1.0000000
 Leave Link  101 at Mon Dec 30 11:32:52 2019, MaxMem=  4294967296 cpu:               9.0 elap:               0.7
 (Enter /n/sw/g16_nehalem/g16/l103.exe)

 GradGradGradGradGradGradGradGradGradGradGradGradGradGradGradGradGradGrad
 Berny optimization.
 Initialization pass.
                           ----------------------------
                           !    Initial Parameters    !
                           ! (Angstroms and Degrees)  !
 --------------------------                            --------------------------
 ! Name  Definition              Value          Derivative Info.                !
 --------------------------------------------------------------------------------
 ! R1    R(1,2)                  1.0126         estimate D2E/DX2                !
 ! R2    R(1,3)                  1.4484         estimate D2E/DX2                !
 ! R3    R(1,26)                 1.3562         estimate D2E/DX2                !
 ! R4    R(3,4)                  1.096          estimate D2E/DX2                !
 ! R5    R(3,5)                  1.5165         estimate D2E/DX2                !
 ! R6    R(3,6)                  1.5358         estimate D2E/DX2                !
 ! R7    R(5,7)                  1.0897         estimate D2E/DX2                !
 ! R8    R(5,24)                 1.359          estimate D2E/DX2                !
 ! R9    R(5,25)                 1.363          estimate D2E/DX2                !
 ! R10   R(6,8)                  1.2228         estimate D2E/DX2                !
 ! R11   R(6,9)                  1.3517         estimate D2E/DX2                !
 ! R12   R(9,10)                 1.0201         estimate D2E/DX2                !
 ! R13   R(9,11)                 1.4424         estimate D2E/DX2                !
 ! R14   R(11,12)                1.0942         estimate D2E/DX2                !
 ! R15   R(11,13)                1.5281         estimate D2E/DX2                !
 ! R16   R(11,14)                1.5237         estimate D2E/DX2                !
 ! R17   R(13,15)                1.0925         estimate D2E/DX2                !
 ! R18   R(13,22)                1.3527         estimate D2E/DX2                !
 ! R19   R(13,23)                1.3623         estimate D2E/DX2                !
 ! R20   R(14,16)                1.204          estimate D2E/DX2                !
 ! R21   R(14,17)                1.3316         estimate D2E/DX2                !
 ! R22   R(17,18)                1.4338         estimate D2E/DX2                !
 ! R23   R(18,19)                1.0884         estimate D2E/DX2                !
 ! R24   R(18,20)                1.0917         estimate D2E/DX2                !
 ! R25   R(18,21)                1.0918         estimate D2E/DX2                !
 ! R26   R(26,27)                1.2293         estimate D2E/DX2                !
 ! R27   R(26,28)                1.5078         estimate D2E/DX2                !
 ! R28   R(28,29)                1.0929         estimate D2E/DX2                !
 ! R29   R(28,30)                1.0917         estimate D2E/DX2                !
 ! R30   R(28,31)                1.0933         estimate D2E/DX2                !
 ! A1    A(2,1,3)              117.8521         estimate D2E/DX2                !
 ! A2    A(2,1,26)             120.1578         estimate D2E/DX2                !
 ! A3    A(3,1,26)             121.9901         estimate D2E/DX2                !
 ! A4    A(1,3,4)              108.2561         estimate D2E/DX2                !
 ! A5    A(1,3,5)              108.8027         estimate D2E/DX2                !
 ! A6    A(1,3,6)              112.9321         estimate D2E/DX2                !
 ! A7    A(4,3,5)              108.5741         estimate D2E/DX2                !
 ! A8    A(4,3,6)              108.4306         estimate D2E/DX2                !
 ! A9    A(5,3,6)              109.7485         estimate D2E/DX2                !
 ! A10   A(3,5,7)              113.4383         estimate D2E/DX2                !
 ! A11   A(3,5,24)             109.0541         estimate D2E/DX2                !
 ! A12   A(3,5,25)             108.9728         estimate D2E/DX2                !
 ! A13   A(7,5,24)             109.5275         estimate D2E/DX2                !
 ! A14   A(7,5,25)             108.9717         estimate D2E/DX2                !
 ! A15   A(24,5,25)            106.6519         estimate D2E/DX2                !
 ! A16   A(3,6,8)              122.2318         estimate D2E/DX2                !
 ! A17   A(3,6,9)              114.0909         estimate D2E/DX2                !
 ! A18   A(8,6,9)              123.6726         estimate D2E/DX2                !
 ! A19   A(6,9,10)             119.7171         estimate D2E/DX2                !
 ! A20   A(6,9,11)             120.1201         estimate D2E/DX2                !
 ! A21   A(10,9,11)            120.0733         estimate D2E/DX2                !
 ! A22   A(9,11,12)            110.069          estimate D2E/DX2                !
 ! A23   A(9,11,13)            109.7419         estimate D2E/DX2                !
 ! A24   A(9,11,14)            112.3723         estimate D2E/DX2                !
 ! A25   A(12,11,13)           107.6533         estimate D2E/DX2                !
 ! A26   A(12,11,14)           108.4007         estimate D2E/DX2                !
 ! A27   A(13,11,14)           108.4723         estimate D2E/DX2                !
 ! A28   A(11,13,15)           111.999          estimate D2E/DX2                !
 ! A29   A(11,13,22)           110.3298         estimate D2E/DX2                !
 ! A30   A(11,13,23)           108.5903         estimate D2E/DX2                !
 ! A31   A(15,13,22)           109.4262         estimate D2E/DX2                !
 ! A32   A(15,13,23)           108.9186         estimate D2E/DX2                !
 ! A33   A(22,13,23)           107.456          estimate D2E/DX2                !
 ! A34   A(11,14,16)           122.9848         estimate D2E/DX2                !
 ! A35   A(11,14,17)           112.1909         estimate D2E/DX2                !
 ! A36   A(16,14,17)           124.7994         estimate D2E/DX2                !
 ! A37   A(14,17,18)           115.5202         estimate D2E/DX2                !
 ! A38   A(17,18,19)           105.5868         estimate D2E/DX2                !
 ! A39   A(17,18,20)           110.1414         estimate D2E/DX2                !
 ! A40   A(17,18,21)           110.0396         estimate D2E/DX2                !
 ! A41   A(19,18,20)           110.6536         estimate D2E/DX2                !
 ! A42   A(19,18,21)           110.6901         estimate D2E/DX2                !
 ! A43   A(20,18,21)           109.6661         estimate D2E/DX2                !
 ! A44   A(1,26,27)            121.4793         estimate D2E/DX2                !
 ! A45   A(1,26,28)            116.2272         estimate D2E/DX2                !
 ! A46   A(27,26,28)           122.2933         estimate D2E/DX2                !
 ! A47   A(26,28,29)           108.6532         estimate D2E/DX2                !
 ! A48   A(26,28,30)           113.2245         estimate D2E/DX2                !
 ! A49   A(26,28,31)           108.3645         estimate D2E/DX2                !
 ! A50   A(29,28,30)           109.4956         estimate D2E/DX2                !
 ! A51   A(29,28,31)           107.733          estimate D2E/DX2                !
 ! A52   A(30,28,31)           109.2202         estimate D2E/DX2                !
 ! D1    D(2,1,3,4)           -145.2974         estimate D2E/DX2                !
 ! D2    D(2,1,3,5)            -27.4813         estimate D2E/DX2                !
 ! D3    D(2,1,3,6)             94.6337         estimate D2E/DX2                !
 ! D4    D(26,1,3,4)            34.7252         estimate D2E/DX2                !
 ! D5    D(26,1,3,5)           152.5413         estimate D2E/DX2                !
 ! D6    D(26,1,3,6)           -85.3437         estimate D2E/DX2                !
 ! D7    D(2,1,26,27)         -174.9906         estimate D2E/DX2                !
 ! D8    D(2,1,26,28)            4.8321         estimate D2E/DX2                !
 ! D9    D(3,1,26,27)            4.9863         estimate D2E/DX2                !
 ! D10   D(3,1,26,28)         -175.191          estimate D2E/DX2                !
 ! D11   D(1,3,5,7)            172.5603         estimate D2E/DX2                !
 ! D12   D(1,3,5,24)           -65.084          estimate D2E/DX2                !
 ! D13   D(1,3,5,25)            50.9768         estimate D2E/DX2                !
 ! D14   D(4,3,5,7)            -69.825          estimate D2E/DX2                !
 ! D15   D(4,3,5,24)            52.5306         estimate D2E/DX2                !
 ! D16   D(4,3,5,25)           168.5915         estimate D2E/DX2                !
 ! D17   D(6,3,5,7)             48.5349         estimate D2E/DX2                !
 ! D18   D(6,3,5,24)           170.8905         estimate D2E/DX2                !
 ! D19   D(6,3,5,25)           -73.0486         estimate D2E/DX2                !
 ! D20   D(1,3,6,8)           -122.2292         estimate D2E/DX2                !
 ! D21   D(1,3,6,9)             58.5368         estimate D2E/DX2                !
 ! D22   D(4,3,6,8)            117.8021         estimate D2E/DX2                !
 ! D23   D(4,3,6,9)            -61.432          estimate D2E/DX2                !
 ! D24   D(5,3,6,8)             -0.6467         estimate D2E/DX2                !
 ! D25   D(5,3,6,9)           -179.8807         estimate D2E/DX2                !
 ! D26   D(3,6,9,10)             2.2683         estimate D2E/DX2                !
 ! D27   D(3,6,9,11)           178.831          estimate D2E/DX2                !
 ! D28   D(8,6,9,10)          -176.9532         estimate D2E/DX2                !
 ! D29   D(8,6,9,11)            -0.3904         estimate D2E/DX2                !
 ! D30   D(6,9,11,12)          -36.9887         estimate D2E/DX2                !
 ! D31   D(6,9,11,13)           81.3141         estimate D2E/DX2                !
 ! D32   D(6,9,11,14)         -157.9056         estimate D2E/DX2                !
 ! D33   D(10,9,11,12)         139.5617         estimate D2E/DX2                !
 ! D34   D(10,9,11,13)        -102.1355         estimate D2E/DX2                !
 ! D35   D(10,9,11,14)          18.6448         estimate D2E/DX2                !
 ! D36   D(9,11,13,15)         -50.8554         estimate D2E/DX2                !
 ! D37   D(9,11,13,22)        -173.0113         estimate D2E/DX2                !
 ! D38   D(9,11,13,23)          69.4642         estimate D2E/DX2                !
 ! D39   D(12,11,13,15)         68.9336         estimate D2E/DX2                !
 ! D40   D(12,11,13,22)        -53.2223         estimate D2E/DX2                !
 ! D41   D(12,11,13,23)       -170.7469         estimate D2E/DX2                !
 ! D42   D(14,11,13,15)       -173.9651         estimate D2E/DX2                !
 ! D43   D(14,11,13,22)         63.879          estimate D2E/DX2                !
 ! D44   D(14,11,13,23)        -53.6456         estimate D2E/DX2                !
 ! D45   D(9,11,14,16)         169.7927         estimate D2E/DX2                !
 ! D46   D(9,11,14,17)         -11.9449         estimate D2E/DX2                !
 ! D47   D(12,11,14,16)         47.9219         estimate D2E/DX2                !
 ! D48   D(12,11,14,17)       -133.8157         estimate D2E/DX2                !
 ! D49   D(13,11,14,16)        -68.6992         estimate D2E/DX2                !
 ! D50   D(13,11,14,17)        109.5633         estimate D2E/DX2                !
 ! D51   D(11,14,17,18)       -178.0716         estimate D2E/DX2                !
 ! D52   D(16,14,17,18)          0.1535         estimate D2E/DX2                !
 ! D53   D(14,17,18,19)       -179.7557         estimate D2E/DX2                !
 ! D54   D(14,17,18,20)        -60.2607         estimate D2E/DX2                !
 ! D55   D(14,17,18,21)         60.7595         estimate D2E/DX2                !
 ! D56   D(1,26,28,29)        -122.5498         estimate D2E/DX2                !
 ! D57   D(1,26,28,30)          -0.6693         estimate D2E/DX2                !
 ! D58   D(1,26,28,31)         120.6564         estimate D2E/DX2                !
 ! D59   D(27,26,28,29)         57.2713         estimate D2E/DX2                !
 ! D60   D(27,26,28,30)        179.1519         estimate D2E/DX2                !
 ! D61   D(27,26,28,31)        -59.5225         estimate D2E/DX2                !
 --------------------------------------------------------------------------------
 Trust Radius=3.00D-01 FncErr=1.00D-07 GrdErr=1.00D-06 EigMax=2.50D+02 EigMin=1.00D-04
 Number of steps in this run=    153 maximum allowed number of steps=    186.
 GradGradGradGradGradGradGradGradGradGradGradGradGradGradGradGradGradGrad

 Leave Link  103 at Mon Dec 30 11:32:52 2019, MaxMem=  4294967296 cpu:               0.8 elap:               0.1
 (Enter /n/sw/g16_nehalem/g16/l202.exe)
                          Input orientation:                          
 ---------------------------------------------------------------------
 Center     Atomic      Atomic             Coordinates (Angstroms)
 Number     Number       Type             X           Y           Z
 ---------------------------------------------------------------------
      1          7           0        2.024650    0.826168    0.475849
      2          1           0        2.611158    0.500289    1.234187
      3          6           0        1.815094   -0.063369   -0.647878
      4          1           0        1.745851    0.543509   -1.557927
      5          6           0        3.013101   -0.984938   -0.771808
      6          6           0        0.530852   -0.895987   -0.520619
      7          1           0        2.879728   -1.771829   -1.513788
      8          8           0        0.541953   -2.118609   -0.537230
      9          7           0       -0.596073   -0.158196   -0.407021
     10          1           0       -0.540262    0.859634   -0.446502
     11          6           0       -1.879645   -0.808295   -0.305170
     12          1           0       -1.900985   -1.698830   -0.940638
     13          6           0       -2.116155   -1.260961    1.135101
     14          6           0       -3.026893    0.105265   -0.718681
     15          1           0       -1.273309   -1.834899    1.527349
     16          8           0       -4.153413   -0.288501   -0.878579
     17          8           0       -2.640643    1.373768   -0.841147
     18          6           0       -3.675615    2.304057   -1.186568
     19          1           0       -3.187629    3.275051   -1.247625
     20          1           0       -4.118127    2.034374   -2.147483
     21          1           0       -4.447742    2.308248   -0.414729
     22          9           0       -3.243105   -2.004964    1.214856
     23          9           0       -2.299131   -0.157429    1.912689
     24          9           0        4.110240   -0.246662   -1.084844
     25          9           0        3.259850   -1.556433    0.440700
     26          6           0        1.462626    2.059165    0.530675
     27          8           0        0.674949    2.444497   -0.330901
     28          6           0        1.856268    2.919286    1.704852
     29          1           0        0.951974    3.202508    2.249439
     30          1           0        2.552171    2.425699    2.385921
     31          1           0        2.315282    3.834948    1.322542
 ---------------------------------------------------------------------
                    Distance matrix (angstroms):
                    1          2          3          4          5
     1  N    0.000000
     2  H    1.012554   0.000000
     3  C    1.448431   2.119811   0.000000
     4  H    2.072165   2.923444   1.096031   0.000000
     5  C    2.411180   2.528136   1.516532   2.135429   0.000000
     6  C    2.488011   3.058857   1.535814   2.150437   2.496511
     7  H    3.382219   3.575754   2.191365   2.578452   1.089734
     8  O    3.449120   3.778644   2.420153   3.094845   2.728884
     9  N    2.935408   3.662444   2.425022   2.702144   3.720579
    10  H    2.725917   3.589609   2.537753   2.561545   4.016797
    11  C    4.304065   4.924360   3.784635   4.067062   4.918121
    12  H    4.877772   5.470413   4.070588   4.325337   4.968540
    13  C    4.683694   5.045722   4.479728   5.042182   5.479211
    14  C    5.240676   5.979746   4.845440   4.865745   6.137825
    15  H    4.366173   4.541820   4.172309   4.928598   4.937800
    16  O    6.422260   7.130595   5.977205   5.996255   7.201066
    17  O    4.878453   5.714140   4.685756   4.521552   6.126428
    18  C    6.118889   6.974034   6.003564   5.712244   7.465148
    19  H    6.011260   6.890909   6.044169   5.647728   7.538101
    20  H    6.787882   7.685856   6.469347   6.079185   7.865312
    21  H    6.699369   7.470991   6.700898   6.540780   8.163134
    22  F    6.025835   6.367815   5.729306   6.250818   6.642846
    23  F    4.661229   5.000390   4.846875   5.375720   6.009252
    24  F    2.817164   2.860610   2.343551   2.537423   1.358954
    25  F    2.683979   2.297940   2.345541   3.270544   1.362963
    26  C    1.356156   2.060133   2.453237   2.596091   3.656091
    27  O    2.256441   3.158853   2.773048   2.503234   4.174012
    28  C    2.433093   2.577388   3.799114   4.037603   4.766033
    29  H    3.153291   3.329507   4.450323   4.711322   5.559756
    30  H    2.546596   2.244365   3.992828   4.443729   4.670777
    31  H    3.139126   3.348925   4.396546   4.410774   5.301373
                    6          7          8          9         10
     6  C    0.000000
     7  H    2.696424   0.000000
     8  O    1.222785   2.557169   0.000000
     9  N    1.351740   3.988726   2.270523   0.000000
    10  H    2.057908   4.445225   3.170071   1.020123   0.000000
    11  C    2.421694   5.004077   2.763134   1.442414   2.143807
    12  H    2.595150   4.815501   2.511354   2.088324   2.939639
    13  C    3.143447   5.677715   3.255425   2.429996   3.079258
    14  C    3.701254   6.248508   4.208943   2.464839   2.612755
    15  H    2.886300   5.147835   2.763721   2.647974   3.419642
    16  O    4.737036   7.215873   5.050968   3.590824   3.815726
    17  O    3.913171   6.389188   4.734763   2.591456   2.198108
    18  C    5.327113   7.726088   6.145689   4.019199   3.530509
    19  H    5.634997   7.896497   6.595909   4.382917   3.672137
    20  H    5.731205   7.991165   6.446435   4.499048   4.132126
    21  H    5.921548   8.458533   6.671516   4.573703   4.167480
    22  F    4.299355   6.707379   4.172455   3.612176   4.274505
    23  F    3.804637   6.416199   4.233213   2.877753   3.113490
    24  F    3.681303   2.006063   4.066539   4.755697   4.822711
    25  F    2.967786   2.002726   2.942678   4.188298   4.589701
    26  C    3.272055   4.567770   4.409292   3.167681   2.530871
    27  O    3.348969   4.902823   4.569704   2.897465   2.000473
    28  C    4.611481   5.780456   5.668751   4.465969   3.822806
    29  H    4.964698   6.528564   6.020625   4.554949   3.870907
    30  H    4.854617   5.738838   5.765113   4.938469   4.476418
    31  H    5.381745   6.308670   6.484465   5.235702   4.487331
                   11         12         13         14         15
    11  C    0.000000
    12  H    1.094225   0.000000
    13  C    1.528144   2.132304   0.000000
    14  C    1.523733   2.138152   2.476394   0.000000
    15  H    2.186249   2.550187   1.092544   3.447310   0.000000
    16  O    2.401875   2.658253   3.025063   1.204021   4.058920
    17  O    2.372296   3.161938   3.335032   1.331648   4.216031
    18  C    3.699879   4.385533   4.531161   2.339753   5.501579
    19  H    4.390075   5.146765   5.234582   3.217633   6.121821
    20  H    4.060257   4.506551   5.063841   2.636992   6.047202
    21  H    4.039798   4.776947   4.536246   2.639002   5.569054
    22  F    2.366753   2.557569   1.352744   2.870258   2.001667
    23  F    2.349147   3.267401   1.362316   2.742764   2.003672
    24  F    6.066469   6.185824   6.687672   7.155180   6.191014
    25  F    5.246946   5.344398   5.428713   6.605191   4.669891
    26  C    4.482381   5.253681   4.918967   5.053157   4.862349
    27  O    4.136093   4.916744   4.865166   4.396136   5.055891
    28  C    5.647309   6.514796   5.794758   6.134940   5.694562
    29  H    5.534495   6.506849   5.529712   5.850986   5.554167
    30  H    6.110784   6.921585   6.078592   6.793300   5.790003
    31  H    6.465800   7.315845   6.755816   6.827588   6.713203
                   16         17         18         19         20
    16  O    0.000000
    17  O    2.247891   0.000000
    18  C    2.654149   1.433848   0.000000
    19  H    3.710504   2.019726   1.088434   0.000000
    20  H    2.647095   2.079873   1.091743   1.793000   0.000000
    21  H    2.654221   2.078627   1.091757   1.793407   1.784962
    22  F    2.856112   4.000742   4.951925   5.826272   5.327968
    23  F    3.353613   3.169354   4.190348   4.749624   4.959611
    24  F    8.266333   6.946913   8.193659   8.104804   8.604554
    25  F    7.635746   6.711559   8.102596   8.231869   8.603902
    26  C    6.247994   4.380466   5.423137   5.124998   6.190149
    27  O    5.575151   3.521358   4.436135   4.055824   5.142154
    28  C    7.285621   5.393788   6.272204   5.855304   7.163585
    29  H    6.930845   5.079656   5.833347   5.419505   6.812003
    30  H    7.936542   6.203696   7.180724   6.846120   8.074513
    31  H    7.980713   5.941393   6.673088   6.099285   7.528074
                   21         22         23         24         25
    21  H    0.000000
    22  F    4.765553   0.000000
    23  F    4.014096   2.188937   0.000000
    24  F    8.956320   7.902653   7.076242   0.000000
    25  F    8.664554   6.564215   5.918297   2.183105   0.000000
    26  C    5.990683   6.255330   4.579745   3.864790   4.038646
    27  O    5.125188   6.126844   4.544102   4.428543   4.825404
    28  C    6.678812   7.105768   5.174622   4.783934   4.858002
    29  H    6.087235   6.766595   4.687458   5.743593   5.589754
    30  H    7.540306   7.388328   5.516487   4.649226   4.487992
    31  H    7.147546   8.062992   6.130265   5.067240   5.544082
                   26         27         28         29         30
    26  C    0.000000
    27  O    1.229321   0.000000
    28  C    1.507798   2.401089   0.000000
    29  H    2.126534   2.703605   1.092949   0.000000
    30  H    2.182520   3.302338   1.091679   1.784010   0.000000
    31  H    2.123083   2.712549   1.093294   1.765709   1.781256
                   31
    31  H    0.000000
 Stoichiometry    C9H12F4N2O4
 Framework group  C1[X(C9H12F4N2O4)]
 Deg. of freedom    87
 Full point group                 C1      NOp   1
 Largest Abelian subgroup         C1      NOp   1
 Largest concise Abelian subgroup C1      NOp   1
                         Standard orientation:                         
 ---------------------------------------------------------------------
 Center     Atomic      Atomic             Coordinates (Angstroms)
 Number     Number       Type             X           Y           Z
 ---------------------------------------------------------------------
      1          7           0        2.245600    0.730224    0.490040
      2          1           0        2.832108    0.404345    1.248378
      3          6           0        2.036044   -0.159313   -0.633687
      4          1           0        1.966801    0.447565   -1.543736
      5          6           0        3.234051   -1.080882   -0.757617
      6          6           0        0.751802   -0.991931   -0.506428
      7          1           0        3.100678   -1.867773   -1.499597
      8          8           0        0.762903   -2.214553   -0.523039
      9          7           0       -0.375123   -0.254140   -0.392830
     10          1           0       -0.319312    0.763690   -0.432311
     11          6           0       -1.658695   -0.904239   -0.290979
     12          1           0       -1.680035   -1.794774   -0.926447
     13          6           0       -1.895205   -1.356905    1.149292
     14          6           0       -2.805943    0.009321   -0.704490
     15          1           0       -1.052359   -1.930843    1.541540
     16          8           0       -3.932463   -0.384445   -0.864388
     17          8           0       -2.419693    1.277824   -0.826956
     18          6           0       -3.454665    2.208113   -1.172377
     19          1           0       -2.966679    3.179107   -1.233434
     20          1           0       -3.897177    1.938430   -2.133292
     21          1           0       -4.226792    2.212304   -0.400538
     22          9           0       -3.022155   -2.100908    1.229047
     23          9           0       -2.078181   -0.253373    1.926880
     24          9           0        4.331190   -0.342606   -1.070653
     25          9           0        3.480800   -1.652377    0.454891
     26          6           0        1.683576    1.963221    0.544866
     27          8           0        0.895899    2.348553   -0.316710
     28          6           0        2.077218    2.823342    1.719043
     29          1           0        1.172924    3.106564    2.263630
     30          1           0        2.773121    2.329755    2.400112
     31          1           0        2.536232    3.739004    1.336733
 ---------------------------------------------------------------------
 Rotational constants (GHZ):           0.5374373           0.2272571           0.1940811
 Leave Link  202 at Mon Dec 30 11:32:52 2019, MaxMem=  4294967296 cpu:               3.6 elap:               0.3
 (Enter /n/sw/g16_nehalem/g16/l301.exe)
 Standard basis: 6-31G(d) (6D, 7F)
 Ernie: Thresh=  0.10000D-02 Tol=  0.10000D-05 Strict=F.
 There are   309 symmetry adapted cartesian basis functions of A   symmetry.
 There are   309 symmetry adapted basis functions of A   symmetry.
   309 basis functions,   580 primitive gaussians,   309 cartesian basis functions
    74 alpha electrons       74 beta electrons
       nuclear repulsion energy      1636.9633909507 Hartrees.
 IExCor= 4336 DFT=T Ex+Corr=M062X ExCW=0 ScaHFX=  0.540000
 ScaDFX=  1.000000  1.000000  1.000000  1.000000 ScalE2=  1.000000  1.000000
 IRadAn=      5 IRanWt=     -1 IRanGd=            0 ICorTp=0 IEmpDi=  4
 NAtoms=   31 NActive=   31 NUniq=   31 SFac= 1.00D+00 NAtFMM=   60 NAOKFM=F Big=F
 Integral buffers will be    131072 words long.
 Raffenetti 2 integral format.
 Two-electron integral symmetry is turned on.
 ------------------------------------------------------------------------------
 Polarizable Continuum Model (PCM)
 =================================
 Model                : PCM.
 Atomic radii         : SMD-Coulomb.
 Polarization charges : Total charges.
 Charge compensation  : None.
 Solution method      : On-the-fly selection.
 Cavity type          : VdW (van der Waals Surface) (Alpha=1.000).
 Cavity algorithm     : GePol (No added spheres)
                        Default sphere list used, NSphG=   31.
                        Lebedev-Laikov grids with approx.  5.0 points / Ang**2.
                        Smoothing algorithm: York/Karplus (Gamma=1.0000).
                        Polarization charges: spherical gaussians, with
                                              point-specific exponents (IZeta= 3).
                        Self-potential: point-specific (ISelfS= 7).
                        Self-field    : sphere-specific E.n sum rule (ISelfD= 2).
 1st derivatives      : Analytical E(r).r(x)/FMM algorithm (CHGder, D1EAlg=3).
                        Cavity 1st derivative terms included.
 Solvent              : DiethylEther, Eps=   4.240000 Eps(inf)=   1.829527
 ------------------------------------------------------------------------------
 GePol: Number of generator spheres                  =      31
 GePol: Total number of spheres                      =      31
 GePol: Number of exposed spheres                    =      30 ( 96.77%)
 GePol: Number of points                             =    2361
 GePol: Average weight of points                     =       0.13
 GePol: Minimum weight of points                     =   0.33D-08
 GePol: Maximum weight of points                     =    0.21501
 GePol: Number of points with low weight             =     115
 GePol: Fraction of low-weight points (<1% of avg)   =       4.87%
 GePol: Cavity surface area                          =    306.042 Ang**2
 GePol: Cavity volume                                =    317.684 Ang**3
 ------------------------------------------------------------------------------
 Atomic radii for non-electrostatic terms: SMD-CDS.
 ------------------------------------------------------------------------------
 PCM non-electrostatic energy =        -0.0042503635 Hartrees.
 Nuclear repulsion after PCM non-electrostatic terms =     1636.9591405872 Hartrees.
 Leave Link  301 at Mon Dec 30 11:32:53 2019, MaxMem=  4294967296 cpu:               3.3 elap:               0.3
 (Enter /n/sw/g16_nehalem/g16/l302.exe)
 NPDir=0 NMtPBC=     1 NCelOv=     1 NCel=       1 NClECP=     1 NCelD=      1
         NCelK=      1 NCelE2=     1 NClLst=     1 CellRange=     0.0.
 One-electron integrals computed using PRISM.
 One-electron integral symmetry used in STVInt
 NBasis=   309 RedAO= T EigKep=  1.70D-03  NBF=   309
 NBsUse=   309 1.00D-06 EigRej= -1.00D+00 NBFU=   309
 Precomputing XC quadrature grid using
 IXCGrd= 4 IRadAn=           5 IRanWt=          -1 IRanGd=           0 AccXCQ= 0.00D+00.
 Generated NRdTot=       0 NPtTot=           0 NUsed=           0 NTot=          32
 NSgBfM=   307   307   307   307   307 MxSgAt=    31 MxSgA2=    31.
 Leave Link  302 at Mon Dec 30 11:32:54 2019, MaxMem=  4294967296 cpu:              10.1 elap:               0.7
 (Enter /n/sw/g16_nehalem/g16/l303.exe)
 DipDrv:  MaxL=1.
 Leave Link  303 at Mon Dec 30 11:32:55 2019, MaxMem=  4294967296 cpu:               2.0 elap:               0.3
 (Enter /n/sw/g16_nehalem/g16/l401.exe)
 ExpMin= 1.61D-01 ExpMax= 7.00D+03 ExpMxC= 1.05D+03 IAcc=3 IRadAn=         5 AccDes= 0.00D+00
 Harris functional with IExCor= 1009 and IRadAn=       5 diagonalized for initial guess.
 HarFok:  IExCor= 1009 AccDes= 0.00D+00 IRadAn=         5 IDoV= 1 UseB2=F ITyADJ=14
 ICtDFT=  3500011 ScaDFX=  1.000000  1.000000  1.000000  1.000000
 FoFCou: FMM=F IPFlag=           0 FMFlag=      100000 FMFlg1=           0
         NFxFlg=           0 DoJE=T BraDBF=F KetDBF=T FulRan=T
         wScrn=  0.000000 ICntrl=       500 IOpCl=  0 I1Cent=   200000004 NGrid=           0
         NMat0=    1 NMatS0=      1 NMatT0=    0 NMatD0=    1 NMtDS0=    0 NMtDT0=    0
 Petite list used in FoFCou.
 Harris En= -1158.87788125554    
 JPrj=0 DoOrth=F DoCkMO=F.
 Leave Link  401 at Mon Dec 30 11:32:57 2019, MaxMem=  4294967296 cpu:              21.2 elap:               1.6
 (Enter /n/sw/g16_nehalem/g16/l502.exe)
 Integral symmetry usage will be decided dynamically.
 Closed shell SCF:
 Using DIIS extrapolation, IDIIS=  1040.
 NGot=  4294967296 LenX=  4294767994 LenY=  4294672072
 Requested convergence on RMS density matrix=1.00D-08 within 128 cycles.
 Requested convergence on MAX density matrix=1.00D-06.
 Requested convergence on             energy=1.00D-06.
 No special actions if energy rises.
 Fock matrices will be formed incrementally for  20 cycles.

 Cycle   1  Pass 1  IDiag  1:
 FoFJK:  IHMeth= 1 ICntrl=       0 DoSepK=F KAlg= 0 I1Cent=           0 FoldK=F
 IRaf= 800000000 NMat=       1 IRICut=       1 DoRegI=T DoRafI=F ISym2E= 0 IDoP0=0 IntGTp=1.
 FoFCou: FMM=F IPFlag=           0 FMFlag=      100000 FMFlg1=           0
         NFxFlg=           0 DoJE=F BraDBF=F KetDBF=F FulRan=T
         wScrn=  0.000000 ICntrl=         0 IOpCl=  0 I1Cent=           0 NGrid=           0
         NMat0=    1 NMatS0=      1 NMatT0=    0 NMatD0=    1 NMtDS0=    0 NMtDT0=    0
 Symmetry not used in FoFCou.
 Inv3:  Mode=1 IEnd=    16722963.
 Iteration    1 A*A^-1 deviation from unit magnitude is 6.44D-15 for    410.
 Iteration    1 A*A^-1 deviation from orthogonality  is 3.95D-15 for   1297    572.
 Iteration    1 A^-1*A deviation from unit magnitude is 6.00D-15 for   2345.
 Iteration    1 A^-1*A deviation from orthogonality  is 7.55D-12 for   1311   1297.
 E= -1159.22439636053    
 DIIS: error= 1.74D-02 at cycle   1 NSaved=   1.
 NSaved= 1 IEnMin= 1 EnMin= -1159.22439636053     IErMin= 1 ErrMin= 1.74D-02
 ErrMax= 1.74D-02  0.00D+00 EMaxC= 1.00D-01 BMatC= 5.03D-01 BMatP= 5.03D-01
 IDIUse=3 WtCom= 8.26D-01 WtEn= 1.74D-01
 Coeff-Com:  0.100D+01
 Coeff-En:   0.100D+01
 Coeff:      0.100D+01
 Gap=     0.354 Goal=   None    Shift=    0.000
 GapD=    0.354 DampG=1.000 DampE=0.500 DampFc=0.5000 IDamp=-1.
 Damping current iteration by 5.00D-01
 RMSDP=3.72D-03 MaxDP=1.65D-01              OVMax= 1.89D-01

 Cycle   2  Pass 1  IDiag  1:
 RMSU=  1.86D-03    CP:  9.95D-01
 E= -1159.37591134957     Delta-E=       -0.151514989041 Rises=F Damp=T
 DIIS: error= 8.02D-03 at cycle   2 NSaved=   2.
 NSaved= 2 IEnMin= 2 EnMin= -1159.37591134957     IErMin= 2 ErrMin= 8.02D-03
 ErrMax= 8.02D-03  0.00D+00 EMaxC= 1.00D-01 BMatC= 5.47D-02 BMatP= 5.03D-01
 IDIUse=3 WtCom= 9.20D-01 WtEn= 8.02D-02
 Coeff-Com:  0.180D-01 0.982D+00
 Coeff-En:   0.639D-01 0.936D+00
 Coeff:      0.217D-01 0.978D+00
 Gap=     0.385 Goal=   None    Shift=    0.000
 RMSDP=1.08D-03 MaxDP=4.23D-02 DE=-1.52D-01 OVMax= 9.08D-02

 Cycle   3  Pass 1  IDiag  1:
 RMSU=  1.03D-03    CP:  9.89D-01  8.38D-01
 E= -1159.54481975626     Delta-E=       -0.168908406688 Rises=F Damp=F
 DIIS: error= 6.28D-03 at cycle   3 NSaved=   3.
 NSaved= 3 IEnMin= 3 EnMin= -1159.54481975626     IErMin= 3 ErrMin= 6.28D-03
 ErrMax= 6.28D-03  0.00D+00 EMaxC= 1.00D-01 BMatC= 2.83D-02 BMatP= 5.47D-02
 IDIUse=3 WtCom= 9.37D-01 WtEn= 6.28D-02
 Coeff-Com: -0.850D-01 0.430D+00 0.655D+00
 Coeff-En:   0.000D+00 0.000D+00 0.100D+01
 Coeff:     -0.796D-01 0.403D+00 0.677D+00
 Gap=     0.365 Goal=   None    Shift=    0.000
 RMSDP=6.03D-04 MaxDP=2.77D-02 DE=-1.69D-01 OVMax= 4.17D-02

 Cycle   4  Pass 1  IDiag  1:
 RMSU=  3.57D-04    CP:  9.92D-01  9.94D-01  6.25D-01
 E= -1159.56354625871     Delta-E=       -0.018726502449 Rises=F Damp=F
 DIIS: error= 2.40D-03 at cycle   4 NSaved=   4.
 NSaved= 4 IEnMin= 4 EnMin= -1159.56354625871     IErMin= 4 ErrMin= 2.40D-03
 ErrMax= 2.40D-03  0.00D+00 EMaxC= 1.00D-01 BMatC= 4.85D-03 BMatP= 2.83D-02
 IDIUse=3 WtCom= 9.76D-01 WtEn= 2.40D-02
 Coeff-Com: -0.325D-01 0.772D-01 0.337D+00 0.618D+00
 Coeff-En:   0.000D+00 0.000D+00 0.120D+00 0.880D+00
 Coeff:     -0.317D-01 0.754D-01 0.332D+00 0.624D+00
 Gap=     0.361 Goal=   None    Shift=    0.000
 RMSDP=2.05D-04 MaxDP=1.00D-02 DE=-1.87D-02 OVMax= 1.28D-02

 Cycle   5  Pass 1  IDiag  1:
 RMSU=  8.97D-05    CP:  9.91D-01  9.56D-01  7.44D-01  6.71D-01
 E= -1159.56723852677     Delta-E=       -0.003692268060 Rises=F Damp=F
 DIIS: error= 4.68D-04 at cycle   5 NSaved=   5.
 NSaved= 5 IEnMin= 5 EnMin= -1159.56723852677     IErMin= 5 ErrMin= 4.68D-04
 ErrMax= 4.68D-04  0.00D+00 EMaxC= 1.00D-01 BMatC= 1.75D-04 BMatP= 4.85D-03
 IDIUse=3 WtCom= 9.95D-01 WtEn= 4.68D-03
 Coeff-Com: -0.978D-02 0.164D-01 0.123D+00 0.279D+00 0.591D+00
 Coeff-En:   0.000D+00 0.000D+00 0.000D+00 0.000D+00 0.100D+01
 Coeff:     -0.973D-02 0.163D-01 0.122D+00 0.278D+00 0.593D+00
 Gap=     0.360 Goal=   None    Shift=    0.000
 RMSDP=4.02D-05 MaxDP=2.00D-03 DE=-3.69D-03 OVMax= 3.25D-03

 Cycle   6  Pass 1  IDiag  1:
 RMSU=  2.73D-05    CP:  9.91D-01  9.59D-01  7.51D-01  7.16D-01  7.48D-01
 E= -1159.56738028583     Delta-E=       -0.000141759064 Rises=F Damp=F
 DIIS: error= 1.23D-04 at cycle   6 NSaved=   6.
 NSaved= 6 IEnMin= 6 EnMin= -1159.56738028583     IErMin= 6 ErrMin= 1.23D-04
 ErrMax= 1.23D-04  0.00D+00 EMaxC= 1.00D-01 BMatC= 1.18D-05 BMatP= 1.75D-04
 IDIUse=3 WtCom= 9.99D-01 WtEn= 1.23D-03
 Coeff-Com: -0.335D-03-0.142D-02 0.144D-01 0.374D-01 0.221D+00 0.729D+00
 Coeff-En:   0.000D+00 0.000D+00 0.000D+00 0.000D+00 0.000D+00 0.100D+01
 Coeff:     -0.334D-03-0.142D-02 0.144D-01 0.373D-01 0.221D+00 0.729D+00
 Gap=     0.361 Goal=   None    Shift=    0.000
 RMSDP=1.30D-05 MaxDP=5.27D-04 DE=-1.42D-04 OVMax= 1.24D-03

 Cycle   7  Pass 1  IDiag  1:
 RMSU=  9.98D-06    CP:  9.91D-01  9.58D-01  7.54D-01  7.20D-01  8.28D-01
                    CP:  9.52D-01
 E= -1159.56739049240     Delta-E=       -0.000010206570 Rises=F Damp=F
 DIIS: error= 4.79D-05 at cycle   7 NSaved=   7.
 NSaved= 7 IEnMin= 7 EnMin= -1159.56739049240     IErMin= 7 ErrMin= 4.79D-05
 ErrMax= 4.79D-05  0.00D+00 EMaxC= 1.00D-01 BMatC= 2.15D-06 BMatP= 1.18D-05
 IDIUse=1 WtCom= 1.00D+00 WtEn= 0.00D+00
 Coeff-Com:  0.135D-02-0.331D-02-0.995D-02-0.239D-01 0.296D-01 0.321D+00
 Coeff-Com:  0.686D+00
 Coeff:      0.135D-02-0.331D-02-0.995D-02-0.239D-01 0.296D-01 0.321D+00
 Coeff:      0.686D+00
 Gap=     0.361 Goal=   None    Shift=    0.000
 RMSDP=6.93D-06 MaxDP=3.71D-04 DE=-1.02D-05 OVMax= 4.26D-04

 Cycle   8  Pass 1  IDiag  1:
 RMSU=  4.10D-06    CP:  9.91D-01  9.57D-01  7.56D-01  7.24D-01  8.57D-01
                    CP:  1.08D+00  8.93D-01
 E= -1159.56739247920     Delta-E=       -0.000001986794 Rises=F Damp=F
 DIIS: error= 2.65D-05 at cycle   8 NSaved=   8.
 NSaved= 8 IEnMin= 8 EnMin= -1159.56739247920     IErMin= 8 ErrMin= 2.65D-05
 ErrMax= 2.65D-05  0.00D+00 EMaxC= 1.00D-01 BMatC= 3.70D-07 BMatP= 2.15D-06
 IDIUse=1 WtCom= 1.00D+00 WtEn= 0.00D+00
 Coeff-Com:  0.747D-03-0.138D-02-0.651D-02-0.182D-01-0.206D-01 0.191D-01
 Coeff-Com:  0.311D+00 0.716D+00
 Coeff:      0.747D-03-0.138D-02-0.651D-02-0.182D-01-0.206D-01 0.191D-01
 Coeff:      0.311D+00 0.716D+00
 Gap=     0.361 Goal=   None    Shift=    0.000
 RMSDP=2.90D-06 MaxDP=1.08D-04 DE=-1.99D-06 OVMax= 2.90D-04

 Cycle   9  Pass 1  IDiag  1:
 RMSU=  1.31D-06    CP:  9.91D-01  9.56D-01  7.57D-01  7.24D-01  8.72D-01
                    CP:  1.12D+00  1.04D+00  8.85D-01
 E= -1159.56739286691     Delta-E=       -0.000000387713 Rises=F Damp=F
 DIIS: error= 8.14D-06 at cycle   9 NSaved=   9.
 NSaved= 9 IEnMin= 9 EnMin= -1159.56739286691     IErMin= 9 ErrMin= 8.14D-06
 ErrMax= 8.14D-06  0.00D+00 EMaxC= 1.00D-01 BMatC= 3.72D-08 BMatP= 3.70D-07
 IDIUse=1 WtCom= 1.00D+00 WtEn= 0.00D+00
 Coeff-Com:  0.125D-03-0.129D-03-0.741D-03-0.344D-02-0.992D-02-0.318D-01
 Coeff-Com:  0.149D-01 0.249D+00 0.782D+00
 Coeff:      0.125D-03-0.129D-03-0.741D-03-0.344D-02-0.992D-02-0.318D-01
 Coeff:      0.149D-01 0.249D+00 0.782D+00
 Gap=     0.361 Goal=   None    Shift=    0.000
 RMSDP=1.05D-06 MaxDP=4.60D-05 DE=-3.88D-07 OVMax= 5.99D-05

 Cycle  10  Pass 1  IDiag  1:
 RMSU=  4.50D-07    CP:  9.91D-01  9.56D-01  7.57D-01  7.24D-01  8.75D-01
                    CP:  1.14D+00  1.08D+00  1.01D+00  9.78D-01
 E= -1159.56739290679     Delta-E=       -0.000000039876 Rises=F Damp=F
 DIIS: error= 2.03D-06 at cycle  10 NSaved=  10.
 NSaved=10 IEnMin=10 EnMin= -1159.56739290679     IErMin=10 ErrMin= 2.03D-06
 ErrMax= 2.03D-06  0.00D+00 EMaxC= 1.00D-01 BMatC= 3.01D-09 BMatP= 3.72D-08
 IDIUse=1 WtCom= 1.00D+00 WtEn= 0.00D+00
 Coeff-Com: -0.323D-04 0.887D-04 0.536D-03 0.891D-03-0.851D-03-0.115D-01
 Coeff-Com: -0.327D-01-0.137D-02 0.234D+00 0.811D+00
 Coeff:     -0.323D-04 0.887D-04 0.536D-03 0.891D-03-0.851D-03-0.115D-01
 Coeff:     -0.327D-01-0.137D-02 0.234D+00 0.811D+00
 Gap=     0.361 Goal=   None    Shift=    0.000
 RMSDP=3.15D-07 MaxDP=1.19D-05 DE=-3.99D-08 OVMax= 2.19D-05

 Cycle  11  Pass 1  IDiag  1:
 RMSU=  1.51D-07    CP:  9.91D-01  9.56D-01  7.57D-01  7.24D-01  8.76D-01
                    CP:  1.14D+00  1.09D+00  1.03D+00  1.07D+00  9.97D-01
 E= -1159.56739290992     Delta-E=       -0.000000003132 Rises=F Damp=F
 DIIS: error= 9.76D-07 at cycle  11 NSaved=  11.
 NSaved=11 IEnMin=11 EnMin= -1159.56739290992     IErMin=11 ErrMin= 9.76D-07
 ErrMax= 9.76D-07  0.00D+00 EMaxC= 1.00D-01 BMatC= 6.49D-10 BMatP= 3.01D-09
 IDIUse=1 WtCom= 1.00D+00 WtEn= 0.00D+00
 Coeff-Com: -0.267D-04 0.516D-04 0.349D-03 0.802D-03 0.731D-03-0.171D-02
 Coeff-Com: -0.176D-01-0.269D-01 0.250D-01 0.400D+00 0.619D+00
 Coeff:     -0.267D-04 0.516D-04 0.349D-03 0.802D-03 0.731D-03-0.171D-02
 Coeff:     -0.176D-01-0.269D-01 0.250D-01 0.400D+00 0.619D+00
 Gap=     0.361 Goal=   None    Shift=    0.000
 RMSDP=8.97D-08 MaxDP=3.83D-06 DE=-3.13D-09 OVMax= 5.34D-06

 Cycle  12  Pass 1  IDiag  1:
 RMSU=  4.87D-08    CP:  9.91D-01  9.56D-01  7.57D-01  7.24D-01  8.76D-01
                    CP:  1.14D+00  1.09D+00  1.04D+00  1.09D+00  1.08D+00
                    CP:  7.72D-01
 E= -1159.56739291040     Delta-E=       -0.000000000479 Rises=F Damp=F
 DIIS: error= 1.95D-07 at cycle  12 NSaved=  12.
 NSaved=12 IEnMin=12 EnMin= -1159.56739291040     IErMin=12 ErrMin= 1.95D-07
 ErrMax= 1.95D-07  0.00D+00 EMaxC= 1.00D-01 BMatC= 2.82D-11 BMatP= 6.49D-10
 IDIUse=1 WtCom= 1.00D+00 WtEn= 0.00D+00
 Coeff-Com: -0.582D-05 0.940D-05 0.799D-04 0.200D-03 0.323D-03 0.364D-03
 Coeff-Com: -0.370D-02-0.872D-02-0.107D-01 0.739D-01 0.203D+00 0.746D+00
 Coeff:     -0.582D-05 0.940D-05 0.799D-04 0.200D-03 0.323D-03 0.364D-03
 Coeff:     -0.370D-02-0.872D-02-0.107D-01 0.739D-01 0.203D+00 0.746D+00
 Gap=     0.361 Goal=   None    Shift=    0.000
 RMSDP=2.43D-08 MaxDP=1.32D-06 DE=-4.79D-10 OVMax= 1.81D-06

 Cycle  13  Pass 1  IDiag  1:
 RMSU=  1.67D-08    CP:  9.91D-01  9.56D-01  7.57D-01  7.24D-01  8.76D-01
                    CP:  1.14D+00  1.09D+00  1.04D+00  1.10D+00  1.10D+00
                    CP:  8.38D-01  8.99D-01
 E= -1159.56739291045     Delta-E=       -0.000000000055 Rises=F Damp=F
 DIIS: error= 9.59D-08 at cycle  13 NSaved=  13.
 NSaved=13 IEnMin=13 EnMin= -1159.56739291045     IErMin=13 ErrMin= 9.59D-08
 ErrMax= 9.59D-08  0.00D+00 EMaxC= 1.00D-01 BMatC= 8.23D-12 BMatP= 2.82D-11
 IDIUse=1 WtCom= 1.00D+00 WtEn= 0.00D+00
 Coeff-Com:  0.612D-06-0.205D-05-0.352D-05-0.143D-05 0.746D-04 0.418D-03
 Coeff-Com:  0.294D-03-0.100D-02-0.910D-02-0.148D-01 0.177D-01 0.390D+00
 Coeff-Com:  0.616D+00
 Coeff:      0.612D-06-0.205D-05-0.352D-05-0.143D-05 0.746D-04 0.418D-03
 Coeff:      0.294D-03-0.100D-02-0.910D-02-0.148D-01 0.177D-01 0.390D+00
 Coeff:      0.616D+00
 Gap=     0.361 Goal=   None    Shift=    0.000
 RMSDP=1.04D-08 MaxDP=4.72D-07 DE=-5.46D-11 OVMax= 6.63D-07

 Cycle  14  Pass 1  IDiag  1:
 RMSU=  5.83D-09    CP:  9.91D-01  9.56D-01  7.57D-01  7.24D-01  8.76D-01
                    CP:  1.14D+00  1.09D+00  1.04D+00  1.10D+00  1.11D+00
                    CP:  8.47D-01  1.00D+00  7.88D-01
 E= -1159.56739291043     Delta-E=        0.000000000026 Rises=F Damp=F
 DIIS: error= 2.61D-08 at cycle  14 NSaved=  14.
 NSaved=14 IEnMin=13 EnMin= -1159.56739291045     IErMin=14 ErrMin= 2.61D-08
 ErrMax= 2.61D-08  0.00D+00 EMaxC= 1.00D-01 BMatC= 4.26D-13 BMatP= 8.23D-12
 IDIUse=1 WtCom= 1.00D+00 WtEn= 0.00D+00
 Coeff-Com:  0.905D-06-0.183D-05-0.993D-05-0.234D-04-0.814D-05 0.106D-03
 Coeff-Com:  0.492D-03 0.702D-03-0.194D-02-0.136D-01-0.190D-01 0.586D-01
 Coeff-Com:  0.219D+00 0.756D+00
 Coeff:      0.905D-06-0.183D-05-0.993D-05-0.234D-04-0.814D-05 0.106D-03
 Coeff:      0.492D-03 0.702D-03-0.194D-02-0.136D-01-0.190D-01 0.586D-01
 Coeff:      0.219D+00 0.756D+00
 Gap=     0.361 Goal=   None    Shift=    0.000
 RMSDP=2.96D-09 MaxDP=1.07D-07 DE= 2.64D-11 OVMax= 2.04D-07

 Error on total polarization charges =  0.01855
 SCF Done:  E(RM062X) =  -1159.56739291     A.U. after   14 cycles
            NFock= 14  Conv=0.30D-08     -V/T= 2.0075
 KE= 1.150910103961D+03 PE=-6.001430140848D+03 EE= 2.053993503389D+03
 SMD-CDS (non-electrostatic) energy       (kcal/mol) =      -2.67
 (included in total energy above)
 Leave Link  502 at Mon Dec 30 11:33:51 2019, MaxMem=  4294967296 cpu:             834.1 elap:              53.7
 (Enter /n/sw/g16_nehalem/g16/l601.exe)
 Copying SCF densities to generalized density rwf, IOpCl= 0 IROHF=0.

 **********************************************************************

            Population analysis using the SCF density.

 **********************************************************************

 Orbital symmetries:
       Occupied  (A) (A) (A) (A) (A) (A) (A) (A) (A) (A) (A) (A)
                 (A) (A) (A) (A) (A) (A) (A) (A) (A) (A) (A) (A)
                 (A) (A) (A) (A) (A) (A) (A) (A) (A) (A) (A) (A)
                 (A) (A) (A) (A) (A) (A) (A) (A) (A) (A) (A) (A)
                 (A) (A) (A) (A) (A) (A) (A) (A) (A) (A) (A) (A)
                 (A) (A) (A) (A) (A) (A) (A) (A) (A) (A) (A) (A)
                 (A) (A)
       Virtual   (A) (A) (A) (A) (A) (A) (A) (A) (A) (A) (A) (A)
                 (A) (A) (A) (A) (A) (A) (A) (A) (A) (A) (A) (A)
                 (A) (A) (A) (A) (A) (A) (A) (A) (A) (A) (A) (A)
                 (A) (A) (A) (A) (A) (A) (A) (A) (A) (A) (A) (A)
                 (A) (A) (A) (A) (A) (A) (A) (A) (A) (A) (A) (A)
                 (A) (A) (A) (A) (A) (A) (A) (A) (A) (A) (A) (A)
                 (A) (A) (A) (A) (A) (A) (A) (A) (A) (A) (A) (A)
                 (A) (A) (A) (A) (A) (A) (A) (A) (A) (A) (A) (A)
                 (A) (A) (A) (A) (A) (A) (A) (A) (A) (A) (A) (A)
                 (A) (A) (A) (A) (A) (A) (A) (A) (A) (A) (A) (A)
                 (A) (A) (A) (A) (A) (A) (A) (A) (A) (A) (A) (A)
                 (A) (A) (A) (A) (A) (A) (A) (A) (A) (A) (A) (A)
                 (A) (A) (A) (A) (A) (A) (A) (A) (A) (A) (A) (A)
                 (A) (A) (A) (A) (A) (A) (A) (A) (A) (A) (A) (A)
                 (A) (A) (A) (A) (A) (A) (A) (A) (A) (A) (A) (A)
                 (A) (A) (A) (A) (A) (A) (A) (A) (A) (A) (A) (A)
                 (A) (A) (A) (A) (A) (A) (A) (A) (A) (A) (A) (A)
                 (A) (A) (A) (A) (A) (A) (A) (A) (A) (A) (A) (A)
                 (A) (A) (A) (A) (A) (A) (A) (A) (A) (A) (A) (A)
                 (A) (A) (A) (A) (A) (A) (A)
 The electronic state is 1-A.
 Alpha  occ. eigenvalues --  -25.26716 -25.26454 -25.26318 -25.26199 -19.69803
 Alpha  occ. eigenvalues --  -19.64036 -19.62518 -19.61782 -14.79986 -14.79231
 Alpha  occ. eigenvalues --  -10.71305 -10.71104 -10.69421 -10.66728 -10.66494
 Alpha  occ. eigenvalues --  -10.61150 -10.61053 -10.59685 -10.54789  -1.39878
 Alpha  occ. eigenvalues --   -1.39586  -1.33658  -1.33439  -1.24610  -1.17774
 Alpha  occ. eigenvalues --   -1.16704  -1.14949  -1.05375  -1.04385  -0.90313
 Alpha  occ. eigenvalues --   -0.87669  -0.82821  -0.82739  -0.77149  -0.74788
 Alpha  occ. eigenvalues --   -0.69932  -0.67952  -0.66827  -0.65106  -0.64469
 Alpha  occ. eigenvalues --   -0.63571  -0.63443  -0.62399  -0.61530  -0.61000
 Alpha  occ. eigenvalues --   -0.57383  -0.56836  -0.56417  -0.55824  -0.55143
 Alpha  occ. eigenvalues --   -0.53931  -0.52089  -0.51977  -0.51228  -0.51018
 Alpha  occ. eigenvalues --   -0.49580  -0.49232  -0.49093  -0.48435  -0.48167
 Alpha  occ. eigenvalues --   -0.47966  -0.46845  -0.46081  -0.44903  -0.43712
 Alpha  occ. eigenvalues --   -0.43375  -0.42270  -0.41706  -0.37967  -0.36643
 Alpha  occ. eigenvalues --   -0.36121  -0.33949  -0.32432  -0.31704
 Alpha virt. eigenvalues --    0.04362   0.05197   0.06753   0.13372   0.14802
 Alpha virt. eigenvalues --    0.16259   0.16589   0.17330   0.18085   0.18467
 Alpha virt. eigenvalues --    0.19030   0.19332   0.20533   0.21101   0.22230
 Alpha virt. eigenvalues --    0.22681   0.22973   0.23146   0.23574   0.24686
 Alpha virt. eigenvalues --    0.25458   0.28417   0.28697   0.29803   0.31019
 Alpha virt. eigenvalues --    0.32861   0.34462   0.35837   0.37693   0.42321
 Alpha virt. eigenvalues --    0.44609   0.45719   0.48244   0.53686   0.54509
 Alpha virt. eigenvalues --    0.55687   0.56566   0.56776   0.57552   0.58476
 Alpha virt. eigenvalues --    0.58883   0.60202   0.60523   0.61318   0.62152
 Alpha virt. eigenvalues --    0.64226   0.64647   0.66388   0.68163   0.68610
 Alpha virt. eigenvalues --    0.69843   0.71238   0.71269   0.72784   0.74045
 Alpha virt. eigenvalues --    0.75199   0.77973   0.78885   0.79781   0.82225
 Alpha virt. eigenvalues --    0.83058   0.84554   0.86754   0.89019   0.89658
 Alpha virt. eigenvalues --    0.89819   0.91267   0.91765   0.92437   0.93154
 Alpha virt. eigenvalues --    0.94292   0.94836   0.95729   0.97138   0.98409
 Alpha virt. eigenvalues --    0.98804   1.00391   1.00904   1.01312   1.02346
 Alpha virt. eigenvalues --    1.03056   1.05452   1.07476   1.09145   1.10276
 Alpha virt. eigenvalues --    1.12440   1.13112   1.15801   1.16233   1.17465
 Alpha virt. eigenvalues --    1.18998   1.20016   1.21400   1.22123   1.23710
 Alpha virt. eigenvalues --    1.26700   1.28438   1.28973   1.32430   1.33915
 Alpha virt. eigenvalues --    1.36560   1.39628   1.40770   1.42034   1.42904
 Alpha virt. eigenvalues --    1.43441   1.43888   1.44300   1.45584   1.46135
 Alpha virt. eigenvalues --    1.47532   1.47858   1.48729   1.50027   1.50681
 Alpha virt. eigenvalues --    1.52056   1.53146   1.54066   1.55434   1.59091
 Alpha virt. eigenvalues --    1.60987   1.63607   1.66212   1.66860   1.69364
 Alpha virt. eigenvalues --    1.71010   1.72356   1.74431   1.75035   1.77185
 Alpha virt. eigenvalues --    1.78496   1.79103   1.80503   1.81633   1.82776
 Alpha virt. eigenvalues --    1.84271   1.85610   1.86812   1.87148   1.87714
 Alpha virt. eigenvalues --    1.90237   1.90671   1.91656   1.92389   1.93269
 Alpha virt. eigenvalues --    1.94055   1.94504   1.96178   1.96828   1.98632
 Alpha virt. eigenvalues --    2.00267   2.00996   2.02779   2.03752   2.05746
 Alpha virt. eigenvalues --    2.06506   2.08147   2.09418   2.10587   2.11518
 Alpha virt. eigenvalues --    2.12881   2.14163   2.14723   2.15366   2.17053
 Alpha virt. eigenvalues --    2.17470   2.18090   2.19530   2.21834   2.23250
 Alpha virt. eigenvalues --    2.25220   2.26591   2.27203   2.28097   2.32237
 Alpha virt. eigenvalues --    2.33515   2.34157   2.35394   2.36917   2.38775
 Alpha virt. eigenvalues --    2.40165   2.41897   2.42222   2.44640   2.48475
 Alpha virt. eigenvalues --    2.51731   2.53400   2.54371   2.58548   2.59770
 Alpha virt. eigenvalues --    2.61872   2.64284   2.67637   2.69235   2.72146
 Alpha virt. eigenvalues --    2.74148   2.75507   2.77697   2.82042   2.83029
 Alpha virt. eigenvalues --    2.83209   2.86039   2.87383   2.92739   2.98556
 Alpha virt. eigenvalues --    3.00841   3.03334   3.03589   3.07196   3.10565
 Alpha virt. eigenvalues --    3.12033   3.12427   3.13373   3.18336   3.19770
 Alpha virt. eigenvalues --    3.25217   3.99627   4.02005   4.06321   4.10310
 Alpha virt. eigenvalues --    4.14475   4.20271   4.24563   4.27894   4.28161
 Alpha virt. eigenvalues --    4.31387   4.42186   4.46905   4.51661   4.56184
 Alpha virt. eigenvalues --    4.60880   4.65505   4.73607   5.02362   5.10147
          Condensed to atoms (all electrons):
               1          2          3          4          5          6
     1  N    7.221398   0.304743   0.170783  -0.046220  -0.015421  -0.048615
     2  H    0.304743   0.322778  -0.040143   0.002911  -0.001639   0.001528
     3  C    0.170783  -0.040143   5.516538   0.364446   0.249780   0.262024
     4  H   -0.046220   0.002911   0.364446   0.459897  -0.018280  -0.028685
     5  C   -0.015421  -0.001639   0.249780  -0.018280   4.421959  -0.025262
     6  C   -0.048615   0.001528   0.262024  -0.028685  -0.025262   4.369325
     7  H    0.004700   0.000712  -0.080165  -0.000451   0.401487   0.006531
     8  O    0.000904  -0.000020  -0.089173   0.001476   0.007834   0.572435
     9  N    0.003677   0.000040  -0.115103   0.000223   0.004427   0.276414
    10  H   -0.007110  -0.000055   0.002643  -0.000066   0.000079  -0.013870
    11  C   -0.000463   0.000010   0.007404  -0.000157  -0.000090  -0.027496
    12  H   -0.000023   0.000000   0.000411  -0.000028  -0.000011  -0.000520
    13  C    0.000106  -0.000001  -0.000301   0.000004   0.000009  -0.001704
    14  C   -0.000005   0.000000   0.000013  -0.000008  -0.000001   0.003982
    15  H   -0.000035   0.000003   0.000156  -0.000002   0.000000   0.006360
    16  O    0.000000   0.000000   0.000000   0.000000   0.000000  -0.000052
    17  O    0.000007   0.000000  -0.000074  -0.000001   0.000000   0.000381
    18  C    0.000000   0.000000   0.000001   0.000000   0.000000   0.000011
    19  H    0.000000   0.000000   0.000000   0.000000   0.000000  -0.000001
    20  H    0.000000   0.000000   0.000000   0.000000   0.000000   0.000001
    21  H    0.000000   0.000000   0.000000   0.000000   0.000000   0.000000
    22  F    0.000000   0.000000   0.000000   0.000000   0.000000  -0.000045
    23  F   -0.000003   0.000000   0.000002   0.000000   0.000000  -0.000001
    24  F    0.000711   0.000939  -0.031489   0.000884   0.259096   0.002070
    25  F   -0.003713   0.013966  -0.039868   0.001845   0.245625   0.001884
    26  C    0.277044  -0.008088  -0.025175   0.001367   0.004356  -0.006712
    27  O   -0.110304   0.002397   0.012279   0.008489   0.000665  -0.006461
    28  C   -0.110082  -0.000339   0.007264   0.000545  -0.000071  -0.000304
    29  H    0.001694  -0.000061  -0.000126  -0.000018   0.000000   0.000022
    30  H    0.004420   0.002305   0.000144  -0.000022  -0.000053   0.000016
    31  H    0.001458  -0.000018  -0.000186   0.000018   0.000005  -0.000005
               7          8          9         10         11         12
     1  N    0.004700   0.000904   0.003677  -0.007110  -0.000463  -0.000023
     2  H    0.000712  -0.000020   0.000040  -0.000055   0.000010   0.000000
     3  C   -0.080165  -0.089173  -0.115103   0.002643   0.007404   0.000411
     4  H   -0.000451   0.001476   0.000223  -0.000066  -0.000157  -0.000028
     5  C    0.401487   0.007834   0.004427   0.000079  -0.000090  -0.000011
     6  C    0.006531   0.572435   0.276414  -0.013870  -0.027496  -0.000520
     7  H    0.529469   0.004421   0.000282   0.000002   0.000000  -0.000001
     8  O    0.004421   8.142206  -0.111880   0.001837   0.008544   0.010192
     9  N    0.000282  -0.111880   7.380225   0.254143   0.140884  -0.040342
    10  H    0.000002   0.001837   0.254143   0.287599  -0.022528   0.002129
    11  C    0.000000   0.008544   0.140884  -0.022528   5.426741   0.367285
    12  H   -0.000001   0.010192  -0.040342   0.002129   0.367285   0.457726
    13  C    0.000000  -0.003460  -0.046366   0.000920   0.279673  -0.031809
    14  C    0.000000   0.000673  -0.033274  -0.004906   0.295664  -0.022294
    15  H    0.000000   0.004583  -0.005685  -0.000210  -0.071445  -0.001641
    16  O    0.000000   0.000000   0.002427   0.000265  -0.072671   0.000343
    17  O    0.000000  -0.000003  -0.004194   0.017909  -0.102619   0.001372
    18  C    0.000000   0.000000  -0.000010  -0.000766   0.007101  -0.000106
    19  H    0.000000   0.000000  -0.000006  -0.000126   0.000003   0.000002
    20  H    0.000000   0.000000  -0.000027   0.000070   0.000056   0.000025
    21  H    0.000000   0.000000  -0.000002   0.000052  -0.000425  -0.000011
    22  F    0.000000   0.000009   0.001954  -0.000006  -0.034219   0.002448
    23  F    0.000000   0.000016   0.002538   0.000974  -0.050049   0.002274
    24  F   -0.034890   0.000039  -0.000017   0.000000   0.000000   0.000000
    25  F   -0.034723  -0.000844  -0.000003  -0.000002   0.000001   0.000000
    26  C   -0.000038  -0.000019   0.007088   0.001285  -0.000080   0.000005
    27  O   -0.000001  -0.000009  -0.017298   0.044284   0.000740  -0.000005
    28  C    0.000002   0.000001  -0.000096   0.000889   0.000002   0.000000
    29  H    0.000000   0.000000   0.000030  -0.000038   0.000000   0.000000
    30  H    0.000000   0.000000   0.000006  -0.000044   0.000000   0.000000
    31  H    0.000000   0.000000   0.000000   0.000001   0.000000   0.000000
              13         14         15         16         17         18
     1  N    0.000106  -0.000005  -0.000035   0.000000   0.000007   0.000000
     2  H   -0.000001   0.000000   0.000003   0.000000   0.000000   0.000000
     3  C   -0.000301   0.000013   0.000156   0.000000  -0.000074   0.000001
     4  H    0.000004  -0.000008  -0.000002   0.000000  -0.000001   0.000000
     5  C    0.000009  -0.000001   0.000000   0.000000   0.000000   0.000000
     6  C   -0.001704   0.003982   0.006360  -0.000052   0.000381   0.000011
     7  H    0.000000   0.000000   0.000000   0.000000   0.000000   0.000000
     8  O   -0.003460   0.000673   0.004583   0.000000  -0.000003   0.000000
     9  N   -0.046366  -0.033274  -0.005685   0.002427  -0.004194  -0.000010
    10  H    0.000920  -0.004906  -0.000210   0.000265   0.017909  -0.000766
    11  C    0.279673   0.295664  -0.071445  -0.072671  -0.102619   0.007101
    12  H   -0.031809  -0.022294  -0.001641   0.000343   0.001372  -0.000106
    13  C    4.427017  -0.012957   0.397414   0.004116  -0.001939  -0.000027
    14  C   -0.012957   4.303798   0.005842   0.546981   0.282986  -0.025739
    15  H    0.397414   0.005842   0.535840  -0.000077  -0.000106   0.000007
    16  O    0.004116   0.546981  -0.000077   8.080878  -0.084275   0.002103
    17  O   -0.001939   0.282986  -0.000106  -0.084275   8.284098   0.184683
    18  C   -0.000027  -0.025739   0.000007   0.002103   0.184683   4.944738
    19  H    0.000000   0.004141   0.000000   0.000574  -0.030002   0.385948
    20  H   -0.000024  -0.004356   0.000000   0.004123  -0.030962   0.382172
    21  H    0.000104  -0.004917   0.000000   0.004614  -0.031163   0.382869
    22  F    0.264171   0.000929  -0.033726  -0.000177   0.000029   0.000004
    23  F    0.251163   0.010583  -0.034746  -0.000963  -0.000368  -0.000048
    24  F    0.000000   0.000000   0.000000   0.000000   0.000000   0.000000
    25  F    0.000000   0.000000  -0.000001   0.000000   0.000000   0.000000
    26  C    0.000004  -0.000015   0.000000   0.000000  -0.000038   0.000004
    27  O   -0.000016  -0.000030   0.000001   0.000000  -0.000252  -0.000004
    28  C    0.000001   0.000000  -0.000001   0.000000  -0.000001   0.000000
    29  H   -0.000001   0.000000   0.000000   0.000000   0.000000   0.000000
    30  H    0.000000   0.000000   0.000000   0.000000   0.000000   0.000000
    31  H    0.000000   0.000000   0.000000   0.000000   0.000000   0.000000
              19         20         21         22         23         24
     1  N    0.000000   0.000000   0.000000   0.000000  -0.000003   0.000711
     2  H    0.000000   0.000000   0.000000   0.000000   0.000000   0.000939
     3  C    0.000000   0.000000   0.000000   0.000000   0.000002  -0.031489
     4  H    0.000000   0.000000   0.000000   0.000000   0.000000   0.000884
     5  C    0.000000   0.000000   0.000000   0.000000   0.000000   0.259096
     6  C   -0.000001   0.000001   0.000000  -0.000045  -0.000001   0.002070
     7  H    0.000000   0.000000   0.000000   0.000000   0.000000  -0.034890
     8  O    0.000000   0.000000   0.000000   0.000009   0.000016   0.000039
     9  N   -0.000006  -0.000027  -0.000002   0.001954   0.002538  -0.000017
    10  H   -0.000126   0.000070   0.000052  -0.000006   0.000974   0.000000
    11  C    0.000003   0.000056  -0.000425  -0.034219  -0.050049   0.000000
    12  H    0.000002   0.000025  -0.000011   0.002448   0.002274   0.000000
    13  C    0.000000  -0.000024   0.000104   0.264171   0.251163   0.000000
    14  C    0.004141  -0.004356  -0.004917   0.000929   0.010583   0.000000
    15  H    0.000000   0.000000   0.000000  -0.033726  -0.034746   0.000000
    16  O    0.000574   0.004123   0.004614  -0.000177  -0.000963   0.000000
    17  O   -0.030002  -0.030962  -0.031163   0.000029  -0.000368   0.000000
    18  C    0.385948   0.382172   0.382869   0.000004  -0.000048   0.000000
    19  H    0.482772  -0.026256  -0.025759   0.000000  -0.000001   0.000000
    20  H   -0.026256   0.509261  -0.032171   0.000000   0.000001   0.000000
    21  H   -0.025759  -0.032171   0.506132  -0.000002   0.000011   0.000000
    22  F    0.000000   0.000000  -0.000002   9.129787  -0.034903   0.000000
    23  F   -0.000001   0.000001   0.000011  -0.034903   9.166280   0.000000
    24  F    0.000000   0.000000   0.000000   0.000000   0.000000   9.150965
    25  F    0.000000   0.000000   0.000000   0.000000   0.000000  -0.036279
    26  C    0.000003   0.000000   0.000000   0.000000   0.000008  -0.000107
    27  O    0.000071   0.000000   0.000000   0.000000  -0.000001  -0.000001
    28  C    0.000000   0.000000   0.000000   0.000000  -0.000001  -0.000007
    29  H    0.000000   0.000000   0.000000   0.000000   0.000001   0.000000
    30  H    0.000000   0.000000   0.000000   0.000000   0.000000   0.000000
    31  H    0.000000   0.000000   0.000000   0.000000   0.000000   0.000000
              25         26         27         28         29         30
     1  N   -0.003713   0.277044  -0.110304  -0.110082   0.001694   0.004420
     2  H    0.013966  -0.008088   0.002397  -0.000339  -0.000061   0.002305
     3  C   -0.039868  -0.025175   0.012279   0.007264  -0.000126   0.000144
     4  H    0.001845   0.001367   0.008489   0.000545  -0.000018  -0.000022
     5  C    0.245625   0.004356   0.000665  -0.000071   0.000000  -0.000053
     6  C    0.001884  -0.006712  -0.006461  -0.000304   0.000022   0.000016
     7  H   -0.034723  -0.000038  -0.000001   0.000002   0.000000   0.000000
     8  O   -0.000844  -0.000019  -0.000009   0.000001   0.000000   0.000000
     9  N   -0.000003   0.007088  -0.017298  -0.000096   0.000030   0.000006
    10  H   -0.000002   0.001285   0.044284   0.000889  -0.000038  -0.000044
    11  C    0.000001  -0.000080   0.000740   0.000002   0.000000   0.000000
    12  H    0.000000   0.000005  -0.000005   0.000000   0.000000   0.000000
    13  C    0.000000   0.000004  -0.000016   0.000001  -0.000001   0.000000
    14  C    0.000000  -0.000015  -0.000030   0.000000   0.000000   0.000000
    15  H   -0.000001   0.000000   0.000001  -0.000001   0.000000   0.000000
    16  O    0.000000   0.000000   0.000000   0.000000   0.000000   0.000000
    17  O    0.000000  -0.000038  -0.000252  -0.000001   0.000000   0.000000
    18  C    0.000000   0.000004  -0.000004   0.000000   0.000000   0.000000
    19  H    0.000000   0.000003   0.000071   0.000000   0.000000   0.000000
    20  H    0.000000   0.000000   0.000000   0.000000   0.000000   0.000000
    21  H    0.000000   0.000000   0.000000   0.000000   0.000000   0.000000
    22  F    0.000000   0.000000   0.000000   0.000000   0.000000   0.000000
    23  F    0.000000   0.000008  -0.000001  -0.000001   0.000001   0.000000
    24  F   -0.036279  -0.000107  -0.000001  -0.000007   0.000000   0.000000
    25  F    9.163428   0.000377  -0.000002  -0.000010   0.000000  -0.000008
    26  C    0.000377   4.301345   0.531285   0.377112  -0.022482  -0.029305
    27  O   -0.000002   0.531285   8.172635  -0.076404   0.000115   0.002858
    28  C   -0.000010   0.377112  -0.076404   5.279861   0.368400   0.361810
    29  H    0.000000  -0.022482   0.000115   0.368400   0.475700  -0.021228
    30  H   -0.000008  -0.029305   0.002858   0.361810  -0.021228   0.507974
    31  H    0.000000  -0.021765   0.000181   0.368699  -0.019644  -0.020820
              31
     1  N    0.001458
     2  H   -0.000018
     3  C   -0.000186
     4  H    0.000018
     5  C    0.000005
     6  C   -0.000005
     7  H    0.000000
     8  O    0.000000
     9  N    0.000000
    10  H    0.000001
    11  C    0.000000
    12  H    0.000000
    13  C    0.000000
    14  C    0.000000
    15  H    0.000000
    16  O    0.000000
    17  O    0.000000
    18  C    0.000000
    19  H    0.000000
    20  H    0.000000
    21  H    0.000000
    22  F    0.000000
    23  F    0.000000
    24  F    0.000000
    25  F    0.000000
    26  C   -0.021765
    27  O    0.000181
    28  C    0.368699
    29  H   -0.019644
    30  H   -0.020820
    31  H    0.472758
 Mulliken charges:
               1
     1  N   -0.649648
     2  H    0.398031
     3  C   -0.172087
     4  H    0.251833
     5  C    0.465508
     6  C    0.656748
     7  H    0.202664
     8  O   -0.549762
     9  N   -0.700056
    10  H    0.434644
    11  C   -0.151864
    12  H    0.252580
    13  C    0.473903
    14  C    0.652910
    15  H    0.197469
    16  O   -0.488210
    17  O   -0.485468
    18  C   -0.262941
    19  H    0.208637
    20  H    0.198087
    21  H    0.200667
    22  F   -0.296253
    23  F   -0.312764
    24  F   -0.311915
    25  F   -0.311673
    26  C    0.612544
    27  O   -0.565212
    28  C   -0.577269
    29  H    0.217635
    30  H    0.191948
    31  H    0.219316
 Sum of Mulliken charges =   0.00000
 Mulliken charges with hydrogens summed into heavy atoms:
               1
     1  N   -0.251617
     3  C    0.079746
     5  C    0.668172
     6  C    0.656748
     8  O   -0.549762
     9  N   -0.265412
    11  C    0.100716
    13  C    0.671372
    14  C    0.652910
    16  O   -0.488210
    17  O   -0.485468
    18  C    0.344450
    22  F   -0.296253
    23  F   -0.312764
    24  F   -0.311915
    25  F   -0.311673
    26  C    0.612544
    27  O   -0.565212
    28  C    0.051630
 Electronic spatial extent (au):  <R**2>=           5589.9594
 Charge=              0.0000 electrons
 Dipole moment (field-independent basis, Debye):
    X=              2.9816    Y=              3.7359    Z=              0.5134  Tot=              4.8074
 Quadrupole moment (field-independent basis, Debye-Ang):
   XX=           -116.1157   YY=           -107.6001   ZZ=            -98.8624
   XY=             -5.7738   XZ=              7.4973   YZ=              4.1320
 Traceless Quadrupole moment (field-independent basis, Debye-Ang):
   XX=             -8.5896   YY=             -0.0741   ZZ=              8.6637
   XY=             -5.7738   XZ=              7.4973   YZ=              4.1320
 Octapole moment (field-independent basis, Debye-Ang**2):
  XXX=             36.9153  YYY=             12.0497  ZZZ=              6.8501  XYY=             -9.7009
  XXY=             56.1899  XXZ=              5.6351  XZZ=             17.1804  YZZ=             -1.7071
  YYZ=             12.1378  XYZ=             25.2779
 Hexadecapole moment (field-independent basis, Debye-Ang**3):
 XXXX=          -4497.6361 YYYY=          -1596.4546 ZZZZ=           -675.2105 XXXY=           -171.9288
 XXXZ=              2.2651 YYYX=            -24.1880 YYYZ=             -2.3804 ZZZX=            -24.2192
 ZZZY=            -20.2856 XXYY=           -862.7379 XXZZ=           -761.8452 YYZZ=           -350.1410
 XXYZ=              7.8847 YYXZ=             23.2549 ZZXY=            -17.7089
 N-N= 1.636959140587D+03 E-N=-6.001430142340D+03  KE= 1.150910103961D+03
 No NMR shielding tensors so no spin-rotation constants.
 Leave Link  601 at Mon Dec 30 11:33:53 2019, MaxMem=  4294967296 cpu:              18.8 elap:               1.7
 (Enter /n/sw/g16_nehalem/g16/l701.exe)
 ... and contract with generalized density number  0.
 Compute integral first derivatives.
 D1PCM: PCM CHGder 1st derivatives, ID1Alg=3 FixD1E=F DoIter=F DoCFld=F I1PDM=0.
 GePol: Maximum number of non-zero 1st derivatives   =     304
 Leave Link  701 at Mon Dec 30 11:33:55 2019, MaxMem=  4294967296 cpu:              24.7 elap:               1.9
 (Enter /n/sw/g16_nehalem/g16/l702.exe)
 L702 exits ... SP integral derivatives will be done elsewhere.
 Leave Link  702 at Mon Dec 30 11:33:55 2019, MaxMem=  4294967296 cpu:               1.0 elap:               0.1
 (Enter /n/sw/g16_nehalem/g16/l703.exe)
 Integral derivatives from FoFJK, PRISM(SPDF).
 Compute integral first derivatives, UseDBF=F ICtDFT=           0.
 Calling FoFJK, ICntrl=      2127 FMM=F ISym2X=0 I1Cent= 0 IOpClX= 0 NMat=1 NMatS=1 NMatT=0.
 FoFJK:  IHMeth= 1 ICntrl=    2127 DoSepK=F KAlg= 0 I1Cent=           0 FoldK=F
 IRaf=         0 NMat=       1 IRICut=       1 DoRegI=T DoRafI=F ISym2E= 0 IDoP0=0 IntGTp=1.
 FoFCou: FMM=F IPFlag=           0 FMFlag=      100000 FMFlg1=         800
         NFxFlg=           0 DoJE=F BraDBF=F KetDBF=F FulRan=T
         wScrn=  0.000000 ICntrl=      2127 IOpCl=  0 I1Cent=           0 NGrid=           0
         NMat0=    1 NMatS0=      1 NMatT0=    0 NMatD0=    1 NMtDS0=    0 NMtDT0=    0
 Symmetry not used in FoFCou.
 Leave Link  703 at Mon Dec 30 11:34:00 2019, MaxMem=  4294967296 cpu:              72.1 elap:               4.6
 (Enter /n/sw/g16_nehalem/g16/l716.exe)
 Dipole        = 1.17306313D+00 1.46982965D+00 2.01996353D-01
 ***** Axes restored to original set *****
 -------------------------------------------------------------------
 Center     Atomic                   Forces (Hartrees/Bohr)
 Number     Number              X              Y              Z
 -------------------------------------------------------------------
      1        7          -0.000046478    0.000015088    0.000028271
      2        1           0.000019388   -0.000003021   -0.000014425
      3        6           0.000015167   -0.000000950   -0.000013283
      4        1          -0.000002901   -0.000010399    0.000011479
      5        6           0.000002663   -0.000002490   -0.000014267
      6        6          -0.000002464    0.000014747   -0.000017394
      7        1          -0.000000103   -0.000001880    0.000010367
      8        8          -0.000009812   -0.000026601    0.000001328
      9        7           0.000009132    0.000047601    0.000022110
     10        1           0.000006459   -0.000015605   -0.000014883
     11        6          -0.000056251   -0.000016962   -0.000021465
     12        1          -0.000006792    0.000012398    0.000001415
     13        6           0.000001102    0.000008036    0.000026714
     14        6           0.000024888   -0.000032628   -0.000029443
     15        1          -0.000023436    0.000013257   -0.000002542
     16        8           0.000002506    0.000014538    0.000015769
     17        8           0.000008551    0.000027754    0.000011087
     18        6           0.000002602    0.000009509    0.000004041
     19        1           0.000002686    0.000002669   -0.000000312
[...]
 92,0.00020159,0.00026835,-0.00000845,-0.00002632,-0.00000602,-0.000003
 37,-0.00017131,0.00013968,-0.00059068,0.00016831,-0.00014195,0.0000585
 8,-0.00001135,-0.00003423,-0.00000524,-0.00024036,0.00003337,-0.000032
 30,-0.00013842,0.00007233,0.00002824,0.00007072,-0.00008096,-0.0000067
 9,0.00000213,0.00000187,-0.00001302,-0.00000092,0.00001020,0.00000085,
 -0.00002175,0.00000165,0.00000473,-0.00003676,-0.00010175,0.00019431,0
 .00002362,0.00003941,0.00023045,0.02608514,0.03562772,-0.02758323,0.05
 456807,-0.13232000,0.32786252,-0.10844436,0.08847131,-0.02783200,-0.01
 315421,0.01316050,0.00502391,0.00210674,-0.00157818,0.01224190,0.00110
 693,-0.00156807,-0.00416141,-0.00298862,0.00191771,-0.00241710,0.01361
 755,-0.00521575,-0.00569546,0.00121475,-0.00089951,0.00013008,-0.00494
 876,-0.00047420,0.00133903,-0.00353708,0.00559966,0.00070565,-0.009479
 38,-0.01328969,-0.00350691,-0.00146124,0.00148347,0.00046405,0.0005298
 4,0.00021648,-0.00009814,-0.00000320,-0.00078366,0.00027669,-0.0009391
 5,-0.00223367,0.00009457,0.00003272,0.00009071,-0.00011357,0.00079939,
 0.00071604,0.00006303,0.00088284,0.00129721,0.00014097,-0.00056602,0.0
 0038474,-0.00016461,-0.00010536,0.00009566,-0.00005924,0.00010549,0.00
 000992,0.00004983,0.00008793,-0.00001018,-0.00000643,0.00016541,0.0002
 6708,-0.00018131,0.00001893,0.00051530,0.00000286,0.00081592,-0.000444
 88,-0.00058969,0.00035951,-0.00061897,-0.00013839,0.54003242,0.1032544
 0,-0.30665397,-0.03248869,0.00189442,-0.00121452,0.00393786,0.00406126
 ,-0.03029836,-0.02257754,0.00048697,0.00251901,0.00446127,0.00383976,-
 0.00293601,0.00058316,-0.01209331,-0.00186882,0.00399751,-0.00174285,0
 .00133186,0.00001766,0.00516276,0.00372428,-0.00130747,0.00400472,-0.0
 0471309,0.00021939,0.00176249,0.01030294,-0.00245026,-0.00067208,-0.00
 241749,-0.00013251,-0.00016893,0.00003524,0.00000116,-0.00093148,0.000
 29630,0.00067393,-0.00030854,0.00313884,-0.00065102,-0.00003761,-0.000
 18879,0.00020131,0.00032045,-0.00096943,0.00023046,-0.00009054,-0.0021
 3089,0.00022139,0.00012921,0.00024372,0.00000494,0.00010164,-0.0001515
 2,0.00008654,-0.00000131,-0.00007344,-0.00002378,0.00002414,-0.0000326
 6,0.00002919,0.00078066,0.00028559,-0.00029894,0.00039804,-0.00052691,
 -0.00039087,-0.00200364,0.00079660,0.00147104,-0.00152930,0.00233239,0
 .00064748,-0.18652021,0.63208268,-0.01969440,-0.05420877,-0.12490684,-
 0.00652747,0.02771403,0.00419577,0.01367039,-0.02871944,0.00269329,0.0
 0095709,-0.00290074,-0.00207808,-0.00337346,-0.00366927,-0.00819362,0.
 00831842,-0.00330038,-0.00198457,0.00203216,-0.00124940,0.00025927,-0.
 00268542,0.00066333,0.00049003,-0.00022706,0.00501748,0.00069494,-0.00
 766600,-0.01063380,-0.00152974,-0.00172086,0.00126030,0.00025318,0.000
 51279,0.00025597,-0.00013406,0.00003304,-0.00006354,0.00121436,-0.0010
 7348,-0.00153261,0.00002838,0.00000926,0.00007352,-0.00008287,0.000950
 40,0.00050641,0.00009005,0.00096491,0.00083041,0.00000304,-0.00060871,
 0.00046051,-0.00012604,-0.00013212,0.00008249,-0.00001745,0.00009841,-
 0.00002333,0.00002921,0.00013372,0.,-0.00000165,0.00024397,0.00021681,
 -0.00042481,0.00000198,-0.00014039,-0.00049234,0.00020063,0.00057680,0
 .00006424,-0.00105108,0.00164506,0.00081103,0.31583961,0.01535887,0.69
 899862,-0.03125355,0.06140101,-0.03253980,0.00601690,0.00525383,0.0012
 9074,-0.00312669,-0.00607957,-0.00606375,-0.00094803,0.00104580,0.0013
 3754,0.00167066,-0.00120825,-0.00013315,-0.01127580,0.00259087,0.00251
 957,-0.00072806,0.00049101,0.00000617,0.00372321,-0.00209153,-0.000582
 00,-0.00006763,-0.01013944,-0.00071345,0.00470652,0.01103214,0.0010206
 9,0.00244361,-0.00197331,-0.00047078,-0.00072397,-0.00041312,0.0001992
 6,0.00013259,0.00061632,-0.00105198,0.00147952,0.00219528,0.00009999,-
 0.00001789,-0.00008789,0.00008353,-0.00135422,-0.00077386,-0.00019020,
 -0.00086992,-0.00124677,-0.00019002,0.00092879,-0.00075663,0.00028907,
 0.00020372,-0.00008127,0.00009411,-0.00017013,0.00001671,-0.00007054,-
 0.00015148,0.00004339,-0.00000933,-0.00042066,-0.00040014,0.00044093,-
 0.00003924,-0.00023561,0.00029330,-0.00015212,0.00031926,0.00041662,-0
 .00059132,0.00109184,0.00051025,-0.31981792,0.10115537,-0.27203730,0.3
 5277567,0.05687714,-0.03566372,0.04604997,0.00402084,-0.00481039,-0.00
 514874,0.00054473,0.00333843,0.00509452,0.00058557,-0.00108283,0.00056
 665,-0.00303598,0.00137459,0.00209101,0.00122730,0.00363111,-0.0016490
 3,0.00041415,-0.00028210,-0.00006818,-0.00062232,-0.00285895,0.0004697
 5,-0.00706616,-0.00443467,-0.00011701,0.00166605,-0.00500317,0.0007502
 1,0.00205270,-0.00094290,-0.00008700,-0.00053359,-0.00030286,0.0001772
 1,0.00041016,-0.00011458,-0.00123693,0.00098921,-0.00168039,0.00058160
 ,0.00001463,0.00005209,-0.00006590,-0.00064077,0.00052858,-0.00024712,
 -0.00024210,0.00145680,-0.00027452,0.00014037,-0.00043387,0.00008951,-
 0.00009852,0.00008957,-0.00005208,-0.00004630,0.00006210,-0.00000436,-
 0.00005900,0.00004983,-0.00002683,-0.00066699,-0.00035035,0.00051311,-
 0.00021407,0.00035199,0.00044926,0.00121193,0.00006306,-0.00058108,0.0
 0139449,-0.00170725,0.00000123,0.11603428,-0.15254249,0.11810272,-0.16
 440925,0.18126013,-0.03167579,0.04593886,0.00515762,-0.00053530,-0.001
 69872,0.00462395,0.00350157,-0.00345877,-0.00715795,-0.00073568,0.0019
 3818,0.00354399,-0.00009796,-0.00029325,0.00158093,-0.00589030,0.00226
 478,0.00214210,-0.00064024,0.00047753,-0.00008133,0.00211817,0.0000250
 4,-0.00068492,0.00029873,-0.00394841,0.00066597,0.00353164,0.00647988,
 -0.00194737,0.00102205,-0.00102382,0.00010768,-0.00026141,-0.00009538,
 0.00006916,-0.00019574,-0.00009116,-0.00084347,0.00064661,0.00142763,-
 0.00018235,-0.00001653,-0.00006349,0.00008676,-0.00058867,-0.00047627,
 -0.00002214,-0.00066289,-0.00087436,0.00030686,0.00044404,-0.00025704,
 0.00005832,0.00014695,-0.00008960,-0.00002422,-0.00003899,0.00001635,-
 0.00001103,-0.00010743,-0.00001863,0.00001378,-0.00006040,-0.00009175,
 0.00028317,0.00003546,0.00012615,0.00033485,-0.00005496,0.00025205,0.0
 0037780,0.00062089,-0.00043708,0.00110983,-0.26791961,0.10050764,-0.39
 526601,0.33598115,-0.14863323,0.41937151,0.01150096,0.01165446,0.00757
 010,-0.00193951,-0.00031744,0.00195783,0.00469329,0.00460359,-0.002749
 40,-0.00014261,-0.00047406,-0.00028267,0.00026551,-0.00023177,-0.00030
 069,-0.00107484,0.00048546,0.00158655,0.00001375,0.00003106,0.00002858
 ,0.00051643,0.00065286,-0.00034810,0.00032065,-0.00003397,-0.00004570,
 0.00019167,0.00034050,-0.00032802,-0.00008646,-0.00010149,0.00003548,-
 0.00001013,0.00002189,-0.00000560,0.00001294,-0.00002084,0.00006014,-0
 .00001125,0.00010028,-0.00004096,-0.00000491,0.00000950,0.00002023,0.0
 0001566,-0.00003078,0.00001219,-0.00001414,-0.00006467,0.00003329,0.00
 001145,0.00000812,-0.00000349,0.00000965,-0.00000719,-0.00000434,0.000
 00087,0.00000016,0.00000175,-0.00000561,-0.00000567,0.00000149,0.00001
 009,0.00001357,-0.00001768,-0.00000375,-0.00000411,-0.00002937,-0.0001
 2574,0.00002392,0.00005400,-0.00006265,0.00011022,-0.00007941,-0.09475
 439,-0.02051999,-0.02478679,-0.00429880,-0.00920408,-0.03477740,0.5864
 8590,-0.00255574,-0.02451888,-0.03091309,-0.00152175,-0.00077972,-0.00
 074933,0.00432785,-0.00062271,0.00099636,-0.00000241,-0.00034167,-0.00
 015619,-0.00156444,-0.00040046,-0.00158918,0.00117251,0.00046112,0.000
 04407,0.00051496,-0.00031012,0.00008045,-0.00041661,-0.00032425,0.0000
 6447,-0.00034408,0.00021323,-0.00008571,-0.00015517,-0.00036282,0.0002
 6859,0.00005506,0.00017459,0.00001604,0.00001250,-0.00000030,-0.000000
 41,0.00010306,0.00009075,-0.00003396,0.00010552,-0.00011813,0.00005820
 ,0.00000461,0.00001263,-0.00001648,-0.00009975,0.00003354,-0.00002724,
 -0.00007468,0.00008670,-0.00004179,0.00003688,-0.00004657,0.00001355,0
 .00000133,0.00000320,-0.00000183,-0.00000551,0.00000411,-0.00000248,-0
 .00000557,0.00000172,-0.00000003,-0.00010161,-0.00006337,0.00003050,-0
 .00004227,-0.00002942,0.00000264,0.00037930,0.00016890,-0.00001243,0.0
 0015485,-0.00009936,0.00033079,-0.01394000,-0.13510174,-0.05232085,0.0
 0324984,0.01871816,0.00487717,-0.03247491,0.55835203,-0.00224629,-0.01
 082116,0.00162672,0.00125989,0.00100224,-0.00063346,-0.00403229,0.0010
 1063,0.00340907,-0.00023423,0.00054678,0.00015671,0.00034453,0.0004987
 0,0.00107181,-0.00038041,-0.00003950,-0.00082572,-0.00023139,0.0001286
 3,-0.00003929,-0.00004961,-0.00059083,0.00012321,-0.00036614,-0.000807
 89,0.00023642,0.00094525,0.00135580,-0.00041064,0.00030281,-0.00008966
 ,-0.00001043,-0.00005142,-0.00004844,0.00002379,0.00002481,-0.00002236
 ,-0.00022285,0.00017784,0.00011092,0.00002996,0.00000196,-0.00000541,-
 0.00000280,-0.00015914,-0.00003910,-0.00002725,-0.00013212,-0.00004496
 ,0.00000654,0.00008672,-0.00007402,0.00002005,0.00000987,-0.00000669,0
 .00000096,-0.00001353,0.00000310,-0.00000412,-0.00001837,0.00000272,-0
 .00000087,-0.00006706,-0.00004187,0.00007787,-0.00001267,0.00004978,0.
 00009585,0.00003362,-0.00011806,-0.00006702,0.00008952,-0.00013088,-0.
 00012394,-0.02019803,-0.06143272,-0.16238687,-0.02617892,-0.01378463,-
 0.02918177,0.00939650,-0.04599872,0.54601826,-0.00031256,-0.00122374,-
 0.00009601,0.00005439,-0.00030248,-0.00009939,-0.00026697,-0.00038226,
 0.00010559,0.00000583,0.00000207,0.00006730,-0.00013519,-0.00000880,0.
 00001871,0.00006245,0.00001265,-0.00007922,0.00000949,-0.00000413,-0.0
 0000183,-0.00003977,-0.00010661,0.00002223,-0.00004897,-0.00006965,0.0
 0003687,0.00011496,0.00017774,0.00000038,0.00003807,0.00000277,-0.0000
 0550,-0.00000634,-0.00000634,0.00000348,0.00001449,-0.00002998,-0.0000
 3705,0.00001784,-0.00001667,0.00000230,-0.00000125,0.00000468,-0.00000
 015,-0.00001764,0.00000376,-0.00000332,-0.00001693,0.00001317,0.000010
 69,0.00000887,-0.00000903,-0.00000026,0.00000179,0.00000066,-0.0000044
 0,-0.00000193,0.00000296,0.00000132,-0.00000587,-0.00000121,-0.0000016
 2,-0.00000916,0.00000086,0.00001078,-0.00000260,0.00003418,0.00002168,
 0.00006680,0.00002628,-0.00000623,0.00003367,-0.00001632,0.00001290,0.
 00947955,-0.00122541,-0.00619185,-0.00027524,-0.00044883,0.00012082,-0
 .24210495,0.06152749,0.11532072,0.25820089,-0.00185886,-0.00210528,-0.
 00239798,0.00033233,0.00056418,-0.00045275,-0.00092688,-0.00102974,0.0
 0054655,-0.00000057,0.00010936,0.00005122,-0.00021500,0.00006045,-0.00
 001685,0.00059854,-0.00008018,-0.00046096,0.00004580,-0.00003738,-0.00
 000566,-0.00021648,-0.00019210,0.00011618,-0.00023501,0.00006688,0.000
 19618,0.00003091,-0.00003120,-0.00011911,0.00003053,0.00001495,-0.0000
 1229,0.00000136,-0.00000695,0.00000792,-0.00006037,-0.00016643,-0.0001
 7953,-0.00002566,-0.00002787,-0.00001768,0.00000067,-0.00000757,0.0000
 0002,0.00000534,0.00000619,0.00000718,0.00001964,-0.00000230,0.0000346
 9,-0.00001409,0.00003123,-0.00001674,-0.00000051,0.00000010,0.00000030
 ,0.00000299,-0.00000222,0.00000366,-0.00000219,-0.00000147,-0.00000031
 ,0.00004245,0.00003929,0.00003506,0.00002721,0.00013045,0.00010861,0.0
 0007167,0.00000580,-0.00002351,0.00003870,-0.00006532,0.00004500,0.019
 55238,-0.00797358,-0.01156152,-0.00086353,0.00061970,0.00288562,0.0617
 0430,-0.06134341,-0.03628109,-0.06528852,0.06666381,-0.00167186,-0.001
 56296,-0.00197387,-0.00000354,-0.00007851,-0.00020971,-0.00043292,-0.0
 0073081,0.00044555,0.00000522,0.00003094,0.00005308,-0.00026602,0.0000
 2568,-0.00004388,0.00036565,0.00007965,-0.00023999,0.00004506,-0.00003
 367,-0.00000079,-0.00015056,-0.00025309,0.00005068,-0.00019649,-0.0001
 0322,0.00005230,0.00016425,0.00012796,-0.00001572,0.00008404,0.0000254
 5,-0.00001933,-0.00001061,-0.00001374,0.00000598,0.00001738,-0.0000548
 5,-0.00007548,0.00002389,-0.00011411,0.00001994,0.00000043,0.00000488,
 -0.00000363,-0.00002401,0.00003523,-0.00001047,-0.00001632,0.00009210,
 0.00001413,0.00000896,-0.00004277,0.00000407,-0.00000132,0.00000750,-0
 .00001463,-0.00000218,0.00001114,0.00000196,-0.00001089,0.00000089,-0.
 00000198,-0.00001977,-0.00000126,0.00002239,-0.00000983,0.00005442,0.0
 0003472,0.00009869,0.00001458,-0.00001938,0.00006032,-0.00005736,0.000
 03826,0.02413604,-0.00516679,-0.01277181,-0.00276236,0.00004059,0.0021
 3139,0.11476883,-0.03567917,-0.11869271,-0.12516827,0.04167124,0.12407
 675,0.00012591,0.00051324,0.00059600,0.00100155,-0.00042309,0.00009240
 ,0.00015283,-0.00025287,0.00004527,-0.00000261,0.00006802,0.00011360,-
 0.00000383,0.00005619,-0.00006665,-0.00003022,0.00011044,-0.00003817,0
 .00000453,-0.00000312,0.00000135,0.00000192,-0.00008767,0.00001840,-0.
 00002975,-0.00006217,0.00005020,0.00010017,0.00012970,-0.00000915,0.00
 003889,-0.00001543,-0.00001290,-0.00000779,-0.00000591,0.00000375,-0.0
 0004093,-0.00000346,-0.00007620,0.00001746,0.00007567,-0.00000747,0.00
 000105,-0.00001302,-0.00000028,-0.00002342,-0.00002449,0.00000180,-0.0
 0001931,-0.00005566,0.00000187,0.00001220,0.00000417,-0.00000064,0.000
 00303,-0.00000488,0.00000535,-0.00000115,-0.00000334,-0.00000113,-0.00
 000007,-0.00000002,0.00000109,0.00001540,0.00000004,0.00001947,0.00001
 419,0.00000844,0.00003866,-0.00002662,-0.00003093,0.00000300,0.0000073
 6,-0.00003987,0.00006057,-0.00721530,0.00534406,-0.00054797,0.00138810
 ,-0.00134860,-0.00269100,-0.16403696,0.08197692,-0.11289975,-0.0142084
 6,0.01077426,-0.01763124,0.17192557,0.00057879,-0.00110549,0.00072173,
 -0.00026334,-0.00210306,-0.00269657,-0.00014456,0.00043960,0.00035528,
 -0.00006641,0.00015054,0.00002557,0.00011889,0.00012532,-0.00000903,-0
 .00014572,0.00004821,0.00003582,-0.00003299,0.00001393,0.00001356,0.00
 004567,-0.00002251,-0.00000849,0.00000283,-0.00010061,0.00004289,0.000
 15293,0.00021824,-0.00007711,0.00002736,-0.00002433,0.00000204,-0.0000
 0736,-0.00000413,0.00000213,-0.00002449,-0.00002521,-0.00004085,0.0000
 0114,0.00000268,-0.00000421,-0.00000147,-0.00000409,0.00000131,-0.0000
 0373,0.00000023,0.00000107,-0.00000988,0.00000631,0.00000911,0.0000069
 8,-0.00001925,0.00000181,0.00000118,0.00000025,-0.00000518,-0.00000139
 ,0.00000439,0.00000076,-0.00000487,-0.00000002,-0.00000094,0.00001112,
 0.00000656,0.00001013,0.00000543,0.00001863,0.00002035,-0.00004184,-0.
 00003768,0.00002234,0.00000499,-0.00000863,0.00007215,-0.01429395,0.01
 210399,-0.01004731,-0.00214730,-0.00203813,-0.00588418,0.08488505,-0.1
 1103988,0.08076158,0.00317803,-0.00416432,0.00490271,-0.09082347,0.117
 70451,0.00080352,0.00036728,0.00153368,0.00002309,-0.00286013,-0.00135
 008,0.00021696,0.00004657,0.00021542,-0.00004897,0.00013884,0.00013021
 ,-0.00013259,0.00001214,-0.00004681,-0.00027508,0.00026061,0.00008500,
 -0.00000395,0.00000989,0.00000914,0.00008627,-0.00016296,-0.00002344,-
 0.00004700,-0.00028876,0.00003259,0.00036906,0.00050136,-0.00008577,0.
 00010409,-0.00004622,-0.00001367,-0.00002520,-0.00001631,0.00000804,0.
 00000822,0.00000557,-0.00006776,0.00006286,0.00004757,0.00000799,-0.00
 000023,-0.00000180,0.00000296,-0.00005671,-0.00001686,-0.00000962,-0.0
 0005255,-0.00001947,0.00000538,0.00003391,-0.00003408,0.00000875,0.000
 00509,-0.00000185,-0.00000314,-0.00000578,0.00000351,-0.00000125,-0.00
 000940,0.00000044,-0.00000043,-0.00002194,-0.00001600,0.00002505,-0.00
 000601,0.00000895,0.00002444,0.00006963,0.00002947,0.00002016,0.000064
 80,-0.00001908,0.00006681,-0.01387339,0.01939896,-0.01163306,-0.003504
 49,-0.00516820,-0.00539572,-0.11070121,0.07638492,-0.15868689,0.010214
 50,-0.00841796,0.01289513,0.12295770,-0.08341679,0.16864851,-0.0004536
 0,0.00019445,-0.00036721,0.00032866,-0.00009215,-0.00015860,-0.0000185
 7,-0.00016920,0.00026422,0.00000383,0.00004490,0.00006943,0.00000357,0
 .00004985,-0.00007836,0.00000557,0.00005291,-0.00002069,0.00000880,-0.
 00000700,0.00000442,-0.00001751,-0.00006012,0.00000260,-0.00001064,-0.
 00001613,-0.00002647,0.00002646,0.00003248,0.00006736,0.00002728,0.000
 01448,-0.00000299,-0.00000313,-0.00000332,-0.00000016,0.00001593,0.000
 03612,0.00001252,0.00001943,-0.00003290,0.00001511,0.00000019,0.000000
 65,-0.00000372,-0.00001413,0.00001217,-0.00000557,-0.00001926,0.000037
 72,-0.00001360,0.00001091,-0.00003599,0.00000870,-0.00000111,0.0000024
 1,-0.00000481,-0.00000244,0.00000560,-0.00000097,-0.00000312,0.0000020
 1,-0.00000077,-0.00001804,-0.00001326,0.00000191,-0.00000864,-0.000020
 62,-0.00001051,-0.00001975,-0.00002691,0.00000314,-0.00000341,-0.00001
 244,0.00002682,-0.00394095,-0.00487516,0.00435717,0.00081334,0.0010530
 3,-0.00151777,-0.09537211,-0.10031818,0.03927731,-0.01065527,-0.023571
 41,0.00859944,0.01083627,0.01899237,-0.00625519,0.09846143,-0.00058240
 ,-0.00070746,-0.00313637,-0.00059563,0.00025266,0.00013370,0.00090924,
 -0.00018835,-0.00029683,-0.00000511,-0.00013617,-0.00008580,-0.0004259
 3,-0.00015123,-0.00027529,0.00032230,0.00014523,0.00005973,0.00011937,
 -0.00005979,0.00001566,-0.00008223,-0.00004093,0.00000368,-0.00005888,
 0.00011782,-0.00002760,-0.00009335,-0.00019085,0.00002511,-0.00000875,
 0.00003902,0.00000495,0.00000497,0.00000225,0.00000001,0.00002348,0.00
 000767,0.00000596,0.00001000,-0.00003731,0.00001222,0.00000097,0.00000
 464,-0.00000264,-0.00000928,0.00001064,-0.00000565,-0.00000415,0.00002
 289,-0.00000804,0.00000029,-0.00000214,0.00000177,-0.00000139,0.000002
 29,0.00000146,-0.00000086,-0.00000044,-0.00000052,0.00000043,0.0000013
 5,-0.00000032,-0.00001734,-0.00000817,0.00000108,-0.00000859,-0.000001
 39,-0.00000383,0.00013886,0.00010021,-0.00001551,0.00004154,-0.0000052
 5,0.00002240,-0.00794155,-0.01939971,0.00760662,0.00240480,0.00265253,
 0.00021825,-0.10115396,-0.24281786,0.08490711,0.00415268,0.00892493,-0
 .00323263,-0.00586316,-0.01014605,0.00327040,0.10872364,0.26160894,0.0
 0018289,-0.00117071,-0.00336781,-0.00028772,-0.00022998,-0.00009835,0.
 00133523,-0.00033492,-0.00029630,-0.00002482,-0.00002926,0.00000433,-0
 .00045029,-0.00012398,-0.00044533,0.00023573,0.00030146,0.00009136,0.0
 0015025,-0.00008370,0.00002012,-0.00006332,-0.00013602,0.00000690,-0.0
 0010697,-0.00000009,-0.00002069,0.00006731,0.00003233,0.00008427,0.000
 05498,0.00002696,-0.00001008,-0.00000736,-0.00000802,0.00000513,-0.000
 00069,-0.00002297,-0.00007926,0.00002912,-0.00001346,0.00001020,0.0000
 0068,-0.00000195,-0.00000263,-0.00003376,0.00000251,-0.00000632,-0.000
 02645,0.00000802,-0.00000366,0.00001333,-0.00001422,0.00000232,0.00000
 082,0.00000027,0.00000100,-0.00000321,0.00000108,-0.00000020,-0.000003
 90,0.00000151,-0.00000114,-0.00000954,-0.00000507,0.00002319,-0.000002
 13,0.00002868,0.00004087,0.00011076,0.00007007,-0.00000449,0.00004887,
 -0.00004166,0.00009566,-0.01355292,-0.02512919,0.01220444,0.00191515,0
 .00216749,-0.00116737,0.03897386,0.08446111,-0.08158058,0.00572481,0.0
 1425451,-0.00575296,0.00997207,0.01518831,-0.00640163,-0.04424278,-0.0
 8919909,0.08664902\\0.00000944,0.00002318,-0.00000661,-0.00000434,-0.0
 0000035,0.00000198,0.00000054,0.00000807,-0.00001152,0.00000094,0.0000
 0353,0.00001154,0.00001010,0.00000730,-0.00000423,0.00001075,0.0000084
 0,0.00001279,0.00000762,0.00000906,0.00000513,0.00000259,-0.00001490,-
 0.00000585,-0.00000078,0.00002833,-0.00001309,0.00000754,-0.00001102,0
 .00000807,-0.00002189,-0.00001645,-0.00001766,0.00000475,0.00000120,0.
 00000176,0.00000280,-0.00000741,0.00001065,0.00000852,-0.00002048,0.00
 000858,-0.00000811,0.00000460,-0.00000453,0.00000720,-0.00000388,-0.00
 000422,0.00000319,0.00000639,-0.00000490,-0.00000411,-0.00000324,0.000
 00310,-0.00000734,-0.00000733,0.00000018,-0.00000337,-0.00000743,-0.00
 000409,-0.00000396,-0.00000755,-0.00000090,0.00000909,-0.00001004,0.00
 000295,0.00000630,-0.00000854,0.00000180,0.00000129,0.00000803,-0.0000
 0346,0.00000237,0.00000226,0.00000213,-0.00001973,-0.00001173,0.000013
 85,0.00000203,0.00000430,-0.00000551,-0.00000689,0.00000280,-0.0000021
 7,-0.00000383,0.00000355,0.00000159,-0.00000505,0.00000715,0.00000033,
 -0.00000767,0.00000218,0.00000231\\\@


 REALITY IS FOR PEOPLE WHO CAN'T FACE SCIENCE FICTION.
 Job cpu time:       0 days  1 hours 52 minutes 39.7 seconds.
 Elapsed time:       0 days  0 hours  7 minutes 11.5 seconds.
 File lengths (MBytes):  RWF=    471 Int=      0 D2E=      0 Chk=     16 Scr=      1
 Normal termination of Gaussian 16 at Mon Dec 30 11:43:22 2019.
