 Entering Gaussian System, Link 0=g16
 Input=conformer_final_02.gjf
 Output=conformer_final_02.out
 Initial command:
 /n/sw/g16_nehalem/g16/l1.exe "/scratch/cwagen_conformer_final_02/Gau-364082.inp" -scrdir="/scratch/cwagen_conformer_final_02/"
 Entering Link 1 = /n/sw/g16_nehalem/g16/l1.exe PID=    364083.
  
 Copyright (c) 1988,1990,1992,1993,1995,1998,2003,2009,2016,
            Gaussian, Inc.  All Rights Reserved.
  
 This is part of the Gaussian(R) 16 program.  It is based on
 the Gaussian(R) 09 system (copyright 2009, Gaussian, Inc.),
 the Gaussian(R) 03 system (copyright 2003, Gaussian, Inc.),
 the Gaussian(R) 98 system (copyright 1998, Gaussian, Inc.),
 the Gaussian(R) 94 system (copyright 1995, Gaussian, Inc.),
 the Gaussian 92(TM) system (copyright 1992, Gaussian, Inc.),
 the Gaussian 90(TM) system (copyright 1990, Gaussian, Inc.),
 the Gaussian 88(TM) system (copyright 1988, Gaussian, Inc.),
 the Gaussian 86(TM) system (copyright 1986, Carnegie Mellon
 University), and the Gaussian 82(TM) system (copyright 1983,
 Carnegie Mellon University). Gaussian is a federally registered
 trademark of Gaussian, Inc.
  
 This software contains proprietary and confidential information,
 including trade secrets, belonging to Gaussian, Inc.
  
 This software is provided under written license and may be
 used, copied, transmitted, or stored only in accord with that
 written license.
  
 The following legend is applicable only to US Government
 contracts under FAR:
  
                    RESTRICTED RIGHTS LEGEND
  
 Use, reproduction and disclosure by the US Government is
 subject to restrictions as set forth in subparagraphs (a)
 and (c) of the Commercial Computer Software - Restricted
 Rights clause in FAR 52.227-19.
  
 Gaussian, Inc.
 340 Quinnipiac St., Bldg. 40, Wallingford CT 06492
  
  
 ---------------------------------------------------------------
 Warning -- This program may not be used in any manner that
 competes with the business of Gaussian, Inc. or will provide
 assistance to any competitor of Gaussian, Inc.  The licensee
 of this program is prohibited from giving any competitor of
 Gaussian, Inc. access to this program.  By using this program,
 the user acknowledges that Gaussian, Inc. is engaged in the
 business of creating and licensing software in the field of
 computational chemistry and represents and warrants to the
 licensee that it is not a competitor of Gaussian, Inc. and that
 it will not use this program in any manner prohibited above.
 ---------------------------------------------------------------
  

 Cite this work as:
 Gaussian 16, Revision A.03,
 M. J. Frisch, G. W. Trucks, H. B. Schlegel, G. E. Scuseria, 
 M. A. Robb, J. R. Cheeseman, G. Scalmani, V. Barone, 
 G. A. Petersson, H. Nakatsuji, X. Li, M. Caricato, A. V. Marenich, 
 J. Bloino, B. G. Janesko, R. Gomperts, B. Mennucci, H. P. Hratchian, 
 J. V. Ortiz, A. F. Izmaylov, J. L. Sonnenberg, D. Williams-Young, 
 F. Ding, F. Lipparini, F. Egidi, J. Goings, B. Peng, A. Petrone, 
 T. Henderson, D. Ranasinghe, V. G. Zakrzewski, J. Gao, N. Rega, 
 G. Zheng, W. Liang, M. Hada, M. Ehara, K. Toyota, R. Fukuda, 
 J. Hasegawa, M. Ishida, T. Nakajima, Y. Honda, O. Kitao, H. Nakai, 
 T. Vreven, K. Throssell, J. A. Montgomery, Jr., J. E. Peralta, 
 F. Ogliaro, M. J. Bearpark, J. J. Heyd, E. N. Brothers, K. N. Kudin, 
 V. N. Staroverov, T. A. Keith, R. Kobayashi, J. Normand, 
 K. Raghavachari, A. P. Rendell, J. C. Burant, S. S. Iyengar, 
 J. Tomasi, M. Cossi, J. M. Millam, M. Klene, C. Adamo, R. Cammi, 
 J. W. Ochterski, R. L. Martin, K. Morokuma, O. Farkas, 
 J. B. Foresman, and D. J. Fox, Gaussian, Inc., Wallingford CT, 2016.
 
 ******************************************
 Gaussian 16:  ES64L-G16RevA.03 25-Dec-2016
                30-Dec-2019 
 ******************************************
 %nprocshared=16
 Will use up to   16 processors via shared memory.
 %mem=32GB
 ------------------------------------------------------------------
 #p opt freq=noraman m062x/6-31g(d) scrf=(smd,solvent=diethylether)
 ------------------------------------------------------------------
 1/18=20,19=15,26=3,38=1/1,3;
 2/9=110,12=2,17=6,18=5,40=1/2;
 3/5=1,6=6,7=1,11=2,25=1,30=1,70=32201,71=1,72=8,74=-55/1,2,3;
 4//1;
 5/5=2,38=5,53=8/2;
 6/7=2,8=2,9=2,10=2,28=1/1;
 7//1,2,3,16;
 1/18=20,19=15,26=3/3(2);
 2/9=110/2;
 99//99;
 2/9=110/2;
 3/5=1,6=6,7=1,11=2,25=1,30=1,70=32205,71=1,72=8,74=-55/1,2,3;
 4/5=5,16=3,69=1/1;
 5/5=2,38=5,53=8/2;
 7//1,2,3,16;
 1/18=20,19=15,26=3/3(-5);
 2/9=110/2;
 6/7=2,8=2,9=2,10=2,19=2,28=1/1;
 99/9=1/99;
 Leave Link    1 at Mon Dec 30 11:32:50 2019, MaxMem=  4294967296 cpu:               1.0 elap:               0.1
 (Enter /n/sw/g16_nehalem/g16/l101.exe)
 -----
 title
 -----
 Symbolic Z-matrix:
 Charge =  0 Multiplicity = 1
 7                    -2.78556  -0.49386   0.33082 
 1                    -2.62932  -1.22196   1.0188 
 6                    -1.6149    0.16554  -0.17921 
 1                    -1.60376   0.13716  -1.27613 
 6                    -1.61746   1.63359   0.23379 
 6                    -0.38238  -0.56057   0.37507 
 1                    -2.56945   2.12292   0.02446 
 8                    -0.49028  -1.53814   1.10066 
 7                     0.80986  -0.05129  -0.00191 
 1                     0.85785   0.79147  -0.56158 
 6                     2.03748  -0.61016   0.51405 
 1                     1.89361  -0.93554   1.54847 
 6                     2.43235  -1.83431  -0.31158 
 6                     3.18561   0.3918    0.4806 
 1                     1.60809  -2.54446  -0.41206 
 8                     4.24351   0.19166   1.01756 
 8                     2.88776   1.47813  -0.23233 
 6                     3.93466   2.45545  -0.33045 
 1                     3.52011   3.27197  -0.91877 
 1                     4.21637   2.80308   0.66514 
 1                     4.80366   2.02285  -0.82981 
 9                     3.49449  -2.4535    0.25069 
 9                     2.8097   -1.41605  -1.55139 
 9                    -1.34106   1.73277   1.55966 
 9                    -0.62734   2.29876  -0.4349 
 6                    -3.99242  -0.33026  -0.27705 
 8                    -4.14196   0.46826  -1.19252 
 6                    -5.10894  -1.20232   0.24446 
 1                    -5.29552  -2.00097  -0.48016 
 1                    -4.87617  -1.65126   1.21234 
 1                    -6.01797  -0.60335   0.32527 
 
 ITRead=  0  0  0  0  0  0  0  0  0  0  0  0  0  0  0  0  0  0  0  0
 ITRead=  0  0  0  0  0  0  0  0  0  0  0
 MicOpt= -1 -1 -1 -1 -1 -1 -1 -1 -1 -1 -1 -1 -1 -1 -1 -1 -1 -1 -1 -1
 MicOpt= -1 -1 -1 -1 -1 -1 -1 -1 -1 -1 -1
 NAtoms=     31 NQM=       31 NQMF=       0 NMMI=      0 NMMIF=      0
                NMic=       0 NMicF=      0.
                    Isotopes and Nuclear Properties:
 (Nuclear quadrupole moments (NQMom) in fm**2, nuclear magnetic moments (NMagM)
  in nuclear magnetons)

  Atom         1           2           3           4           5           6           7           8           9          10
 IAtWgt=          14           1          12           1          12          12           1          16          14           1
 AtmWgt=  14.0030740   1.0078250  12.0000000   1.0078250  12.0000000  12.0000000   1.0078250  15.9949146  14.0030740   1.0078250
 NucSpn=           2           1           0           1           0           0           1           0           2           1
 AtZEff=   0.0000000   0.0000000   0.0000000   0.0000000   0.0000000   0.0000000   0.0000000   0.0000000   0.0000000   0.0000000
 NQMom=    2.0440000   0.0000000   0.0000000   0.0000000   0.0000000   0.0000000   0.0000000   0.0000000   2.0440000   0.0000000
 NMagM=    0.4037610   2.7928460   0.0000000   2.7928460   0.0000000   0.0000000   2.7928460   0.0000000   0.4037610   2.7928460
 AtZNuc=   7.0000000   1.0000000   6.0000000   1.0000000   6.0000000   6.0000000   1.0000000   8.0000000   7.0000000   1.0000000

  Atom        11          12          13          14          15          16          17          18          19          20
 IAtWgt=          12           1          12          12           1          16          16          12           1           1
 AtmWgt=  12.0000000   1.0078250  12.0000000  12.0000000   1.0078250  15.9949146  15.9949146  12.0000000   1.0078250   1.0078250
 NucSpn=           0           1           0           0           1           0           0           0           1           1
 AtZEff=   0.0000000   0.0000000   0.0000000   0.0000000   0.0000000   0.0000000   0.0000000   0.0000000   0.0000000   0.0000000
 NQMom=    0.0000000   0.0000000   0.0000000   0.0000000   0.0000000   0.0000000   0.0000000   0.0000000   0.0000000   0.0000000
 NMagM=    0.0000000   2.7928460   0.0000000   0.0000000   2.7928460   0.0000000   0.0000000   0.0000000   2.7928460   2.7928460
 AtZNuc=   6.0000000   1.0000000   6.0000000   6.0000000   1.0000000   8.0000000   8.0000000   6.0000000   1.0000000   1.0000000

  Atom        21          22          23          24          25          26          27          28          29          30
 IAtWgt=           1          19          19          19          19          12          16          12           1           1
 AtmWgt=   1.0078250  18.9984033  18.9984033  18.9984033  18.9984033  12.0000000  15.9949146  12.0000000   1.0078250   1.0078250
 NucSpn=           1           1           1           1           1           0           0           0           1           1
 AtZEff=   0.0000000   0.0000000   0.0000000   0.0000000   0.0000000   0.0000000   0.0000000   0.0000000   0.0000000   0.0000000
 NQMom=    0.0000000   0.0000000   0.0000000   0.0000000   0.0000000   0.0000000   0.0000000   0.0000000   0.0000000   0.0000000
 NMagM=    2.7928460   2.6288670   2.6288670   2.6288670   2.6288670   0.0000000   0.0000000   0.0000000   2.7928460   2.7928460
 AtZNuc=   1.0000000   9.0000000   9.0000000   9.0000000   9.0000000   6.0000000   8.0000000   6.0000000   1.0000000   1.0000000

  Atom        31
 IAtWgt=           1
 AtmWgt=   1.0078250
 NucSpn=           1
 AtZEff=   0.0000000
 NQMom=    0.0000000
 NMagM=    2.7928460
 AtZNuc=   1.0000000
 Leave Link  101 at Mon Dec 30 11:32:51 2019, MaxMem=  4294967296 cpu:               6.2 elap:               0.4
 (Enter /n/sw/g16_nehalem/g16/l103.exe)

 GradGradGradGradGradGradGradGradGradGradGradGradGradGradGradGradGradGrad
 Berny optimization.
 Initialization pass.
                           ----------------------------
                           !    Initial Parameters    !
                           ! (Angstroms and Degrees)  !
 --------------------------                            --------------------------
 ! Name  Definition              Value          Derivative Info.                !
 --------------------------------------------------------------------------------
 ! R1    R(1,2)                  1.0138         estimate D2E/DX2                !
 ! R2    R(1,3)                  1.4371         estimate D2E/DX2                !
 ! R3    R(1,26)                 1.3612         estimate D2E/DX2                !
 ! R4    R(3,4)                  1.0973         estimate D2E/DX2                !
 ! R5    R(3,5)                  1.525          estimate D2E/DX2                !
 ! R6    R(3,6)                  1.5341         estimate D2E/DX2                !
 ! R7    R(5,7)                  1.0907         estimate D2E/DX2                !
 ! R8    R(5,24)                 1.358          estimate D2E/DX2                !
 ! R9    R(5,25)                 1.3675         estimate D2E/DX2                !
 ! R10   R(6,8)                  1.2222         estimate D2E/DX2                !
 ! R11   R(6,9)                  1.3501         estimate D2E/DX2                !
 ! R12   R(9,10)                 1.0128         estimate D2E/DX2                !
 ! R13   R(9,11)                 1.4442         estimate D2E/DX2                !
 ! R14   R(11,12)                1.0939         estimate D2E/DX2                !
 ! R15   R(11,13)                1.5284         estimate D2E/DX2                !
 ! R16   R(11,14)                1.5242         estimate D2E/DX2                !
 ! R17   R(13,15)                1.0926         estimate D2E/DX2                !
 ! R18   R(13,22)                1.3519         estimate D2E/DX2                !
 ! R19   R(13,23)                1.3618         estimate D2E/DX2                !
 ! R20   R(14,16)                1.2031         estimate D2E/DX2                !
 ! R21   R(14,17)                1.3331         estimate D2E/DX2                !
 ! R22   R(17,18)                1.4355         estimate D2E/DX2                !
 ! R23   R(18,19)                1.0884         estimate D2E/DX2                !
 ! R24   R(18,20)                1.0915         estimate D2E/DX2                !
 ! R25   R(18,21)                1.0916         estimate D2E/DX2                !
 ! R26   R(26,27)                1.224          estimate D2E/DX2                !
 ! R27   R(26,28)                1.5097         estimate D2E/DX2                !
 ! R28   R(28,29)                1.0944         estimate D2E/DX2                !
 ! R29   R(28,30)                1.092          estimate D2E/DX2                !
 ! R30   R(28,31)                1.0916         estimate D2E/DX2                !
 ! A1    A(2,1,3)              116.411          estimate D2E/DX2                !
 ! A2    A(2,1,26)             121.7357         estimate D2E/DX2                !
 ! A3    A(3,1,26)             120.5701         estimate D2E/DX2                !
 ! A4    A(1,3,4)              110.5579         estimate D2E/DX2                !
 ! A5    A(1,3,5)              110.1332         estimate D2E/DX2                !
 ! A6    A(1,3,6)              108.0015         estimate D2E/DX2                !
 ! A7    A(4,3,5)              107.1949         estimate D2E/DX2                !
 ! A8    A(4,3,6)              109.9234         estimate D2E/DX2                !
 ! A9    A(5,3,6)              111.0463         estimate D2E/DX2                !
 ! A10   A(3,5,7)              112.4186         estimate D2E/DX2                !
 ! A11   A(3,5,24)             109.5339         estimate D2E/DX2                !
 ! A12   A(3,5,25)             109.5482         estimate D2E/DX2                !
 ! A13   A(7,5,24)             109.4075         estimate D2E/DX2                !
 ! A14   A(7,5,25)             108.6572         estimate D2E/DX2                !
 ! A15   A(24,5,25)            107.1304         estimate D2E/DX2                !
 ! A16   A(3,6,8)              121.4753         estimate D2E/DX2                !
 ! A17   A(3,6,9)              115.4692         estimate D2E/DX2                !
 ! A18   A(8,6,9)              123.0538         estimate D2E/DX2                !
 ! A19   A(6,9,10)             120.6639         estimate D2E/DX2                !
 ! A20   A(6,9,11)             120.3257         estimate D2E/DX2                !
 ! A21   A(10,9,11)            118.6302         estimate D2E/DX2                !
 ! A22   A(9,11,12)            109.9471         estimate D2E/DX2                !
 ! A23   A(9,11,13)            109.6677         estimate D2E/DX2                !
 ! A24   A(9,11,14)            112.2153         estimate D2E/DX2                !
 ! A25   A(12,11,13)           107.852          estimate D2E/DX2                !
 ! A26   A(12,11,14)           108.3818         estimate D2E/DX2                !
 ! A27   A(13,11,14)           108.665          estimate D2E/DX2                !
 ! A28   A(11,13,15)           112.0448         estimate D2E/DX2                !
 ! A29   A(11,13,22)           110.1899         estimate D2E/DX2                !
 ! A30   A(11,13,23)           108.5051         estimate D2E/DX2                !
 ! A31   A(15,13,22)           109.4664         estimate D2E/DX2                !
 ! A32   A(15,13,23)           108.9624         estimate D2E/DX2                !
 ! A33   A(22,13,23)           107.5551         estimate D2E/DX2                !
 ! A34   A(11,14,16)           122.9008         estimate D2E/DX2                !
 ! A35   A(11,14,17)           112.2789         estimate D2E/DX2                !
 ! A36   A(16,14,17)           124.7992         estimate D2E/DX2                !
 ! A37   A(14,17,18)           115.3659         estimate D2E/DX2                !
 ! A38   A(17,18,19)           105.659          estimate D2E/DX2                !
 ! A39   A(17,18,20)           110.0408         estimate D2E/DX2                !
 ! A40   A(17,18,21)           109.9997         estimate D2E/DX2                !
 ! A41   A(19,18,20)           110.6344         estimate D2E/DX2                !
 ! A42   A(19,18,21)           110.6845         estimate D2E/DX2                !
 ! A43   A(20,18,21)           109.7551         estimate D2E/DX2                !
 ! A44   A(1,26,27)            121.3837         estimate D2E/DX2                !
 ! A45   A(1,26,28)            115.5969         estimate D2E/DX2                !
 ! A46   A(27,26,28)           123.0167         estimate D2E/DX2                !
 ! A47   A(26,28,29)           108.597          estimate D2E/DX2                !
 ! A48   A(26,28,30)           112.707          estimate D2E/DX2                !
 ! A49   A(26,28,31)           108.9353         estimate D2E/DX2                !
 ! A50   A(29,28,30)           108.8542         estimate D2E/DX2                !
 ! A51   A(29,28,31)           107.906          estimate D2E/DX2                !
 ! A52   A(30,28,31)           109.722          estimate D2E/DX2                !
 ! D1    D(2,1,3,4)            126.7707         estimate D2E/DX2                !
 ! D2    D(2,1,3,5)           -114.9502         estimate D2E/DX2                !
 ! D3    D(2,1,3,6)              6.4699         estimate D2E/DX2                !
 ! D4    D(26,1,3,4)           -40.5132         estimate D2E/DX2                !
 ! D5    D(26,1,3,5)            77.7658         estimate D2E/DX2                !
 ! D6    D(26,1,3,6)          -160.814          estimate D2E/DX2                !
 ! D7    D(2,1,26,27)         -173.2323         estimate D2E/DX2                !
 ! D8    D(2,1,26,28)            6.1866         estimate D2E/DX2                !
 ! D9    D(3,1,26,27)           -6.6356         estimate D2E/DX2                !
 ! D10   D(3,1,26,28)          172.7834         estimate D2E/DX2                !
 ! D11   D(1,3,5,7)            -49.0973         estimate D2E/DX2                !
 ! D12   D(1,3,5,24)            72.7577         estimate D2E/DX2                !
 ! D13   D(1,3,5,25)          -170.0085         estimate D2E/DX2                !
 ! D14   D(4,3,5,7)             71.2309         estimate D2E/DX2                !
 ! D15   D(4,3,5,24)          -166.9142         estimate D2E/DX2                !
 ! D16   D(4,3,5,25)           -49.6803         estimate D2E/DX2                !
 ! D17   D(6,3,5,7)           -168.6845         estimate D2E/DX2                !
 ! D18   D(6,3,5,24)           -46.8296         estimate D2E/DX2                !
 ! D19   D(6,3,5,25)            70.4042         estimate D2E/DX2                !
 ! D20   D(1,3,6,8)              1.1243         estimate D2E/DX2                !
 ! D21   D(1,3,6,9)           -179.3373         estimate D2E/DX2                !
 ! D22   D(4,3,6,8)           -119.5737         estimate D2E/DX2                !
 ! D23   D(4,3,6,9)             59.9647         estimate D2E/DX2                !
 ! D24   D(5,3,6,8)            121.9766         estimate D2E/DX2                !
 ! D25   D(5,3,6,9)            -58.485          estimate D2E/DX2                !
 ! D26   D(3,6,9,10)             3.9518         estimate D2E/DX2                !
 ! D27   D(3,6,9,11)           176.7774         estimate D2E/DX2                !
 ! D28   D(8,6,9,10)          -176.5178         estimate D2E/DX2                !
 ! D29   D(8,6,9,11)            -3.6923         estimate D2E/DX2                !
 ! D30   D(6,9,11,12)          -35.0035         estimate D2E/DX2                !
 ! D31   D(6,9,11,13)           83.4239         estimate D2E/DX2                !
 ! D32   D(6,9,11,14)         -155.7068         estimate D2E/DX2                !
 ! D33   D(10,9,11,12)         137.9663         estimate D2E/DX2                !
 ! D34   D(10,9,11,13)        -103.6063         estimate D2E/DX2                !
 ! D35   D(10,9,11,14)          17.263          estimate D2E/DX2                !
 ! D36   D(9,11,13,15)         -51.0291         estimate D2E/DX2                !
 ! D37   D(9,11,13,22)        -173.1687         estimate D2E/DX2                !
 ! D38   D(9,11,13,23)          69.3171         estimate D2E/DX2                !
 ! D39   D(12,11,13,15)         68.6885         estimate D2E/DX2                !
 ! D40   D(12,11,13,22)        -53.4511         estimate D2E/DX2                !
 ! D41   D(12,11,13,23)       -170.9653         estimate D2E/DX2                !
 ! D42   D(14,11,13,15)       -174.0221         estimate D2E/DX2                !
 ! D43   D(14,11,13,22)         63.8382         estimate D2E/DX2                !
 ! D44   D(14,11,13,23)        -53.676          estimate D2E/DX2                !
 ! D45   D(9,11,14,16)         170.1798         estimate D2E/DX2                !
 ! D46   D(9,11,14,17)         -11.4226         estimate D2E/DX2                !
 ! D47   D(12,11,14,16)         48.5766         estimate D2E/DX2                !
 ! D48   D(12,11,14,17)       -133.0259         estimate D2E/DX2                !
 ! D49   D(13,11,14,16)        -68.3743         estimate D2E/DX2                !
 ! D50   D(13,11,14,17)        110.0232         estimate D2E/DX2                !
 ! D51   D(11,14,17,18)       -178.7838         estimate D2E/DX2                !
 ! D52   D(16,14,17,18)         -0.4223         estimate D2E/DX2                !
 ! D53   D(14,17,18,19)       -178.8115         estimate D2E/DX2                !
 ! D54   D(14,17,18,20)        -59.3506         estimate D2E/DX2                !
 ! D55   D(14,17,18,21)         61.6897         estimate D2E/DX2                !
 ! D56   D(1,26,28,29)        -105.0089         estimate D2E/DX2                !
 ! D57   D(1,26,28,30)          15.6826         estimate D2E/DX2                !
 ! D58   D(1,26,28,31)         137.708          estimate D2E/DX2                !
 ! D59   D(27,26,28,29)         74.3996         estimate D2E/DX2                !
 ! D60   D(27,26,28,30)       -164.909          estimate D2E/DX2                !
 ! D61   D(27,26,28,31)        -42.8835         estimate D2E/DX2                !
 --------------------------------------------------------------------------------
 Trust Radius=3.00D-01 FncErr=1.00D-07 GrdErr=1.00D-06 EigMax=2.50D+02 EigMin=1.00D-04
 Number of steps in this run=    153 maximum allowed number of steps=    186.
 GradGradGradGradGradGradGradGradGradGradGradGradGradGradGradGradGradGrad

 Leave Link  103 at Mon Dec 30 11:32:51 2019, MaxMem=  4294967296 cpu:               0.9 elap:               0.1
 (Enter /n/sw/g16_nehalem/g16/l202.exe)
                          Input orientation:                          
 ---------------------------------------------------------------------
 Center     Atomic      Atomic             Coordinates (Angstroms)
 Number     Number       Type             X           Y           Z
 ---------------------------------------------------------------------
      1          7           0       -2.785557   -0.493858    0.330823
      2          1           0       -2.629315   -1.221963    1.018796
      3          6           0       -1.614897    0.165543   -0.179208
      4          1           0       -1.603763    0.137163   -1.276133
      5          6           0       -1.617458    1.633593    0.233794
      6          6           0       -0.382376   -0.560569    0.375066
      7          1           0       -2.569447    2.122918    0.024458
      8          8           0       -0.490283   -1.538144    1.100657
      9          7           0        0.809858   -0.051293   -0.001908
     10          1           0        0.857849    0.791470   -0.561577
     11          6           0        2.037481   -0.610159    0.514046
     12          1           0        1.893610   -0.935535    1.548469
     13          6           0        2.432353   -1.834311   -0.311584
     14          6           0        3.185612    0.391802    0.480604
     15          1           0        1.608092   -2.544455   -0.412059
     16          8           0        4.243513    0.191658    1.017555
     17          8           0        2.887756    1.478135   -0.232326
     18          6           0        3.934660    2.455455   -0.330452
     19          1           0        3.520112    3.271969   -0.918772
     20          1           0        4.216367    2.803082    0.665143
     21          1           0        4.803658    2.022853   -0.829811
     22          9           0        3.494492   -2.453502    0.250693
     23          9           0        2.809705   -1.416053   -1.551387
     24          9           0       -1.341060    1.732766    1.559659
     25          9           0       -0.627341    2.298756   -0.434905
     26          6           0       -3.992418   -0.330259   -0.277055
     27          8           0       -4.141964    0.468263   -1.192520
     28          6           0       -5.108936   -1.202316    0.244461
     29          1           0       -5.295522   -2.000974   -0.480158
     30          1           0       -4.876172   -1.651264    1.212344
     31          1           0       -6.017970   -0.603352    0.325274
 ---------------------------------------------------------------------
                    Distance matrix (angstroms):
                    1          2          3          4          5
     1  N    0.000000
     2  H    1.013832   0.000000
     3  C    1.437145   2.095097   0.000000
     4  H    2.092160   2.857565   1.097349   0.000000
     5  C    2.428975   3.129582   1.525040   2.125881   0.000000
     6  C    2.404514   2.429108   1.534134   2.169118   2.521851
     7  H    2.643498   3.490060   2.187227   2.562675   1.090662
     8  O    2.636562   2.163823   2.409432   3.113779   3.475901
     9  N    3.637799   3.773621   2.440879   2.735824   2.964162
    10  H    3.965205   4.325714   2.579237   2.645419   2.732934
    11  C    4.827918   4.733715   3.797655   4.125759   4.297853
    12  H    4.855136   4.562833   4.062864   4.621761   4.544930
    13  C    5.425503   5.269285   4.516323   4.594268   5.359549
    14  C    6.038351   6.058652   4.850921   5.107747   4.967136
    15  H    4.905199   4.663898   4.217341   4.272436   5.317648
    16  O    7.095728   7.016701   5.979456   6.281291   6.086414
    17  O    6.032609   6.268485   4.690373   4.802237   4.531930
    18  C    7.368653   7.643928   6.005344   6.078069   5.640908
    19  H    7.450128   7.859074   6.046913   6.017376   5.514282
    20  H    7.746517   7.949177   6.455477   6.689513   5.965508
    21  H    8.079424   8.318369   6.713474   6.694033   6.520238
    22  F    6.579182   6.293463   5.757610   5.919033   6.544972
    23  F    5.974957   6.018841   4.895041   4.686891   5.664537
    24  F    2.924802   3.268418   2.356869   3.264457   1.357995
    25  F    3.611499   4.303093   2.364581   2.516654   1.367455
    26  C    1.361174   2.081446   2.430638   2.631029   3.123798
    27  O    2.255236   3.167789   2.739436   2.561071   3.124979
    28  C    2.430527   2.597788   3.776088   4.048784   4.498101
    29  H    3.037929   3.156324   4.281515   4.339849   5.219958
    30  H    2.547026   2.295676   3.984108   4.483263   4.729383
    31  H    3.234272   3.513778   4.498083   4.753745   4.937286
                    6          7          8          9         10
     6  C    0.000000
     7  H    3.479556   0.000000
     8  O    1.222203   4.345630   0.000000
     9  N    1.350146   4.018407   2.262022   0.000000
    10  H    2.059968   3.723244   3.163476   1.012809   0.000000
    11  C    2.424352   5.378958   2.755877   1.444160   2.124396
    12  H    2.587970   5.620998   2.499324   2.088078   2.916786
    13  C    3.164902   6.386751   3.259439   2.430544   3.071854
    14  C    3.694413   6.027067   4.197781   2.464418   2.581541
    15  H    2.918447   6.279072   2.775635   2.649766   3.422516
    16  O    4.730485   7.150694   5.040629   3.590030   3.783669
    17  O    3.901154   5.501159   4.720798   2.590348   2.168049
    18  C    5.313281   6.522266   6.130010   4.019467   3.505571
    19  H    5.620656   6.268391   6.580163   4.385224   3.656242
    20  H    5.704974   6.849845   6.417824   4.494076   4.102568
    21  H    5.917833   7.423104   6.665825   4.575800   4.142181
    22  F    4.316106   7.600405   4.175973   3.611326   4.259285
    23  F    3.825239   6.628943   4.235347   2.874516   3.108476
    24  F    2.753493   2.004494   3.410771   3.201219   3.197011
    25  F    2.981912   2.003424   4.135038   2.788505   2.119846
    26  C    3.675691   2.851988   3.952471   4.818234   4.986413
    27  O    4.201229   2.586838   4.755955   5.119379   5.049820
    28  C    4.771715   4.189819   4.709332   6.034706   6.342508
    29  H    5.190875   4.969166   5.079715   6.426947   6.757836
    30  H    4.699452   4.580011   4.388769   6.030361   6.480181
    31  H    5.635976   4.406285   5.659539   6.857919   7.071699
                   11         12         13         14         15
    11  C    0.000000
    12  H    1.093892   0.000000
    13  C    1.528443   2.134910   0.000000
    14  C    1.524221   2.138090   2.480028   0.000000
    15  H    2.187132   2.552217   1.092614   3.450655   0.000000
    16  O    2.400627   2.659789   3.025138   1.203133   4.059009
    17  O    2.375081   3.159962   3.344544   1.333082   4.225053
    18  C    3.702763   4.381215   4.545258   2.340416   5.515313
    19  H    4.395689   5.141583   5.256043   3.219550   6.143563
    20  H    4.052233   4.489178   5.063804   2.628837   6.046455
    21  H    4.048511   4.782955   4.557341   2.644917   5.589853
    22  F    2.364350   2.559545   1.351922   2.871240   2.001504
    23  F    2.347724   3.267910   1.361780   2.745657   2.003805
    24  F    4.242304   4.193214   5.519441   4.842861   5.556959
    25  F    4.057533   4.555173   5.143849   4.360418   5.334264
    26  C    6.088010   6.192271   6.598564   7.253932   6.023836
    27  O    6.500839   6.775826   7.021363   7.516552   6.538252
    28  C    7.175974   7.127921   7.588125   8.449645   6.881193
    29  H    7.529657   7.545469   7.731510   8.864427   6.925308
    30  H    7.026387   6.815805   7.467958   8.348768   6.744046
    31  H    8.057665   8.012468   8.563224   9.258530   7.903693
                   16         17         18         19         20
    16  O    0.000000
    17  O    2.248400   0.000000
    18  C    2.652789   1.435546   0.000000
    19  H    3.709580   2.022108   1.088423   0.000000
    20  H    2.635236   2.079938   1.091519   1.792599   0.000000
    21  H    2.660789   2.079516   1.091632   1.793236   1.785653
    22  F    2.854117   4.007394   4.962795   5.843742   5.322081
    23  F    3.352611   3.181562   4.212455   4.783558   4.969185
    24  F    5.818621   4.599884   5.650489   5.669458   5.729811
    25  F    5.502247   3.615296   4.565886   4.287498   4.992590
    26  C    8.353381   7.114006   8.402477   8.356193   8.836838
    27  O    8.676241   7.166504   8.362054   8.163523   8.874908
    28  C    9.487315   8.447439   9.772228   9.789423  10.157828
    29  H    9.901715   8.895598  10.250777  10.281620  10.717588
    30  H    9.306071   8.494633   9.842567   9.963808  10.139768
    31  H   10.315490   9.162721  10.432695  10.370187  10.791708
                   21         22         23         24         25
    21  H    0.000000
    22  F    4.787396   0.000000
    23  F    4.040123   2.189230   0.000000
    24  F    6.599339   6.528460   6.068156   0.000000
    25  F    5.452323   6.327994   5.182627   2.192721   0.000000
    26  C    9.122150   7.800032   7.005123   3.828745   4.273217
    27  O    9.086939   8.302712   7.211459   4.125351   4.034509
    28  C   10.479279   8.693933   8.122538   4.953922   5.727455
    29  H   10.876897   8.831946   8.196607   5.808566   6.346782
    30  H   10.553134   8.463827   8.171061   4.906048   6.030643
    31  H   11.195482   9.691004   9.061467   5.371652   6.169196
                   26         27         28         29         30
    26  C    0.000000
    27  O    1.223960   0.000000
    28  C    1.509660   2.406405   0.000000
    29  H    2.128525   2.816964   1.094414   0.000000
    30  H    2.178161   3.288590   1.092031   1.778402   0.000000
    31  H    2.130784   2.640351   1.091619   1.767484   1.785697
                   31
    31  H    0.000000
 Stoichiometry    C9H12F4N2O4
 Framework group  C1[X(C9H12F4N2O4)]
 Deg. of freedom    87
 Full point group                 C1      NOp   1
 Largest Abelian subgroup         C1      NOp   1
 Largest concise Abelian subgroup C1      NOp   1
                         Standard orientation:                         
 ---------------------------------------------------------------------
 Center     Atomic      Atomic             Coordinates (Angstroms)
 Number     Number       Type             X           Y           Z
 ---------------------------------------------------------------------
      1          7           0        3.004044   -0.529571   -0.255959
      2          1           0        2.847802   -1.257676   -0.943932
      3          6           0        1.833384    0.129830    0.254072
      4          1           0        1.822250    0.101450    1.350997
      5          6           0        1.835945    1.597880   -0.158930
      6          6           0        0.600863   -0.596282   -0.300202
      7          1           0        2.787934    2.087205    0.050406
      8          8           0        0.708770   -1.573857   -1.025793
      9          7           0       -0.591371   -0.087006    0.076772
     10          1           0       -0.639362    0.755757    0.636441
     11          6           0       -1.818994   -0.645872   -0.439182
     12          1           0       -1.675123   -0.971248   -1.473605
     13          6           0       -2.213866   -1.870024    0.386448
     14          6           0       -2.967125    0.356089   -0.405740
     15          1           0       -1.389605   -2.580168    0.486923
     16          8           0       -4.025026    0.155945   -0.942691
     17          8           0       -2.669269    1.442422    0.307190
     18          6           0       -3.716173    2.419742    0.405316
     19          1           0       -3.301625    3.236256    0.993636
     20          1           0       -3.997880    2.767369   -0.590279
     21          1           0       -4.585171    1.987140    0.904675
     22          9           0       -3.276005   -2.489215   -0.175829
     23          9           0       -2.591218   -1.451766    1.626251
     24          9           0        1.559547    1.697053   -1.484795
     25          9           0        0.845828    2.263043    0.509769
     26          6           0        4.210905   -0.365972    0.351919
     27          8           0        4.360451    0.432550    1.267384
     28          6           0        5.327423   -1.238029   -0.169597
     29          1           0        5.514009   -2.036687    0.555022
     30          1           0        5.094659   -1.686977   -1.137480
     31          1           0        6.236457   -0.639065   -0.250410
 ---------------------------------------------------------------------
 Rotational constants (GHZ):           0.6446357           0.1970396           0.1688792
 Leave Link  202 at Mon Dec 30 11:32:51 2019, MaxMem=  4294967296 cpu:               1.0 elap:               0.1
 (Enter /n/sw/g16_nehalem/g16/l301.exe)
 Standard basis: 6-31G(d) (6D, 7F)
 Ernie: Thresh=  0.10000D-02 Tol=  0.10000D-05 Strict=F.
 There are   309 symmetry adapted cartesian basis functions of A   symmetry.
 There are   309 symmetry adapted basis functions of A   symmetry.
   309 basis functions,   580 primitive gaussians,   309 cartesian basis functions
    74 alpha electrons       74 beta electrons
       nuclear repulsion energy      1617.0217259383 Hartrees.
 IExCor= 4336 DFT=T Ex+Corr=M062X ExCW=0 ScaHFX=  0.540000
 ScaDFX=  1.000000  1.000000  1.000000  1.000000 ScalE2=  1.000000  1.000000
 IRadAn=      5 IRanWt=     -1 IRanGd=            0 ICorTp=0 IEmpDi=  4
 NAtoms=   31 NActive=   31 NUniq=   31 SFac= 1.00D+00 NAtFMM=   60 NAOKFM=F Big=F
 Integral buffers will be    131072 words long.
 Raffenetti 2 integral format.
 Two-electron integral symmetry is turned on.
 ------------------------------------------------------------------------------
 Polarizable Continuum Model (PCM)
 =================================
 Model                : PCM.
 Atomic radii         : SMD-Coulomb.
 Polarization charges : Total charges.
 Charge compensation  : None.
 Solution method      : On-the-fly selection.
 Cavity type          : VdW (van der Waals Surface) (Alpha=1.000).
 Cavity algorithm     : GePol (No added spheres)
                        Default sphere list used, NSphG=   31.
                        Lebedev-Laikov grids with approx.  5.0 points / Ang**2.
                        Smoothing algorithm: York/Karplus (Gamma=1.0000).
                        Polarization charges: spherical gaussians, with
                                              point-specific exponents (IZeta= 3).
                        Self-potential: point-specific (ISelfS= 7).
                        Self-field    : sphere-specific E.n sum rule (ISelfD= 2).
 1st derivatives      : Analytical E(r).r(x)/FMM algorithm (CHGder, D1EAlg=3).
                        Cavity 1st derivative terms included.
 Solvent              : DiethylEther, Eps=   4.240000 Eps(inf)=   1.829527
 ------------------------------------------------------------------------------
 GePol: Number of generator spheres                  =      31
 GePol: Total number of spheres                      =      31
 GePol: Number of exposed spheres                    =      31 (100.00%)
 GePol: Number of points                             =    2394
 GePol: Average weight of points                     =       0.13
 GePol: Minimum weight of points                     =   0.23D-09
 GePol: Maximum weight of points                     =    0.21501
 GePol: Number of points with low weight             =     105
 GePol: Fraction of low-weight points (<1% of avg)   =       4.39%
 GePol: Cavity surface area                          =    314.063 Ang**2
 GePol: Cavity volume                                =    321.375 Ang**3
 ------------------------------------------------------------------------------
 Atomic radii for non-electrostatic terms: SMD-CDS.
 ------------------------------------------------------------------------------
 PCM non-electrostatic energy =        -0.0044079404 Hartrees.
 Nuclear repulsion after PCM non-electrostatic terms =     1617.0173179979 Hartrees.
 Leave Link  301 at Mon Dec 30 11:32:51 2019, MaxMem=  4294967296 cpu:               1.7 elap:               0.2
 (Enter /n/sw/g16_nehalem/g16/l302.exe)
 NPDir=0 NMtPBC=     1 NCelOv=     1 NCel=       1 NClECP=     1 NCelD=      1
         NCelK=      1 NCelE2=     1 NClLst=     1 CellRange=     0.0.
 One-electron integrals computed using PRISM.
 One-electron integral symmetry used in STVInt
 NBasis=   309 RedAO= T EigKep=  1.66D-03  NBF=   309
 NBsUse=   309 1.00D-06 EigRej= -1.00D+00 NBFU=   309
 Precomputing XC quadrature grid using
 IXCGrd= 4 IRadAn=           5 IRanWt=          -1 IRanGd=           0 AccXCQ= 0.00D+00.
 Generated NRdTot=       0 NPtTot=           0 NUsed=           0 NTot=          32
 NSgBfM=   306   306   306   306   306 MxSgAt=    31 MxSgA2=    31.
 Leave Link  302 at Mon Dec 30 11:32:51 2019, MaxMem=  4294967296 cpu:               4.5 elap:               0.3
 (Enter /n/sw/g16_nehalem/g16/l303.exe)
 DipDrv:  MaxL=1.
 Leave Link  303 at Mon Dec 30 11:32:51 2019, MaxMem=  4294967296 cpu:               1.7 elap:               0.2
 (Enter /n/sw/g16_nehalem/g16/l401.exe)
 ExpMin= 1.61D-01 ExpMax= 7.00D+03 ExpMxC= 1.05D+03 IAcc=3 IRadAn=         5 AccDes= 0.00D+00
 Harris functional with IExCor= 1009 and IRadAn=       5 diagonalized for initial guess.
 HarFok:  IExCor= 1009 AccDes= 0.00D+00 IRadAn=         5 IDoV= 1 UseB2=F ITyADJ=14
 ICtDFT=  3500011 ScaDFX=  1.000000  1.000000  1.000000  1.000000
 FoFCou: FMM=F IPFlag=           0 FMFlag=      100000 FMFlg1=           0
         NFxFlg=           0 DoJE=T BraDBF=F KetDBF=T FulRan=T
         wScrn=  0.000000 ICntrl=       500 IOpCl=  0 I1Cent=   200000004 NGrid=           0
         NMat0=    1 NMatS0=      1 NMatT0=    0 NMatD0=    1 NMtDS0=    0 NMtDT0=    0
 Petite list used in FoFCou.
 Harris En= -1158.87988600400    
 JPrj=0 DoOrth=F DoCkMO=F.
 Leave Link  401 at Mon Dec 30 11:32:53 2019, MaxMem=  4294967296 cpu:              16.6 elap:               1.1
 (Enter /n/sw/g16_nehalem/g16/l502.exe)
 Integral symmetry usage will be decided dynamically.
 Closed shell SCF:
 Using DIIS extrapolation, IDIIS=  1040.
 NGot=  4294967296 LenX=  4294767994 LenY=  4294672072
 Requested convergence on RMS density matrix=1.00D-08 within 128 cycles.
 Requested convergence on MAX density matrix=1.00D-06.
 Requested convergence on             energy=1.00D-06.
 No special actions if energy rises.
 Fock matrices will be formed incrementally for  20 cycles.

 Cycle   1  Pass 1  IDiag  1:
 FoFJK:  IHMeth= 1 ICntrl=       0 DoSepK=F KAlg= 0 I1Cent=           0 FoldK=F
 IRaf= 760000000 NMat=       1 IRICut=       1 DoRegI=T DoRafI=F ISym2E= 0 IDoP0=0 IntGTp=1.
 FoFCou: FMM=F IPFlag=           0 FMFlag=      100000 FMFlg1=           0
         NFxFlg=           0 DoJE=F BraDBF=F KetDBF=F FulRan=T
         wScrn=  0.000000 ICntrl=         0 IOpCl=  0 I1Cent=           0 NGrid=           0
         NMat0=    1 NMatS0=      1 NMatT0=    0 NMatD0=    1 NMtDS0=    0 NMtDT0=    0
 Symmetry not used in FoFCou.
 Inv3:  Mode=1 IEnd=    17193708.
 Iteration    1 A*A^-1 deviation from unit magnitude is 8.88D-15 for    507.
 Iteration    1 A*A^-1 deviation from orthogonality  is 3.72D-15 for   1094    412.
 Iteration    1 A^-1*A deviation from unit magnitude is 6.88D-15 for    507.
 Iteration    1 A^-1*A deviation from orthogonality  is 1.92D-15 for   2389   2388.
 E= -1159.22135405947    
 DIIS: error= 2.17D-02 at cycle   1 NSaved=   1.
 NSaved= 1 IEnMin= 1 EnMin= -1159.22135405947     IErMin= 1 ErrMin= 2.17D-02
 ErrMax= 2.17D-02  0.00D+00 EMaxC= 1.00D-01 BMatC= 5.06D-01 BMatP= 5.06D-01
 IDIUse=3 WtCom= 7.83D-01 WtEn= 2.17D-01
 Coeff-Com:  0.100D+01
 Coeff-En:   0.100D+01
 Coeff:      0.100D+01
 Gap=     0.349 Goal=   None    Shift=    0.000
 GapD=    0.349 DampG=1.000 DampE=0.500 DampFc=0.5000 IDamp=-1.
 Damping current iteration by 5.00D-01
 RMSDP=3.79D-03 MaxDP=1.47D-01              OVMax= 1.94D-01

 Cycle   2  Pass 1  IDiag  1:
 RMSU=  1.89D-03    CP:  9.95D-01
 E= -1159.37388978034     Delta-E=       -0.152535720866 Rises=F Damp=T
 DIIS: error= 7.77D-03 at cycle   2 NSaved=   2.
 NSaved= 2 IEnMin= 2 EnMin= -1159.37388978034     IErMin= 2 ErrMin= 7.77D-03
 ErrMax= 7.77D-03  0.00D+00 EMaxC= 1.00D-01 BMatC= 5.50D-02 BMatP= 5.06D-01
 IDIUse=3 WtCom= 9.22D-01 WtEn= 7.77D-02
 Coeff-Com:  0.218D-01 0.978D+00
 Coeff-En:   0.693D-01 0.931D+00
 Coeff:      0.255D-01 0.975D+00
 Gap=     0.370 Goal=   None    Shift=    0.000
 RMSDP=1.09D-03 MaxDP=4.24D-02 DE=-1.53D-01 OVMax= 9.20D-02

 Cycle   3  Pass 1  IDiag  1:
 RMSU=  1.03D-03    CP:  9.89D-01  8.35D-01
 E= -1159.54574566728     Delta-E=       -0.171855886942 Rises=F Damp=F
 DIIS: error= 5.38D-03 at cycle   3 NSaved=   3.
 NSaved= 3 IEnMin= 3 EnMin= -1159.54574566728     IErMin= 3 ErrMin= 5.38D-03
 ErrMax= 5.38D-03  0.00D+00 EMaxC= 1.00D-01 BMatC= 2.79D-02 BMatP= 5.50D-02
 IDIUse=3 WtCom= 9.46D-01 WtEn= 5.38D-02
 Coeff-Com: -0.828D-01 0.425D+00 0.658D+00
 Coeff-En:   0.000D+00 0.000D+00 0.100D+01
 Coeff:     -0.783D-01 0.402D+00 0.676D+00
 Gap=     0.365 Goal=   None    Shift=    0.000
 RMSDP=5.84D-04 MaxDP=2.52D-02 DE=-1.72D-01 OVMax= 4.13D-02

 Cycle   4  Pass 1  IDiag  1:
 RMSU=  3.51D-04    CP:  9.92D-01  9.80D-01  6.37D-01
 E= -1159.56438949915     Delta-E=       -0.018643831870 Rises=F Damp=F
 DIIS: error= 2.16D-03 at cycle   4 NSaved=   4.
 NSaved= 4 IEnMin= 4 EnMin= -1159.56438949915     IErMin= 4 ErrMin= 2.16D-03
 ErrMax= 2.16D-03  0.00D+00 EMaxC= 1.00D-01 BMatC= 4.51D-03 BMatP= 2.79D-02
 IDIUse=3 WtCom= 9.78D-01 WtEn= 2.16D-02
 Coeff-Com: -0.324D-01 0.758D-01 0.332D+00 0.625D+00
 Coeff-En:   0.000D+00 0.000D+00 0.106D+00 0.894D+00
 Coeff:     -0.317D-01 0.742D-01 0.327D+00 0.631D+00
 Gap=     0.360 Goal=   None    Shift=    0.000
 RMSDP=1.94D-04 MaxDP=8.60D-03 DE=-1.86D-02 OVMax= 1.21D-02

 Cycle   5  Pass 1  IDiag  1:
 RMSU=  8.68D-05    CP:  9.91D-01  9.49D-01  7.51D-01  6.84D-01
 E= -1159.56781368895     Delta-E=       -0.003424189802 Rises=F Damp=F
 DIIS: error= 3.73D-04 at cycle   5 NSaved=   5.
 NSaved= 5 IEnMin= 5 EnMin= -1159.56781368895     IErMin= 5 ErrMin= 3.73D-04
 ErrMax= 3.73D-04  0.00D+00 EMaxC= 1.00D-01 BMatC= 1.68D-04 BMatP= 4.51D-03
 IDIUse=3 WtCom= 9.96D-01 WtEn= 3.73D-03
 Coeff-Com: -0.999D-02 0.168D-01 0.121D+00 0.281D+00 0.590D+00
 Coeff-En:   0.000D+00 0.000D+00 0.000D+00 0.000D+00 0.100D+01
 Coeff:     -0.996D-02 0.167D-01 0.121D+00 0.280D+00 0.592D+00
 Gap=     0.361 Goal=   None    Shift=    0.000
 RMSDP=3.90D-05 MaxDP=1.90D-03 DE=-3.42D-03 OVMax= 3.02D-03

 Cycle   6  Pass 1  IDiag  1:
 RMSU=  2.73D-05    CP:  9.91D-01  9.50D-01  7.59D-01  7.28D-01  7.56D-01
 E= -1159.56794729495     Delta-E=       -0.000133606002 Rises=F Damp=F
 DIIS: error= 1.02D-04 at cycle   6 NSaved=   6.
 NSaved= 6 IEnMin= 6 EnMin= -1159.56794729495     IErMin= 6 ErrMin= 1.02D-04
 ErrMax= 1.02D-04  0.00D+00 EMaxC= 1.00D-01 BMatC= 1.24D-05 BMatP= 1.68D-04
 IDIUse=3 WtCom= 9.99D-01 WtEn= 1.02D-03
 Coeff-Com: -0.401D-03-0.126D-02 0.146D-01 0.391D-01 0.228D+00 0.720D+00
 Coeff-En:   0.000D+00 0.000D+00 0.000D+00 0.000D+00 0.000D+00 0.100D+01
 Coeff:     -0.401D-03-0.126D-02 0.146D-01 0.391D-01 0.228D+00 0.720D+00
 Gap=     0.361 Goal=   None    Shift=    0.000
 RMSDP=1.30D-05 MaxDP=5.20D-04 DE=-1.34D-04 OVMax= 1.32D-03

 Cycle   7  Pass 1  IDiag  1:
 RMSU=  1.01D-05    CP:  9.91D-01  9.49D-01  7.62D-01  7.31D-01  8.36D-01
                    CP:  9.32D-01
 E= -1159.56795774789     Delta-E=       -0.000010452937 Rises=F Damp=F
 DIIS: error= 7.88D-05 at cycle   7 NSaved=   7.
 NSaved= 7 IEnMin= 7 EnMin= -1159.56795774789     IErMin= 7 ErrMin= 7.88D-05
 ErrMax= 7.88D-05  0.00D+00 EMaxC= 1.00D-01 BMatC= 2.39D-06 BMatP= 1.24D-05
 IDIUse=1 WtCom= 1.00D+00 WtEn= 0.00D+00
 Coeff-Com:  0.144D-02-0.353D-02-0.104D-01-0.248D-01 0.322D-01 0.334D+00
 Coeff-Com:  0.671D+00
 Coeff:      0.144D-02-0.353D-02-0.104D-01-0.248D-01 0.322D-01 0.334D+00
 Coeff:      0.671D+00
 Gap=     0.361 Goal=   None    Shift=    0.000
 RMSDP=7.11D-06 MaxDP=3.97D-04 DE=-1.05D-05 OVMax= 4.21D-04

 Cycle   8  Pass 1  IDiag  1:
 RMSU=  4.08D-06    CP:  9.91D-01  9.48D-01  7.64D-01  7.36D-01  8.65D-01
                    CP:  1.07D+00  8.75D-01
 E= -1159.56795990228     Delta-E=       -0.000002154392 Rises=F Damp=F
 DIIS: error= 1.68D-05 at cycle   8 NSaved=   8.
 NSaved= 8 IEnMin= 8 EnMin= -1159.56795990228     IErMin= 8 ErrMin= 1.68D-05
 ErrMax= 1.68D-05  0.00D+00 EMaxC= 1.00D-01 BMatC= 3.19D-07 BMatP= 2.39D-06
 IDIUse=1 WtCom= 1.00D+00 WtEn= 0.00D+00
 Coeff-Com:  0.753D-03-0.140D-02-0.627D-02-0.177D-01-0.199D-01 0.238D-01
 Coeff-Com:  0.278D+00 0.742D+00
 Coeff:      0.753D-03-0.140D-02-0.627D-02-0.177D-01-0.199D-01 0.238D-01
 Coeff:      0.278D+00 0.742D+00
 Gap=     0.361 Goal=   None    Shift=    0.000
 RMSDP=2.75D-06 MaxDP=1.01D-04 DE=-2.15D-06 OVMax= 2.70D-04

 Cycle   9  Pass 1  IDiag  1:
 RMSU=  1.26D-06    CP:  9.91D-01  9.48D-01  7.65D-01  7.36D-01  8.80D-01
                    CP:  1.10D+00  1.01D+00  9.14D-01
 E= -1159.56796024221     Delta-E=       -0.000000339923 Rises=F Damp=F
 DIIS: error= 9.24D-06 at cycle   9 NSaved=   9.
 NSaved= 9 IEnMin= 9 EnMin= -1159.56796024221     IErMin= 9 ErrMin= 9.24D-06
 ErrMax= 9.24D-06  0.00D+00 EMaxC= 1.00D-01 BMatC= 3.59D-08 BMatP= 3.19D-07
 IDIUse=1 WtCom= 1.00D+00 WtEn= 0.00D+00
 Coeff-Com:  0.136D-03-0.155D-03-0.783D-03-0.359D-02-0.102D-01-0.290D-01
 Coeff-Com:  0.137D-01 0.265D+00 0.765D+00
 Coeff:      0.136D-03-0.155D-03-0.783D-03-0.359D-02-0.102D-01-0.290D-01
 Coeff:      0.137D-01 0.265D+00 0.765D+00
 Gap=     0.361 Goal=   None    Shift=    0.000
 RMSDP=9.70D-07 MaxDP=4.42D-05 DE=-3.40D-07 OVMax= 5.34D-05

 Cycle  10  Pass 1  IDiag  1:
 RMSU=  4.24D-07    CP:  9.91D-01  9.47D-01  7.65D-01  7.36D-01  8.82D-01
                    CP:  1.12D+00  1.04D+00  1.03D+00  9.58D-01
 E= -1159.56796027863     Delta-E=       -0.000000036426 Rises=F Damp=F
 DIIS: error= 1.55D-06 at cycle  10 NSaved=  10.
 NSaved=10 IEnMin=10 EnMin= -1159.56796027863     IErMin=10 ErrMin= 1.55D-06
 ErrMax= 1.55D-06  0.00D+00 EMaxC= 1.00D-01 BMatC= 2.71D-09 BMatP= 3.59D-08
 IDIUse=1 WtCom= 1.00D+00 WtEn= 0.00D+00
 Coeff-Com: -0.291D-04 0.804D-04 0.497D-03 0.818D-03-0.839D-03-0.103D-01
 Coeff-Com: -0.287D-01-0.464D-02 0.214D+00 0.829D+00
 Coeff:     -0.291D-04 0.804D-04 0.497D-03 0.818D-03-0.839D-03-0.103D-01
 Coeff:     -0.287D-01-0.464D-02 0.214D+00 0.829D+00
 Gap=     0.361 Goal=   None    Shift=    0.000
 RMSDP=3.02D-07 MaxDP=1.28D-05 DE=-3.64D-08 OVMax= 1.62D-05

 Cycle  11  Pass 1  IDiag  1:
 RMSU=  1.42D-07    CP:  9.91D-01  9.47D-01  7.65D-01  7.36D-01  8.83D-01
                    CP:  1.12D+00  1.05D+00  1.05D+00  1.05D+00  1.03D+00
 E= -1159.56796028129     Delta-E=       -0.000000002652 Rises=F Damp=F
 DIIS: error= 6.87D-07 at cycle  11 NSaved=  11.
 NSaved=11 IEnMin=11 EnMin= -1159.56796028129     IErMin=11 ErrMin= 6.87D-07
 ErrMax= 6.87D-07  0.00D+00 EMaxC= 1.00D-01 BMatC= 5.15D-10 BMatP= 2.71D-09
 IDIUse=1 WtCom= 1.00D+00 WtEn= 0.00D+00
 Coeff-Com: -0.250D-04 0.476D-04 0.321D-03 0.748D-03 0.735D-03-0.133D-02
 Coeff-Com: -0.147D-01-0.291D-01 0.171D-01 0.392D+00 0.634D+00
 Coeff:     -0.250D-04 0.476D-04 0.321D-03 0.748D-03 0.735D-03-0.133D-02
 Coeff:     -0.147D-01-0.291D-01 0.171D-01 0.392D+00 0.634D+00
 Gap=     0.361 Goal=   None    Shift=    0.000
 RMSDP=7.40D-08 MaxDP=2.64D-06 DE=-2.65D-09 OVMax= 4.14D-06

 Cycle  12  Pass 1  IDiag  1:
 RMSU=  3.89D-08    CP:  9.91D-01  9.47D-01  7.65D-01  7.36D-01  8.83D-01
                    CP:  1.12D+00  1.05D+00  1.06D+00  1.07D+00  1.10D+00
                    CP:  7.93D-01
 E= -1159.56796028170     Delta-E=       -0.000000000418 Rises=F Damp=F
 DIIS: error= 1.05D-07 at cycle  12 NSaved=  12.
 NSaved=12 IEnMin=12 EnMin= -1159.56796028170     IErMin=12 ErrMin= 1.05D-07
 ErrMax= 1.05D-07  0.00D+00 EMaxC= 1.00D-01 BMatC= 1.15D-11 BMatP= 5.15D-10
 IDIUse=1 WtCom= 1.00D+00 WtEn= 0.00D+00
 Coeff-Com: -0.197D-05 0.218D-05 0.312D-04 0.871D-04 0.213D-03 0.495D-03
 Coeff-Com: -0.114D-02-0.544D-02-0.122D-01 0.188D-01 0.113D+00 0.886D+00
 Coeff:     -0.197D-05 0.218D-05 0.312D-04 0.871D-04 0.213D-03 0.495D-03
 Coeff:     -0.114D-02-0.544D-02-0.122D-01 0.188D-01 0.113D+00 0.886D+00
 Gap=     0.361 Goal=   None    Shift=    0.000
 RMSDP=1.94D-08 MaxDP=6.47D-07 DE=-4.18D-10 OVMax= 8.51D-07

 Cycle  13  Pass 1  IDiag  1:
 RMSU=  1.11D-08    CP:  9.91D-01  9.47D-01  7.65D-01  7.36D-01  8.83D-01
                    CP:  1.12D+00  1.05D+00  1.06D+00  1.08D+00  1.13D+00
                    CP:  8.51D-01  1.02D+00
 E= -1159.56796028173     Delta-E=       -0.000000000027 Rises=F Damp=F
 DIIS: error= 4.76D-08 at cycle  13 NSaved=  13.
 NSaved=13 IEnMin=13 EnMin= -1159.56796028173     IErMin=13 ErrMin= 4.76D-08
 ErrMax= 4.76D-08  0.00D+00 EMaxC= 1.00D-01 BMatC= 1.65D-12 BMatP= 1.15D-11
 IDIUse=1 WtCom= 1.00D+00 WtEn= 0.00D+00
 Coeff-Com:  0.110D-05-0.256D-05-0.987D-05-0.206D-04 0.287D-04 0.254D-03
 Coeff-Com:  0.541D-03 0.433D-04-0.520D-02-0.203D-01-0.758D-02 0.307D+00
 Coeff-Com:  0.725D+00
 Coeff:      0.110D-05-0.256D-05-0.987D-05-0.206D-04 0.287D-04 0.254D-03
 Coeff:      0.541D-03 0.433D-04-0.520D-02-0.203D-01-0.758D-02 0.307D+00
 Coeff:      0.725D+00
 Gap=     0.361 Goal=   None    Shift=    0.000
 RMSDP=5.72D-09 MaxDP=1.92D-07 DE=-2.73D-11 OVMax= 2.39D-07

 Error on total polarization charges =  0.01922
 SCF Done:  E(RM062X) =  -1159.56796028     A.U. after   13 cycles
            NFock= 13  Conv=0.57D-08     -V/T= 2.0075
 KE= 1.150897777235D+03 PE=-5.961075663641D+03 EE= 2.033592608127D+03
 SMD-CDS (non-electrostatic) energy       (kcal/mol) =      -2.77
 (included in total energy above)
 Leave Link  502 at Mon Dec 30 11:33:39 2019, MaxMem=  4294967296 cpu:             717.1 elap:              46.0
 (Enter /n/sw/g16_nehalem/g16/l601.exe)
 Copying SCF densities to generalized density rwf, IOpCl= 0 IROHF=0.

 **********************************************************************

            Population analysis using the SCF density.

 **********************************************************************

 Orbital symmetries:
       Occupied  (A) (A) (A) (A) (A) (A) (A) (A) (A) (A) (A) (A)
                 (A) (A) (A) (A) (A) (A) (A) (A) (A) (A) (A) (A)
                 (A) (A) (A) (A) (A) (A) (A) (A) (A) (A) (A) (A)
                 (A) (A) (A) (A) (A) (A) (A) (A) (A) (A) (A) (A)
                 (A) (A) (A) (A) (A) (A) (A) (A) (A) (A) (A) (A)
                 (A) (A) (A) (A) (A) (A) (A) (A) (A) (A) (A) (A)
                 (A) (A)
       Virtual   (A) (A) (A) (A) (A) (A) (A) (A) (A) (A) (A) (A)
                 (A) (A) (A) (A) (A) (A) (A) (A) (A) (A) (A) (A)
                 (A) (A) (A) (A) (A) (A) (A) (A) (A) (A) (A) (A)
                 (A) (A) (A) (A) (A) (A) (A) (A) (A) (A) (A) (A)
                 (A) (A) (A) (A) (A) (A) (A) (A) (A) (A) (A) (A)
                 (A) (A) (A) (A) (A) (A) (A) (A) (A) (A) (A) (A)
                 (A) (A) (A) (A) (A) (A) (A) (A) (A) (A) (A) (A)
                 (A) (A) (A) (A) (A) (A) (A) (A) (A) (A) (A) (A)
                 (A) (A) (A) (A) (A) (A) (A) (A) (A) (A) (A) (A)
                 (A) (A) (A) (A) (A) (A) (A) (A) (A) (A) (A) (A)
                 (A) (A) (A) (A) (A) (A) (A) (A) (A) (A) (A) (A)
                 (A) (A) (A) (A) (A) (A) (A) (A) (A) (A) (A) (A)
                 (A) (A) (A) (A) (A) (A) (A) (A) (A) (A) (A) (A)
                 (A) (A) (A) (A) (A) (A) (A) (A) (A) (A) (A) (A)
                 (A) (A) (A) (A) (A) (A) (A) (A) (A) (A) (A) (A)
                 (A) (A) (A) (A) (A) (A) (A) (A) (A) (A) (A) (A)
                 (A) (A) (A) (A) (A) (A) (A) (A) (A) (A) (A) (A)
                 (A) (A) (A) (A) (A) (A) (A) (A) (A) (A) (A) (A)
                 (A) (A) (A) (A) (A) (A) (A) (A) (A) (A) (A) (A)
                 (A) (A) (A) (A) (A) (A) (A)
 The electronic state is 1-A.
 Alpha  occ. eigenvalues --  -25.27402 -25.26761 -25.26618 -25.26497 -19.70297
 Alpha  occ. eigenvalues --  -19.64445 -19.63469 -19.60833 -14.80466 -14.78749
 Alpha  occ. eigenvalues --  -10.71464 -10.71379 -10.69871 -10.67804 -10.65558
 Alpha  occ. eigenvalues --  -10.61720 -10.61083 -10.59998 -10.54322  -1.40174
 Alpha  occ. eigenvalues --   -1.39908  -1.34118  -1.33757  -1.25023  -1.18745
 Alpha  occ. eigenvalues --   -1.15976  -1.15388  -1.06032  -1.04028  -0.90797
 Alpha  occ. eigenvalues --   -0.87405  -0.83178  -0.82121  -0.77695  -0.75383
 Alpha  occ. eigenvalues --   -0.69394  -0.68002  -0.67576  -0.65655  -0.64715
 Alpha  occ. eigenvalues --   -0.64159  -0.63740  -0.62445  -0.61798  -0.61173
 Alpha  occ. eigenvalues --   -0.57901  -0.57300  -0.56479  -0.55973  -0.54353
 Alpha  occ. eigenvalues --   -0.53769  -0.52815  -0.52271  -0.51771  -0.51126
 Alpha  occ. eigenvalues --   -0.50024  -0.49677  -0.49340  -0.49121  -0.48315
 Alpha  occ. eigenvalues --   -0.47456  -0.46823  -0.45757  -0.45601  -0.43891
 Alpha  occ. eigenvalues --   -0.43591  -0.42573  -0.41632  -0.38402  -0.37005
 Alpha  occ. eigenvalues --   -0.35394  -0.33606  -0.32886  -0.32053
 Alpha virt. eigenvalues --    0.04089   0.05148   0.07335   0.13483   0.14114
 Alpha virt. eigenvalues --    0.15738   0.16409   0.16801   0.17658   0.18475
 Alpha virt. eigenvalues --    0.19246   0.19365   0.20543   0.21079   0.21923
 Alpha virt. eigenvalues --    0.22388   0.22623   0.22979   0.24083   0.24287
 Alpha virt. eigenvalues --    0.25280   0.28357   0.28570   0.29502   0.30615
 Alpha virt. eigenvalues --    0.30749   0.33689   0.36611   0.37922   0.40064
 Alpha virt. eigenvalues --    0.42794   0.45918   0.47625   0.53103   0.54015
 Alpha virt. eigenvalues --    0.55121   0.55507   0.56533   0.57584   0.58503
 Alpha virt. eigenvalues --    0.59077   0.59298   0.61079   0.61481   0.62628
 Alpha virt. eigenvalues --    0.64086   0.64480   0.65989   0.67590   0.68456
 Alpha virt. eigenvalues --    0.70450   0.70794   0.72983   0.73964   0.75252
 Alpha virt. eigenvalues --    0.76034   0.78220   0.78921   0.80202   0.81721
 Alpha virt. eigenvalues --    0.83842   0.86366   0.87202   0.88786   0.89522
 Alpha virt. eigenvalues --    0.90226   0.91087   0.91587   0.92081   0.92721
 Alpha virt. eigenvalues --    0.93929   0.94445   0.94897   0.95522   0.96934
 Alpha virt. eigenvalues --    0.98724   0.99449   1.00172   1.00611   1.01992
 Alpha virt. eigenvalues --    1.03016   1.04544   1.06803   1.07835   1.08705
 Alpha virt. eigenvalues --    1.10414   1.13195   1.13476   1.14479   1.15821
 Alpha virt. eigenvalues --    1.17230   1.20001   1.20658   1.21718   1.23228
 Alpha virt. eigenvalues --    1.26787   1.29352   1.30018   1.30389   1.33154
 Alpha virt. eigenvalues --    1.34383   1.37741   1.39130   1.40724   1.42425
 Alpha virt. eigenvalues --    1.42727   1.43636   1.44795   1.44900   1.46318
 Alpha virt. eigenvalues --    1.47047   1.47759   1.48801   1.50884   1.51886
 Alpha virt. eigenvalues --    1.53027   1.54147   1.55976   1.57246   1.58243
 Alpha virt. eigenvalues --    1.60012   1.61483   1.65182   1.66467   1.67945
 Alpha virt. eigenvalues --    1.69946   1.72203   1.72514   1.74634   1.76598
 Alpha virt. eigenvalues --    1.79296   1.80331   1.80932   1.81997   1.82911
 Alpha virt. eigenvalues --    1.84703   1.85169   1.86294   1.87155   1.87685
 Alpha virt. eigenvalues --    1.88212   1.89116   1.90860   1.92621   1.93233
 Alpha virt. eigenvalues --    1.93503   1.95388   1.95698   1.97101   1.98235
 Alpha virt. eigenvalues --    1.99291   2.00315   2.03401   2.03533   2.05636
 Alpha virt. eigenvalues --    2.06484   2.07817   2.08544   2.09353   2.10411
 Alpha virt. eigenvalues --    2.11290   2.12119   2.13626   2.14916   2.16859
 Alpha virt. eigenvalues --    2.17171   2.17828   2.19628   2.21636   2.22814
 Alpha virt. eigenvalues --    2.24029   2.26120   2.26402   2.29709   2.30819
 Alpha virt. eigenvalues --    2.33408   2.34844   2.35612   2.36989   2.39451
 Alpha virt. eigenvalues --    2.40807   2.42968   2.43622   2.45079   2.47689
 Alpha virt. eigenvalues --    2.48160   2.52126   2.55823   2.57579   2.60693
 Alpha virt. eigenvalues --    2.62390   2.63240   2.65389   2.66625   2.73120
 Alpha virt. eigenvalues --    2.74544   2.76504   2.77518   2.81003   2.81922
 Alpha virt. eigenvalues --    2.82915   2.85834   2.88355   2.93657   2.97488
 Alpha virt. eigenvalues --    3.00625   3.00695   3.02779   3.06263   3.10620
 Alpha virt. eigenvalues --    3.11630   3.12663   3.14084   3.16878   3.23112
 Alpha virt. eigenvalues --    3.25154   3.99323   4.02468   4.06628   4.08597
 Alpha virt. eigenvalues --    4.13746   4.21985   4.22570   4.27258   4.30545
 Alpha virt. eigenvalues --    4.36260   4.41930   4.45223   4.47640   4.51925
 Alpha virt. eigenvalues --    4.52781   4.65306   4.71220   5.03218   5.09630
          Condensed to atoms (all electrons):
               1          2          3          4          5          6
     1  N    7.273550   0.297351   0.190630  -0.041195  -0.045253  -0.032996
     2  H    0.297351   0.320738  -0.041663   0.002604   0.002174  -0.002415
     3  C    0.190630  -0.041663   5.441885   0.364583   0.269113   0.275538
     4  H   -0.041195   0.002604   0.364583   0.474777  -0.037904  -0.021758
     5  C   -0.045253   0.002174   0.269113  -0.037904   4.479061  -0.017366
     6  C   -0.032996  -0.002415   0.275538  -0.021758  -0.017366   4.348430
     7  H   -0.006128  -0.000219  -0.066789  -0.001772   0.394455   0.005096
     8  O   -0.013257   0.029523  -0.082213   0.000324  -0.000680   0.578725
     9  N    0.003777   0.001329  -0.119638   0.000122   0.009773   0.251362
    10  H    0.000158  -0.000029  -0.003482   0.000741  -0.003305  -0.014655
    11  C   -0.000064  -0.000050   0.006090  -0.000096  -0.000164  -0.025703
    12  H    0.000003  -0.000010   0.000757  -0.000010  -0.000104  -0.000111
    13  C    0.000000   0.000003  -0.000383   0.000030   0.000019  -0.001786
    14  C    0.000000   0.000000   0.000001  -0.000005   0.000013   0.004012
    15  H    0.000000  -0.000004   0.000128  -0.000013   0.000002   0.005834
    16  O    0.000000   0.000000   0.000000   0.000000   0.000000  -0.000050
    17  O    0.000000   0.000000  -0.000063  -0.000002   0.000017   0.000470
    18  C    0.000000   0.000000   0.000001   0.000000  -0.000001   0.000009
    19  H    0.000000   0.000000   0.000000   0.000000   0.000000  -0.000001
    20  H    0.000000   0.000000   0.000000   0.000000   0.000000   0.000002
    21  H    0.000000   0.000000   0.000000   0.000000   0.000000   0.000000
    22  F    0.000000   0.000000   0.000000   0.000000   0.000000  -0.000022
    23  F    0.000000   0.000000   0.000002  -0.000002   0.000000   0.000072
    24  F    0.002523   0.000250  -0.050963   0.002318   0.257283   0.012882
    25  F    0.001849  -0.000019  -0.028375   0.002690   0.237851  -0.006132
    26  C    0.255964  -0.011122  -0.028272   0.000530  -0.002744   0.005645
    27  O   -0.113747   0.002325   0.010932   0.009124  -0.005585   0.000807
    28  C   -0.116581  -0.000691   0.007988   0.000372  -0.000280  -0.000029
    29  H    0.000063   0.000080  -0.000283   0.000027  -0.000003   0.000006
    30  H    0.004696   0.001848   0.000100  -0.000007   0.000008  -0.000051
    31  H    0.003378  -0.000056  -0.000103  -0.000020   0.000011   0.000000
               7          8          9         10         11         12
     1  N   -0.006128  -0.013257   0.003777   0.000158  -0.000064   0.000003
     2  H   -0.000219   0.029523   0.001329  -0.000029  -0.000050  -0.000010
     3  C   -0.066789  -0.082213  -0.119638  -0.003482   0.006090   0.000757
     4  H   -0.001772   0.000324   0.000122   0.000741  -0.000096  -0.000010
     5  C    0.394455  -0.000680   0.009773  -0.003305  -0.000164  -0.000104
     6  C    0.005096   0.578725   0.251362  -0.014655  -0.025703  -0.000111
     7  H    0.517823  -0.000100  -0.000079   0.000406   0.000010   0.000000
     8  O   -0.000100   8.125818  -0.110912   0.002156   0.008523   0.009589
     9  N   -0.000079  -0.110912   7.347251   0.282810   0.140969  -0.040103
    10  H    0.000406   0.002156   0.282810   0.308862  -0.023810   0.002662
    11  C    0.000010   0.008523   0.140969  -0.023810   5.434750   0.367923
    12  H    0.000000   0.009589  -0.040103   0.002662   0.367923   0.448817
    13  C    0.000000  -0.003361  -0.046144   0.000528   0.277669  -0.031065
    14  C    0.000000   0.000674  -0.033153  -0.005325   0.294435  -0.022129
    15  H    0.000000   0.004441  -0.005320  -0.000198  -0.071561  -0.001641
    16  O    0.000000   0.000000   0.002448   0.000255  -0.072308   0.000126
    17  O    0.000000  -0.000003  -0.005023   0.018694  -0.102342   0.001267
    18  C    0.000000   0.000000  -0.000007  -0.000738   0.006972  -0.000106
    19  H    0.000000   0.000000  -0.000008  -0.000111   0.000001   0.000002
    20  H    0.000000   0.000000  -0.000026   0.000071   0.000071   0.000025
    21  H    0.000000   0.000000  -0.000001   0.000048  -0.000414  -0.000010
    22  F    0.000000   0.000009   0.001903  -0.000006  -0.034059   0.002350
    23  F    0.000000   0.000014   0.002830   0.000705  -0.050330   0.002239
    24  F   -0.033986  -0.000440  -0.003120   0.000364  -0.000009   0.000003
    25  F   -0.032199   0.000004  -0.005247   0.025234   0.000318   0.000004
    26  C    0.005251   0.000313  -0.000105   0.000006   0.000002   0.000000
    27  O    0.009095  -0.000006  -0.000003   0.000000   0.000000   0.000000
    28  C    0.000231  -0.000049   0.000001   0.000000   0.000000   0.000000
    29  H    0.000002   0.000000   0.000000   0.000000   0.000000   0.000000
    30  H   -0.000022  -0.000020   0.000000   0.000000   0.000000   0.000000
    31  H   -0.000001   0.000000   0.000000   0.000000   0.000000   0.000000
              13         14         15         16         17         18
     1  N    0.000000   0.000000   0.000000   0.000000   0.000000   0.000000
     2  H    0.000003   0.000000  -0.000004   0.000000   0.000000   0.000000
     3  C   -0.000383   0.000001   0.000128   0.000000  -0.000063   0.000001
     4  H    0.000030  -0.000005  -0.000013   0.000000  -0.000002   0.000000
     5  C    0.000019   0.000013   0.000002   0.000000   0.000017  -0.000001
     6  C   -0.001786   0.004012   0.005834  -0.000050   0.000470   0.000009
     7  H    0.000000   0.000000   0.000000   0.000000   0.000000   0.000000
     8  O   -0.003361   0.000674   0.004441   0.000000  -0.000003   0.000000
     9  N   -0.046144  -0.033153  -0.005320   0.002448  -0.005023  -0.000007
    10  H    0.000528  -0.005325  -0.000198   0.000255   0.018694  -0.000738
    11  C    0.277669   0.294435  -0.071561  -0.072308  -0.102342   0.006972
    12  H   -0.031065  -0.022129  -0.001641   0.000126   0.001267  -0.000106
    13  C    4.422078  -0.012069   0.397844   0.004200  -0.001829  -0.000019
    14  C   -0.012069   4.299239   0.005834   0.549731   0.280069  -0.025535
    15  H    0.397844   0.005834   0.534193  -0.000074  -0.000104   0.000006
    16  O    0.004200   0.549731  -0.000074   8.073002  -0.084013   0.002117
    17  O   -0.001829   0.280069  -0.000104  -0.084013   8.296700   0.182674
    18  C   -0.000019  -0.025535   0.000006   0.002117   0.182674   4.947152
    19  H    0.000000   0.004066   0.000000   0.000583  -0.029721   0.385630
    20  H   -0.000024  -0.004196   0.000000   0.004151  -0.030779   0.382529
    21  H    0.000099  -0.004719   0.000000   0.004355  -0.031007   0.383253
    22  F    0.265762   0.000789  -0.033712  -0.000181   0.000028   0.000004
    23  F    0.251880   0.010618  -0.034788  -0.000964  -0.000370  -0.000045
    24  F    0.000000   0.000002   0.000000   0.000000  -0.000001   0.000000
    25  F   -0.000002  -0.000017   0.000000   0.000000  -0.000102   0.000002
    26  C    0.000000   0.000000   0.000000   0.000000   0.000000   0.000000
    27  O    0.000000   0.000000   0.000000   0.000000   0.000000   0.000000
    28  C    0.000000   0.000000   0.000000   0.000000   0.000000   0.000000
    29  H    0.000000   0.000000   0.000000   0.000000   0.000000   0.000000
    30  H    0.000000   0.000000   0.000000   0.000000   0.000000   0.000000
    31  H    0.000000   0.000000   0.000000   0.000000   0.000000   0.000000
              19         20         21         22         23         24
     1  N    0.000000   0.000000   0.000000   0.000000   0.000000   0.002523
     2  H    0.000000   0.000000   0.000000   0.000000   0.000000   0.000250
     3  C    0.000000   0.000000   0.000000   0.000000   0.000002  -0.050963
     4  H    0.000000   0.000000   0.000000   0.000000  -0.000002   0.002318
     5  C    0.000000   0.000000   0.000000   0.000000   0.000000   0.257283
     6  C   -0.000001   0.000002   0.000000  -0.000022   0.000072   0.012882
     7  H    0.000000   0.000000   0.000000   0.000000   0.000000  -0.033986
     8  O    0.000000   0.000000   0.000000   0.000009   0.000014  -0.000440
     9  N   -0.000008  -0.000026  -0.000001   0.001903   0.002830  -0.003120
    10  H   -0.000111   0.000071   0.000048  -0.000006   0.000705   0.000364
    11  C    0.000001   0.000071  -0.000414  -0.034059  -0.050330  -0.000009
    12  H    0.000002   0.000025  -0.000010   0.002350   0.002239   0.000003
    13  C    0.000000  -0.000024   0.000099   0.265762   0.251880   0.000000
    14  C    0.004066  -0.004196  -0.004719   0.000789   0.010618   0.000002
    15  H    0.000000   0.000000   0.000000  -0.033712  -0.034788   0.000000
    16  O    0.000583   0.004151   0.004355  -0.000181  -0.000964   0.000000
    17  O   -0.029721  -0.030779  -0.031007   0.000028  -0.000370  -0.000001
    18  C    0.385630   0.382529   0.383253   0.000004  -0.000045   0.000000
    19  H    0.483226  -0.025890  -0.025743   0.000000  -0.000001   0.000000
    20  H   -0.025890   0.503607  -0.031637   0.000000   0.000001   0.000000
    21  H   -0.025743  -0.031637   0.502231  -0.000002   0.000009   0.000000
    22  F    0.000000   0.000000  -0.000002   9.126434  -0.034832   0.000000
    23  F   -0.000001   0.000001   0.000009  -0.034832   9.164499   0.000000
    24  F    0.000000   0.000000   0.000000   0.000000   0.000000   9.149412
    25  F    0.000005   0.000000   0.000000   0.000000   0.000000  -0.034359
    26  C    0.000000   0.000000   0.000000   0.000000   0.000000   0.000034
    27  O    0.000000   0.000000   0.000000   0.000000   0.000000   0.000027
    28  C    0.000000   0.000000   0.000000   0.000000   0.000000   0.000001
    29  H    0.000000   0.000000   0.000000   0.000000   0.000000   0.000000
    30  H    0.000000   0.000000   0.000000   0.000000   0.000000  -0.000001
    31  H    0.000000   0.000000   0.000000   0.000000   0.000000   0.000000
              25         26         27         28         29         30
     1  N    0.001849   0.255964  -0.113747  -0.116581   0.000063   0.004696
     2  H   -0.000019  -0.011122   0.002325  -0.000691   0.000080   0.001848
     3  C   -0.028375  -0.028272   0.010932   0.007988  -0.000283   0.000100
     4  H    0.002690   0.000530   0.009124   0.000372   0.000027  -0.000007
     5  C    0.237851  -0.002744  -0.005585  -0.000280  -0.000003   0.000008
     6  C   -0.006132   0.005645   0.000807  -0.000029   0.000006  -0.000051
     7  H   -0.032199   0.005251   0.009095   0.000231   0.000002  -0.000022
     8  O    0.000004   0.000313  -0.000006  -0.000049   0.000000  -0.000020
     9  N   -0.005247  -0.000105  -0.000003   0.000001   0.000000   0.000000
    10  H    0.025234   0.000006   0.000000   0.000000   0.000000   0.000000
    11  C    0.000318   0.000002   0.000000   0.000000   0.000000   0.000000
    12  H    0.000004   0.000000   0.000000   0.000000   0.000000   0.000000
    13  C   -0.000002   0.000000   0.000000   0.000000   0.000000   0.000000
    14  C   -0.000017   0.000000   0.000000   0.000000   0.000000   0.000000
    15  H    0.000000   0.000000   0.000000   0.000000   0.000000   0.000000
    16  O    0.000000   0.000000   0.000000   0.000000   0.000000   0.000000
    17  O   -0.000102   0.000000   0.000000   0.000000   0.000000   0.000000
    18  C    0.000002   0.000000   0.000000   0.000000   0.000000   0.000000
    19  H    0.000005   0.000000   0.000000   0.000000   0.000000   0.000000
    20  H    0.000000   0.000000   0.000000   0.000000   0.000000   0.000000
    21  H    0.000000   0.000000   0.000000   0.000000   0.000000   0.000000
    22  F    0.000000   0.000000   0.000000   0.000000   0.000000   0.000000
    23  F    0.000000   0.000000   0.000000   0.000000   0.000000   0.000000
    24  F   -0.034359   0.000034   0.000027   0.000001   0.000000  -0.000001
    25  F    9.146672  -0.000037   0.000018   0.000000   0.000000   0.000000
    26  C   -0.000037   4.286899   0.579553   0.375188  -0.020575  -0.027842
    27  O    0.000018   0.579553   8.136615  -0.079115  -0.000029   0.002804
    28  C    0.000000   0.375188  -0.079115   5.297967   0.367495   0.360306
    29  H    0.000000  -0.020575  -0.000029   0.367495   0.477789  -0.020979
    30  H    0.000000  -0.027842   0.002804   0.360306  -0.020979   0.509938
    31  H    0.000000  -0.023222   0.000965   0.368691  -0.019522  -0.021883
              31
     1  N    0.003378
     2  H   -0.000056
     3  C   -0.000103
     4  H   -0.000020
     5  C    0.000011
     6  C    0.000000
     7  H   -0.000001
     8  O    0.000000
     9  N    0.000000
    10  H    0.000000
    11  C    0.000000
    12  H    0.000000
    13  C    0.000000
    14  C    0.000000
    15  H    0.000000
    16  O    0.000000
    17  O    0.000000
    18  C    0.000000
    19  H    0.000000
    20  H    0.000000
    21  H    0.000000
    22  F    0.000000
    23  F    0.000000
    24  F    0.000000
    25  F    0.000000
    26  C   -0.023222
    27  O    0.000965
    28  C    0.368691
    29  H   -0.019522
    30  H   -0.021883
    31  H    0.481774
 Mulliken charges:
               1
     1  N   -0.664721
     2  H    0.398054
     3  C   -0.145520
     4  H    0.244541
     5  C    0.463609
     6  C    0.634186
     7  H    0.208924
     8  O   -0.549073
     9  N   -0.675685
    10  H    0.407958
    11  C   -0.156823
    12  H    0.259520
    13  C    0.476570
    14  C    0.657665
    15  H    0.199134
    16  O   -0.483376
    17  O   -0.494561
    18  C   -0.263900
    19  H    0.207962
    20  H    0.202097
    21  H    0.203539
    22  F   -0.294465
    23  F   -0.311535
    24  F   -0.302219
    25  F   -0.308160
    26  C    0.604534
    27  O   -0.553779
    28  C   -0.581495
    29  H    0.215928
    30  H    0.191104
    31  H    0.209988
 Sum of Mulliken charges =   0.00000
 Mulliken charges with hydrogens summed into heavy atoms:
               1
     1  N   -0.266667
     3  C    0.099021
     5  C    0.672533
     6  C    0.634186
     8  O   -0.549073
     9  N   -0.267727
    11  C    0.102697
    13  C    0.675704
    14  C    0.657665
    16  O   -0.483376
    17  O   -0.494561
    18  C    0.349697
    22  F   -0.294465
    23  F   -0.311535
    24  F   -0.302219
    25  F   -0.308160
    26  C    0.604534
    27  O   -0.553779
    28  C    0.035526
 Electronic spatial extent (au):  <R**2>=           6219.8563
 Charge=              0.0000 electrons
 Dipole moment (field-independent basis, Debye):
    X=              1.6017    Y=              1.0535    Z=              0.2938  Tot=              1.9395
 Quadrupole moment (field-independent basis, Debye-Ang):
   XX=           -112.5204   YY=           -100.4306   ZZ=           -111.9082
   XY=            -20.7041   XZ=            -12.5785   YZ=             -0.3007
 Traceless Quadrupole moment (field-independent basis, Debye-Ang):
   XX=             -4.2340   YY=              7.8558   ZZ=             -3.6218
   XY=            -20.7041   XZ=            -12.5785   YZ=             -0.3007
 Octapole moment (field-independent basis, Debye-Ang**2):
  XXX=             40.0856  YYY=             21.6142  ZZZ=             -2.0945  XYY=            -19.1160
  XXY=             11.5415  XXZ=            -23.6708  XZZ=            -19.9227  YZZ=              0.2714
  YYZ=             10.0137  XYZ=            -10.3365
 Hexadecapole moment (field-independent basis, Debye-Ang**3):
 XXXX=          -5679.1402 YYYY=          -1275.5837 ZZZZ=           -431.8964 XXXY=           -334.9450
 XXXZ=           -369.2200 YYYX=             -0.6223 YYYZ=            -18.0684 ZZZX=            -32.5782
 ZZZY=             -5.8673 XXYY=          -1029.3177 XXZZ=          -1095.7146 YYZZ=           -295.8307
 XXYZ=             -7.5105 YYXZ=            -16.7967 ZZXY=             -2.6152
 N-N= 1.617017317998D+03 E-N=-5.961075659698D+03  KE= 1.150897777235D+03
 No NMR shielding tensors so no spin-rotation constants.
 Leave Link  601 at Mon Dec 30 11:33:40 2019, MaxMem=  4294967296 cpu:              19.7 elap:               1.6
 (Enter /n/sw/g16_nehalem/g16/l701.exe)
 ... and contract with generalized density number  0.
 Compute integral first derivatives.
 D1PCM: PCM CHGder 1st derivatives, ID1Alg=3 FixD1E=F DoIter=F DoCFld=F I1PDM=0.
 GePol: Maximum number of non-zero 1st derivatives   =     333
 Leave Link  701 at Mon Dec 30 11:33:43 2019, MaxMem=  4294967296 cpu:              46.0 elap:               3.2
 (Enter /n/sw/g16_nehalem/g16/l702.exe)
 L702 exits ... SP integral derivatives will be done elsewhere.
 Leave Link  702 at Mon Dec 30 11:33:43 2019, MaxMem=  4294967296 cpu:               0.9 elap:               0.1
 (Enter /n/sw/g16_nehalem/g16/l703.exe)
 Integral derivatives from FoFJK, PRISM(SPDF).
 Compute integral first derivatives, UseDBF=F ICtDFT=           0.
 Calling FoFJK, ICntrl=      2127 FMM=F ISym2X=0 I1Cent= 0 IOpClX= 0 NMat=1 NMatS=1 NMatT=0.
 FoFJK:  IHMeth= 1 ICntrl=    2127 DoSepK=F KAlg= 0 I1Cent=           0 FoldK=F
 IRaf=         0 NMat=       1 IRICut=       1 DoRegI=T DoRafI=F ISym2E= 0 IDoP0=0 IntGTp=1.
 FoFCou: FMM=F IPFlag=           0 FMFlag=      100000 FMFlg1=         800
         NFxFlg=           0 DoJE=F BraDBF=F KetDBF=F FulRan=T
         wScrn=  0.000000 ICntrl=      2127 IOpCl=  0 I1Cent=           0 NGrid=           0
         NMat0=    1 NMatS0=      1 NMatT0=    0 NMatD0=    1 NMtDS0=    0 NMtDT0=    0
 Symmetry not used in FoFCou.
 Leave Link  703 at Mon Dec 30 11:33:49 2019, MaxMem=  4294967296 cpu:              74.0 elap:               5.1
 (Enter /n/sw/g16_nehalem/g16/l716.exe)
 Dipole        = 6.30145759D-01 4.14495648D-01 1.15598773D-01
 ***** Axes restored to original set *****
 -------------------------------------------------------------------
 Center     Atomic                   Forces (Hartrees/Bohr)
 Number     Number              X              Y              Z
 -------------------------------------------------------------------
      1        7           0.000000772   -0.000000555    0.000008181
      2        1           0.000000857    0.000001346    0.000004673
      3        6           0.000005384    0.000003500    0.000002941
      4        1          -0.000001848   -0.000000682    0.000002200
      5        6           0.000001408    0.000003789   -0.000000786
      6        6          -0.000004404   -0.000000313    0.000002994
      7        1           0.000001304    0.000000472    0.000003600
      8        8          -0.000001784    0.000000766    0.000001041
      9        7          -0.000000967   -0.000000369   -0.000005580
     10        1           0.000000080   -0.000000632   -0.000001878
     11        6           0.000001243    0.000000120   -0.000002247
     12        1           0.000001480   -0.000000860   -0.000003885
     13        6          -0.000001594    0.000000006   -0.000007992
     14        6           0.000001444   -0.000002777   -0.000005642
     15        1          -0.000002121   -0.000000946   -0.000001094
     16        8           0.000002785    0.000000063   -0.000009040
     17        8           0.000002020    0.000000461   -0.000006711
     18        6          -0.000000305   -0.000003560   -0.000009748
     19        1           0.000000044   -0.000003052   -0.000009263
     20        1           0.000002353   -0.000001915   -0.000010138
     21        1          -0.000000304   -0.000003351   -0.000010734
     22        9          -0.000000282   -0.000004057   -0.000003420
     23        9          -0.000005465   -0.000003003   -0.000003360
     24        9           0.000004647    0.000001385    0.000003300
     25        9          -0.000001566   -0.000001727    0.000000947
     26        6          -0.000002484    0.000004659    0.000014327
     27        8          -0.000001396   -0.000000167    0.000004121
     28        6          -0.000000943    0.000000326    0.000006445
     29        1          -0.000001799    0.000002362    0.000012672
     30        1           0.000000558    0.000003866    0.000010731
     31        1           0.000000882    0.000004845    0.000013346
 -------------------------------------------------------------------
 Cartesian Forces:  Max     0.000014327 RMS     0.000004505
[...]
 20554,0.00021585,0.00012697,-0.00011696,0.00003096,0.00003625,0.000073
 08,-0.00022570,-0.00008868,0.00048387,-0.00043931,0.00000664,-0.000018
 47,-0.00001269,0.00012900,-0.00014215,0.00018877,0.00020210,-0.0003053
 3,0.00006887,-0.00010069,-0.00000065,-0.00008117,-0.00004666,-0.000047
 26,0.00000303,0.00002380,-0.00000742,0.00002318,0.00000522,-0.00000882
 ,0.00001116,0.00002559,-0.00003334,0.00004974,-0.00004217,-0.00006168,
 0.00018544,0.03540995,0.02650158,-0.05762089,-0.11319891,-0.07816902,0
 .14575813,-0.30952633,0.00739738,-0.08063078,0.00508220,0.00416837,-0.
 00285061,-0.04686824,-0.01082180,-0.00460626,0.00410204,0.00226804,-0.
 00355034,-0.00003158,-0.00785946,-0.00158102,-0.00891550,-0.00350227,0
 .00165309,0.00032089,0.00044584,0.00076238,0.00739169,-0.00002745,-0.0
 0043040,0.00520259,0.00072139,-0.00068006,-0.00049781,-0.00039768,0.00
 046618,-0.00116217,0.00090943,-0.00069088,0.00000518,-0.00012521,-0.00
 001235,-0.00088312,0.00084170,0.00071445,-0.00111896,-0.00109464,-0.00
 007306,-0.00002477,0.00017575,0.00006007,0.00099704,0.00039354,0.00023
 909,0.00072766,0.00076550,-0.00018220,-0.00038886,-0.00044979,0.000107
 88,0.00000773,0.00003928,-0.00001146,0.00006085,0.00004232,0.00000289,
 0.00007590,0.00003390,0.00000528,0.00080366,-0.00064044,0.00003980,0.0
 0036448,-0.00009035,-0.00049121,0.00046738,0.00222463,0.00155841,0.003
 51848,0.00564200,-0.00121052,0.63728645,-0.01641081,-0.09775986,0.0387
 0521,0.02342716,-0.00200523,0.00410092,-0.01196475,0.00519276,-0.01231
 376,-0.00353600,0.00008531,0.00200463,-0.00784611,0.00438881,-0.000908
 65,-0.00015839,-0.00361088,0.00370027,-0.00082988,-0.00373177,-0.00109
 996,0.00168272,-0.00001596,-0.00026168,-0.00209163,0.00083196,-0.00058
 448,0.00016498,0.00029486,-0.00015995,-0.00001344,-0.00031858,0.000329
 74,-0.00001818,0.00003531,-0.00001390,0.00017579,-0.00008442,-0.000239
 35,0.00016830,0.00047604,-0.00013206,-0.00000639,-0.00001871,0.0000040
 4,-0.00020274,-0.00016609,-0.00001436,-0.00011110,-0.00029697,0.000108
 78,0.00007183,0.00012385,-0.00003429,-0.00000970,-0.00001896,0.0000096
 5,-0.00002060,-0.00001067,0.00000138,-0.00001781,-0.00001628,-0.000003
 03,-0.00015805,0.00010945,0.00001478,-0.00008671,-0.00002714,0.0001517
 9,0.00125413,-0.00107101,0.00098714,0.00103126,-0.00238041,0.00023764,
 0.03897307,0.59062620,-0.07730619,0.05414940,-0.12315261,-0.01614662,-
 0.00514938,-0.01416969,0.00325265,-0.01090000,0.01448864,0.00631575,0.
 00180209,-0.00166207,0.00388718,-0.00799529,0.00025091,-0.00026706,0.0
 0332009,-0.00427031,0.00048785,0.00260801,0.00166140,0.00211760,0.0003
 3540,0.00023302,0.00521054,-0.00107264,0.00077378,-0.00038104,-0.00045
 800,0.00056935,-0.00036245,0.00097519,-0.00065831,0.00000942,-0.000074
 56,-0.00000003,-0.00048491,0.00062873,0.00079769,-0.00063870,-0.001075
 04,0.00014302,-0.00001008,0.00006304,0.00003127,0.00072050,0.00037202,
 0.00012168,0.00044983,0.00064250,-0.00023088,-0.00025521,-0.00032422,0
 .00010055,0.00001131,0.00004257,-0.00000673,0.00004443,0.00003232,-0.0
 0000711,0.00005921,0.00002837,0.00000575,0.00047558,-0.00043636,-0.000
 05831,0.00023484,-0.00004245,-0.00049441,-0.00086874,0.00163234,-0.000
 11621,0.00173171,0.00473429,-0.00103697,0.09336677,-0.37220236,0.65811
 848,-0.01231831,0.04128854,-0.05712311,-0.00536471,-0.00293353,-0.0016
 3449,0.00398409,0.00541530,-0.00169755,0.00035165,0.00000153,-0.000999
 70,0.00222631,0.00187311,0.00175580,0.00474081,-0.00039165,-0.00174757
 ,-0.00167085,0.00013043,-0.00078131,-0.00334557,0.00137654,-0.00027578
 ,-0.00197311,-0.00017211,0.00030629,0.00019146,0.00015866,-0.00016173,
 0.00051029,-0.00030571,0.00036442,0.00000859,0.00006203,0.00000389,0.0
 0032391,-0.00035387,-0.00025905,0.00046276,0.00040942,0.00005953,0.000
 01168,-0.00007544,-0.00003067,-0.00039970,-0.00014791,-0.00010782,-0.0
 0029381,-0.00028852,0.00005129,0.00015581,0.00017516,-0.00003649,-0.00
 000248,-0.00001244,0.00000596,-0.00002495,-0.00001579,-0.00000318,-0.0
 0002849,-0.00001324,-0.00000228,-0.00033046,0.00026856,-0.00002255,-0.
 00014080,0.00004574,0.00017166,-0.00090876,-0.00046681,-0.00137221,-0.
 00124773,-0.00128766,0.00041654,-0.11455789,0.03622978,-0.04963410,0.1
 1672539,0.04159237,-0.00152642,0.04388746,0.00000030,0.00596288,0.0013
 0838,-0.00675286,-0.00613718,0.00049318,0.00236490,0.00011395,-0.00148
 110,0.00455375,-0.00514268,0.00032725,-0.00157365,-0.00087064,-0.00015
 622,-0.00029597,0.00230904,0.00060016,0.00160331,0.00079823,-0.0007515
 5,0.00164305,0.00020493,0.00000198,-0.00000682,-0.00031294,0.00011034,
 -0.00016461,0.00030542,-0.00017931,-0.00000682,-0.00003409,-0.00000372
 ,-0.00023419,0.00009752,0.00022771,-0.00022090,-0.00046379,0.00009332,
 -0.00000322,0.00004691,0.00001663,0.00020870,0.00015871,0.00001513,0.0
 0013952,0.00032147,-0.00010728,-0.00008111,-0.00013479,0.00003904,0.00
 001060,0.00001929,-0.00001050,0.00002189,0.00001207,-0.00000099,0.0000
 1896,0.00001714,0.00000243,0.00017552,-0.00011190,-0.00000652,0.000101
 66,0.00002248,-0.00016249,-0.00143507,0.00122189,-0.00148713,-0.000898
 09,0.00193376,0.00006813,0.02429613,-0.35571401,0.30402352,-0.05651361
 ,0.37373103,-0.05386301,0.04048431,-0.04754740,-0.00459144,-0.00010067
 ,0.00674899,0.00990943,0.00230181,-0.00485792,-0.00361824,-0.00093373,
 0.00108054,-0.00119950,0.00267946,-0.00018926,0.00245629,0.00153471,-0
 .00012203,-0.00106093,-0.00110936,-0.00125523,-0.00317559,-0.00089759,
 0.00061248,-0.00243765,-0.00019783,0.00030303,0.00013244,0.00018324,-0
 .00036298,0.00036505,-0.00042917,0.00028261,0.00001595,0.00004005,0.00
 000863,0.00029336,-0.00029516,-0.00049539,0.00037826,0.00055968,-0.000
 07797,0.00001029,-0.00005028,-0.00003220,-0.00035942,-0.00019119,-0.00
 004378,-0.00025787,-0.00037123,0.00015434,0.00014139,0.00018440,-0.000
 06609,-0.00000626,-0.00002732,0.00000089,-0.00002339,-0.00001943,0.000
 00699,-0.00003555,-0.00001524,-0.00000329,-0.00025448,0.00021991,0.000
 04524,-0.00014449,0.00000471,0.00032235,0.00001078,-0.00054071,-0.0002
 9852,-0.00174386,-0.00263933,0.00094211,-0.03672206,0.31175377,-0.4285
 3691,0.08852938,-0.38455689,0.48428281,-0.03358379,-0.02185926,0.00688
 560,-0.00027040,-0.00042350,0.00144319,-0.00020289,0.00015802,-0.00431
 132,0.00013900,0.00000513,0.00011908,-0.00045940,0.00089762,0.00060810
 ,0.00043510,-0.00109797,0.00066655,-0.00004588,-0.00014112,-0.00001884
 ,-0.00029658,0.00031407,-0.00025972,-0.00080731,0.00026894,-0.00013151
 ,0.00009686,0.00004879,-0.00007520,0.00009963,-0.00013252,0.00016514,-
 0.00000463,0.00001593,-0.00000004,0.00009328,-0.00012087,-0.00008430,0
 .00013422,0.00014215,0.00001096,0.00000111,-0.00001458,-0.00000181,-0.
 00013525,-0.00005141,-0.00003869,-0.00008715,-0.00008375,0.00001453,0.
 00004684,0.00005099,-0.00000930,-0.00000075,-0.00000376,0.00000127,-0.
 00000728,-0.00000475,-0.00000077,-0.00000853,-0.00000380,-0.00000080,-
 0.00010364,0.00009013,-0.00000746,-0.00003979,0.00001571,0.00004957,-0
 .00006112,-0.00021267,-0.00034480,-0.00036653,-0.00074602,0.00009846,-
 0.16557765,-0.04955741,0.02497778,0.01296262,-0.00400409,0.00497441,0.
 54869041,-0.00385672,0.00916701,0.00140484,0.00004302,-0.00101858,-0.0
 0181894,0.00155363,0.00512028,0.00432142,-0.00075584,-0.00041832,-0.00
 007841,0.00134682,0.00008955,-0.00032463,0.00020822,0.00008536,0.00019
 586,0.00003077,0.00008208,0.00003631,-0.00016786,0.00009219,0.00003716
 ,-0.00012881,-0.00001836,-0.00007190,0.00001561,0.00002732,0.00001857,
 0.00005636,-0.00006737,-0.00001591,-0.00000409,0.00000299,-0.00000198,
 0.00003128,-0.00004726,-0.00000772,0.00003621,0.00002167,0.00000761,0.
 00000095,-0.00000490,-0.00000101,-0.00003900,-0.00000765,-0.00001000,-
 0.00002533,-0.00001129,-0.00000128,0.00001412,0.00001072,-0.00000277,0
 .00000061,0.00000014,-0.00000020,-0.00000064,-0.00000083,-0.00000030,-
 0.00000190,0.00000026,0.00000017,-0.00002419,0.00002325,-0.00000370,-0
 .00000924,0.00001139,0.00000799,-0.00013647,0.00000426,-0.00008088,0.0
 0005017,0.00039044,0.00000418,-0.05327891,-0.12493275,0.01949626,-0.01
 962002,-0.01613232,0.02861640,-0.04687778,0.55073965,-0.01230782,-0.00
 486396,0.01126712,-0.00061129,-0.00088347,-0.00057350,-0.00358158,0.00
 360298,0.00130593,-0.00084719,-0.00001961,-0.00027393,0.00044808,0.000
 94232,-0.00009910,-0.00023856,-0.00106735,0.00107409,0.00003265,-0.000
 30378,-0.00023040,-0.00005178,0.00023905,-0.00018418,-0.00058889,0.000
 27841,-0.00025683,0.00005066,0.00007604,-0.00003126,0.00000518,-0.0001
 3164,0.00007536,-0.00000769,0.00000867,-0.00000053,0.00004375,-0.00007
 351,-0.00004534,0.00005428,0.00010740,-0.00001012,0.00000034,-0.000004
 08,0.00000168,-0.00007789,-0.00003738,-0.00001990,-0.00003823,-0.00005
 218,0.00001195,0.00002125,0.00002685,-0.00000566,-0.00000130,-0.000003
 12,0.00000105,-0.00000429,-0.00000290,-0.00000007,-0.00000444,-0.00000
 276,-0.00000041,-0.00004904,0.00004729,-0.00000291,-0.00001690,0.00000
 977,0.00002500,0.00007871,-0.00012872,-0.00001108,0.00008154,-0.000057
 88,0.00001536,0.03464319,0.02316539,-0.10198820,0.02174621,0.03501292,
 -0.00950884,0.02985440,-0.01262360,0.58997942,-0.00272526,-0.00037108,
 0.00217262,0.00007804,-0.00061316,-0.00037899,-0.00063229,0.00129266,0
 .00065108,-0.00026552,-0.00011579,-0.00001173,0.00026400,0.00039180,0.
 00002705,0.00010037,-0.00037652,0.00032322,0.00001294,-0.00000848,-0.0
 0001513,-0.00012149,0.00017251,-0.00004547,-0.00026044,0.00009931,-0.0
 0007625,0.00002927,0.00001566,-0.00002242,0.00002464,-0.00005056,0.000
 02894,-0.00000297,0.00000338,-0.00000036,-0.00000201,-0.00005779,-0.00
 004186,0.00002315,0.00003480,0.00000052,0.00000187,0.00000087,-0.00000
 234,-0.00003481,-0.00001165,-0.00000869,-0.00001841,-0.00001376,0.0000
 0415,0.00000952,0.00000952,-0.00000338,-0.00000002,-0.00000113,-0.0000
 0021,-0.00000146,-0.00000120,0.00000034,-0.00000245,-0.00000076,-0.000
 00015,-0.00001360,0.00002661,0.00000624,-0.00000325,0.00001250,0.00002
 050,-0.00003098,-0.00006072,-0.00008919,-0.00007111,-0.00008592,0.0000
 3339,-0.00480727,-0.02065313,-0.02058984,0.00038354,0.00247695,0.00162
 580,-0.05145933,-0.03661447,-0.03203377,0.05514904,-0.00057824,-0.0002
 8140,0.00118767,-0.00005455,-0.00007677,0.00008225,-0.00036857,0.00033
 882,0.00000707,-0.00003649,-0.00001418,-0.00006935,0.00016021,0.000176
 98,0.00004081,0.00007334,-0.00013974,0.00013008,0.00000977,0.00000849,
 -0.00001092,-0.00007033,0.00004031,-0.00002324,-0.00014009,0.00003624,
 -0.00002002,0.00001451,0.00001052,-0.00001376,0.00001587,-0.00002820,0
 .00001798,-0.00000125,0.00000291,-0.00000023,0.00001363,-0.00001843,-0
 .00002466,0.00002058,0.00002826,-0.00000279,0.00000047,-0.00000154,-0.
 00000136,-0.00002207,-0.00000990,-0.00000410,-0.00001440,-0.00001650,0
 .00000589,0.00000828,0.00000914,-0.00000279,0.,-0.00000115,-0.00000004
 ,-0.00000115,-0.00000095,0.00000018,-0.00000187,-0.00000049,-0.0000001
 6,-0.00001379,0.00001253,0.00000220,-0.00000722,0.00000132,0.00001536,
 -0.00002356,-0.00002608,-0.00005107,-0.00005509,-0.00005148,0.00002425
 ,-0.00173080,-0.01467289,-0.01332146,-0.00080118,0.00202137,0.00262196
 ,-0.03479176,-0.19522967,-0.13571000,0.03958036,0.20766953,0.00062728,
 -0.00035896,0.00001379,0.00028123,-0.00018342,-0.00016105,0.00015262,-
 0.00035454,-0.00003675,-0.00002796,-0.00001206,0.00003494,-0.00009097,
 -0.00007985,-0.00008523,-0.00002871,0.00005569,-0.00008502,-0.00001623
 ,-0.00003463,-0.00001201,0.00004052,0.00000041,0.00003035,0.00008160,-
 0.00001110,0.00001979,-0.00000576,-0.00000903,0.00000348,-0.00000486,0
 .00001838,-0.00001201,0.00000081,-0.00000341,-0.00000097,-0.00001359,0
 .00000065,0.00000840,-0.00001298,-0.00002070,0.00000039,0.00000028,0.0
 0000234,0.00000107,0.00001335,0.00000777,0.00000407,0.00000794,0.00001
 296,-0.00000223,-0.00000464,-0.00000618,0.00000031,0.00000027,0.000000
 49,-0.00000045,0.00000128,0.00000050,0.00000022,0.00000082,0.00000077,
 0.00000030,0.00001004,-0.00000494,0.00000089,0.00000517,0.00000226,-0.
 00000608,0.00001893,0.00001629,0.00008081,0.00003404,0.00002300,0.0000
 0142,-0.00017634,0.01062249,0.00949134,0.00051899,-0.00053896,-0.00179
 000,-0.03030154,-0.13389383,-0.16971463,0.03297903,0.14688672,0.180277
 99,-0.00104484,0.00028823,-0.00103275,-0.00129891,-0.00049819,0.000275
 98,0.00070258,0.00018415,0.00000937,0.00012792,-0.00004525,0.00006955,
 0.00015516,-0.00004808,0.00001867,0.00008269,-0.00003458,0.00000145,0.
 00001905,0.00010868,0.00005330,-0.00003669,0.00008620,-0.00006160,0.00
 005458,0.00001935,-0.00000985,0.00000821,-0.00000918,0.00000568,0.0000
 0032,0.00000759,-0.00000633,-0.00000157,-0.00000111,-0.00000019,-0.000
 00686,-0.00000049,0.00000685,-0.00000448,-0.00001336,0.00000310,0.0000
 0047,0.00000125,0.00000032,0.00000401,0.00000457,0.00000040,0.00000249
 ,0.00000937,-0.00000298,-0.00000104,-0.00000284,0.00000053,0.00000054,
 0.00000057,-0.00000041,0.00000063,0.00000024,-0.00000005,0.00000030,0.
 00000059,0.00000019,0.00000401,-0.00000186,-0.00000021,0.00000262,0.00
 000185,-0.00000465,-0.00004862,0.00000572,-0.00006085,-0.00004835,0.00
 001954,0.00001296,0.01071943,-0.00617563,0.02370308,-0.00415660,-0.006
 26229,0.00248607,-0.06626644,0.02661967,-0.05632229,-0.00206306,0.0027
 9066,-0.00383724,0.06661242,0.00041326,0.00058862,-0.00162153,-0.00085
 172,0.00019575,0.00029786,0.00011723,-0.00002969,-0.00024422,0.0001877
 2,0.00002760,-0.00002232,0.00004177,-0.00004261,0.00014957,0.00002180,
 0.00000284,-0.00000925,0.00000869,0.00007886,0.00004128,-0.00002630,-0
 .00000833,-0.00004804,0.00001072,-0.00000816,-0.00000406,-0.00000126,0
 .00000197,0.00000950,0.00000018,-0.00000085,0.00000475,-0.00000043,0.0
 0000329,0.00000131,0.00000519,0.00001304,0.00001125,0.00000256,0.00000
 175,0.00000516,-0.00000043,-0.00000169,-0.00000046,-0.00000088,-0.0000
 0152,-0.00000374,0.00000010,-0.00000190,-0.00000387,0.00000004,0.00000
 073,0.00000254,-0.00000018,0.00000040,0.00000073,-0.00000090,0.0000000
 8,-0.00000071,0.00000037,-0.00000050,-0.00000025,-0.00000290,-0.000003
 00,-0.00000350,-0.00000082,-0.00000354,-0.00000663,-0.00002314,-0.0000
 0067,-0.00012128,-0.00001537,0.00001347,-0.00001975,0.01061985,-0.0083
 2384,0.01580079,-0.00541394,-0.00263594,0.00269799,0.02408463,-0.09406
 428,0.10181583,-0.00519879,0.01248335,-0.02172512,-0.02551440,0.098387
 43,-0.00063298,-0.00054287,0.00082695,0.00073959,-0.00033663,0.0004169
 8,0.00013914,-0.00005359,0.00029582,-0.00011775,-0.00003709,0.00005079
 ,-0.00012120,0.00005257,-0.00003928,-0.00001060,0.00015027,-0.00007378
 ,-0.00000261,-0.00008563,-0.00003000,0.00001326,-0.00011806,0.00004699
 ,-0.00000790,-0.00003627,0.00002721,-0.00000858,0.00000844,-0.00000279
 ,-0.00000426,0.00000064,-0.00000355,0.00000097,0.00000131,0.00000045,0
 .00000895,0.00001893,-0.00000983,0.00000117,0.00001541,-0.00000882,-0.
 00000059,-0.00000109,-0.00000149,0.00000229,-0.00000525,0.00000402,0.0
 0000005,-0.00001310,0.00000660,0.00000079,0.00000341,-0.00000134,-0.00
 000047,-0.00000086,0.00000035,-0.00000055,-0.00000020,0.00000025,-0.00
 000034,-0.00000055,-0.00000018,-0.00000026,-0.00000618,0.00000208,-0.0
 0000422,-0.00000741,0.00000873,0.00004185,-0.00000368,0.00006013,0.000
 06157,-0.00000947,-0.00001133,-0.00677657,0.00060334,-0.00869338,0.002
 52133,0.00217677,0.00024223,-0.05211735,0.10318731,-0.27055799,-0.0038
 7347,0.00955816,-0.01655577,0.05956189,-0.11217720,0.28898273,-0.00277
 994,-0.00353356,0.00222062,0.00044191,-0.00004701,0.00050778,-0.000307
 70,-0.00039974,-0.00113973,0.00006173,0.00000327,0.00003622,-0.0002851
 1,0.00038597,0.00024991,0.00017448,-0.00027936,0.00013892,-0.00000704,
 -0.00002594,0.00000788,-0.00014277,0.00006285,-0.00005557,-0.00027182,
 0.00006110,-0.00002604,0.00002837,0.00002166,-0.00002426,0.00003060,-0
 .00004005,0.00005218,-0.00000115,0.00000641,0.00000029,0.00003119,-0.0
 0003351,-0.00002847,0.00004412,0.00005561,0.00000127,0.00000030,-0.000
 00561,-0.00000143,-0.00004311,-0.00002001,-0.00001167,-0.00002831,-0.0
 0003527,0.00000666,0.00001564,0.00001952,-0.00000319,-0.00000060,-0.00
 000167,0.00000122,-0.00000327,-0.00000171,-0.00000059,-0.00000297,-0.0
 0000199,-0.00000034,-0.00003365,0.00002736,-0.00000204,-0.00001381,0.0
 0000291,0.00001702,0.00000194,-0.00009636,-0.00013909,-0.00010375,-0.0
 0026834,0.00001514,-0.02277350,0.01668944,-0.00011109,0.00372531,-0.00
 075433,-0.00183515,-0.24291473,0.13153383,0.01972272,0.00643938,-0.003
 97530,-0.00025336,-0.00351997,0.00153735,0.00058684,0.26223827,-0.0022
 0606,-0.00242875,0.00081079,-0.00010374,-0.00006590,0.00027243,-0.0005
 7653,-0.00044405,-0.00083024,0.00007154,0.00003147,-0.00003364,-0.0001
 5276,0.00020306,0.00013069,0.00004261,-0.00028583,0.00011183,0.0000010
 8,0.00000053,0.00001440,-0.00005973,0.00010571,-0.00006234,-0.00013044
 ,0.00007017,-0.00002349,0.00001611,0.00000551,-0.00001312,0.00000849,-
 0.00001478,0.00002881,-0.00000064,0.00000213,0.00000006,-0.00000175,-0
 .00002613,-0.00001372,0.00001167,0.00001687,0.00000248,0.00000066,-0.0
 0000016,-0.00000037,-0.00001577,-0.00000585,-0.00000559,-0.00000822,-0
 .00000755,0.00000039,0.00000386,0.00000500,-0.00000077,-0.00000026,-0.
 00000031,0.00000033,-0.00000115,-0.00000052,-0.00000008,-0.00000092,-0
 .00000082,-0.00000015,-0.00000898,0.00001418,0.00000078,-0.00000111,0.
 00000579,0.00000482,0.00000318,-0.00004947,-0.00007982,-0.00005491,-0.
 00014494,0.00001043,-0.01993931,0.01301190,0.00236481,0.00137865,-0.00
 008139,-0.00150726,0.13403491,-0.13391497,-0.00936697,0.02011798,-0.01
 227040,-0.00041398,0.00845904,-0.00667265,-0.00234144,-0.14088751,0.14
 294216,0.00067809,0.00118122,0.00001803,0.00031875,-0.00001005,0.00006
 345,0.00003176,-0.00008683,0.00028688,0.00003824,-0.00000488,0.0000422
 2,-0.00003051,-0.00007340,0.00003631,-0.00006033,0.00012171,-0.0000661
 7,-0.00001116,-0.00003161,-0.00000038,0.00004280,-0.00005544,0.0000389
 4,0.00006963,-0.00003022,0.00000906,-0.00001195,-0.00000155,0.00000931
 ,-0.00001354,0.00001142,-0.00001535,0.00000066,-0.00000028,0.00000067,
 -0.00001040,0.00001729,0.00000939,-0.00001454,-0.00000991,-0.00000102,
 -0.00000014,0.00000131,-0.00000052,0.00001420,0.00000345,0.00000312,0.
 00001016,0.00000585,-0.00000238,-0.00000547,-0.00000513,0.00000214,-0.
 00000026,0.00000049,0.00000042,0.00000023,0.00000062,-0.00000021,0.000
 00115,-0.00000006,-0.00000007,0.00001156,-0.00001104,0.00000071,0.0000
 0447,-0.00000313,-0.00000609,0.00001900,0.00002712,0.00001662,0.000070
 51,0.00005618,-0.00002935,0.00705664,-0.00853313,-0.00170475,-0.000561
 70,0.00103833,0.00015457,0.01783443,-0.00839700,-0.05024208,0.01932038
 ,-0.01132461,-0.00150736,-0.02486999,0.01517336,0.00501723,-0.01993267
 ,0.01093993,0.04786668\\-0.00000068,0.00000053,-0.00000813,-0.00000089
 ,-0.00000135,-0.00000467,-0.00000532,-0.00000351,-0.00000288,0.0000018
 4,0.00000068,-0.00000220,-0.00000140,-0.00000380,0.00000076,0.00000442
 ,0.00000046,-0.00000310,-0.00000129,-0.00000047,-0.00000359,0.00000179
 ,-0.00000078,-0.00000103,0.00000084,0.00000029,0.00000564,-0.00000006,
 0.00000063,0.00000188,-0.00000130,-0.00000009,0.00000222,-0.00000148,0
 .00000086,0.00000389,0.00000167,-0.00000004,0.00000801,-0.00000123,0.0
 0000266,0.00000580,0.00000211,0.00000095,0.00000109,-0.00000290,-0.000
 00004,0.00000897,-0.00000206,-0.00000038,0.00000664,0.00000034,0.00000
 357,0.00000975,-0.00000005,0.00000305,0.00000926,-0.00000236,0.0000019
 0,0.00001014,0.00000029,0.00000335,0.00001074,0.00000026,0.00000407,0.
 00000342,0.00000545,0.00000302,0.00000334,-0.00000465,-0.00000139,-0.0
 0000331,0.00000154,0.00000171,-0.00000093,0.00000249,-0.00000457,-0.00
 001443,0.00000138,0.00000015,-0.00000411,0.00000089,-0.00000038,-0.000
 00642,0.00000180,-0.00000237,-0.00001268,-0.00000055,-0.00000387,-0.00
 001072,-0.00000088,-0.00000484,-0.00001335\\\@


 In the beginning there was nothing, which exploded.
 Job cpu time:       0 days  1 hours 48 minutes 24.1 seconds.
 Elapsed time:       0 days  0 hours  6 minutes 53.5 seconds.
 File lengths (MBytes):  RWF=    474 Int=      0 D2E=      0 Chk=     17 Scr=      1
 Normal termination of Gaussian 16 at Mon Dec 30 11:40:53 2019.
