 Entering Gaussian System, Link 0=g16
 Input=conformer_final_05.gjf
 Output=conformer_final_05.out
 Initial command:
 /n/sw/g16_nehalem/g16/l1.exe "/scratch/cwagen_conformer_final_05/Gau-323708.inp" -scrdir="/scratch/cwagen_conformer_final_05/"
 Entering Link 1 = /n/sw/g16_nehalem/g16/l1.exe PID=    323710.
  
 Copyright (c) 1988,1990,1992,1993,1995,1998,2003,2009,2016,
            Gaussian, Inc.  All Rights Reserved.
  
 This is part of the Gaussian(R) 16 program.  It is based on
 the Gaussian(R) 09 system (copyright 2009, Gaussian, Inc.),
 the Gaussian(R) 03 system (copyright 2003, Gaussian, Inc.),
 the Gaussian(R) 98 system (copyright 1998, Gaussian, Inc.),
 the Gaussian(R) 94 system (copyright 1995, Gaussian, Inc.),
 the Gaussian 92(TM) system (copyright 1992, Gaussian, Inc.),
 the Gaussian 90(TM) system (copyright 1990, Gaussian, Inc.),
 the Gaussian 88(TM) system (copyright 1988, Gaussian, Inc.),
 the Gaussian 86(TM) system (copyright 1986, Carnegie Mellon
 University), and the Gaussian 82(TM) system (copyright 1983,
 Carnegie Mellon University). Gaussian is a federally registered
 trademark of Gaussian, Inc.
  
 This software contains proprietary and confidential information,
 including trade secrets, belonging to Gaussian, Inc.
  
 This software is provided under written license and may be
 used, copied, transmitted, or stored only in accord with that
 written license.
  
 The following legend is applicable only to US Government
 contracts under FAR:
  
                    RESTRICTED RIGHTS LEGEND
  
 Use, reproduction and disclosure by the US Government is
 subject to restrictions as set forth in subparagraphs (a)
 and (c) of the Commercial Computer Software - Restricted
 Rights clause in FAR 52.227-19.
  
 Gaussian, Inc.
 340 Quinnipiac St., Bldg. 40, Wallingford CT 06492
  
  
 ---------------------------------------------------------------
 Warning -- This program may not be used in any manner that
 competes with the business of Gaussian, Inc. or will provide
 assistance to any competitor of Gaussian, Inc.  The licensee
 of this program is prohibited from giving any competitor of
 Gaussian, Inc. access to this program.  By using this program,
 the user acknowledges that Gaussian, Inc. is engaged in the
 business of creating and licensing software in the field of
 computational chemistry and represents and warrants to the
 licensee that it is not a competitor of Gaussian, Inc. and that
 it will not use this program in any manner prohibited above.
 ---------------------------------------------------------------
  

 Cite this work as:
 Gaussian 16, Revision A.03,
 M. J. Frisch, G. W. Trucks, H. B. Schlegel, G. E. Scuseria, 
 M. A. Robb, J. R. Cheeseman, G. Scalmani, V. Barone, 
 G. A. Petersson, H. Nakatsuji, X. Li, M. Caricato, A. V. Marenich, 
 J. Bloino, B. G. Janesko, R. Gomperts, B. Mennucci, H. P. Hratchian, 
 J. V. Ortiz, A. F. Izmaylov, J. L. Sonnenberg, D. Williams-Young, 
 F. Ding, F. Lipparini, F. Egidi, J. Goings, B. Peng, A. Petrone, 
 T. Henderson, D. Ranasinghe, V. G. Zakrzewski, J. Gao, N. Rega, 
 G. Zheng, W. Liang, M. Hada, M. Ehara, K. Toyota, R. Fukuda, 
 J. Hasegawa, M. Ishida, T. Nakajima, Y. Honda, O. Kitao, H. Nakai, 
 T. Vreven, K. Throssell, J. A. Montgomery, Jr., J. E. Peralta, 
 F. Ogliaro, M. J. Bearpark, J. J. Heyd, E. N. Brothers, K. N. Kudin, 
 V. N. Staroverov, T. A. Keith, R. Kobayashi, J. Normand, 
 K. Raghavachari, A. P. Rendell, J. C. Burant, S. S. Iyengar, 
 J. Tomasi, M. Cossi, J. M. Millam, M. Klene, C. Adamo, R. Cammi, 
 J. W. Ochterski, R. L. Martin, K. Morokuma, O. Farkas, 
 J. B. Foresman, and D. J. Fox, Gaussian, Inc., Wallingford CT, 2016.
 
 ******************************************
 Gaussian 16:  ES64L-G16RevA.03 25-Dec-2016
                30-Dec-2019 
 ******************************************
 %nprocshared=16
 Will use up to   16 processors via shared memory.
 %mem=32GB
 ------------------------------------------------------------------
 #p opt freq=noraman m062x/6-31g(d) scrf=(smd,solvent=diethylether)
 ------------------------------------------------------------------
 1/18=20,19=15,26=3,38=1/1,3;
 2/9=110,12=2,17=6,18=5,40=1/2;
 3/5=1,6=6,7=1,11=2,25=1,30=1,70=32201,71=1,72=8,74=-55/1,2,3;
 4//1;
 5/5=2,38=5,53=8/2;
 6/7=2,8=2,9=2,10=2,28=1/1;
 7//1,2,3,16;
 1/18=20,19=15,26=3/3(2);
 2/9=110/2;
 99//99;
 2/9=110/2;
 3/5=1,6=6,7=1,11=2,25=1,30=1,70=32205,71=1,72=8,74=-55/1,2,3;
 4/5=5,16=3,69=1/1;
 5/5=2,38=5,53=8/2;
 7//1,2,3,16;
 1/18=20,19=15,26=3/3(-5);
 2/9=110/2;
 6/7=2,8=2,9=2,10=2,19=2,28=1/1;
 99/9=1/99;
 Leave Link    1 at Mon Dec 30 11:32:51 2019, MaxMem=  4294967296 cpu:               1.1 elap:               0.1
 (Enter /n/sw/g16_nehalem/g16/l101.exe)
 -----
 title
 -----
 Symbolic Z-matrix:
 Charge =  0 Multiplicity = 1
 7                     1.19257   0.79138   0.35988 
 1                     1.45595   0.95663   1.32477 
 6                     1.52866  -0.5016   -0.19377 
 1                     1.37663  -0.435    -1.27666 
 6                     2.99845  -0.7949    0.05984 
 6                     0.66928  -1.62995   0.38238 
 1                     3.31385  -1.79099  -0.25043 
 8                     1.17593  -2.58181   0.94987 
 7                    -0.67708  -1.53019   0.19656 
 1                    -1.21997  -2.20503   0.72823 
 6                    -1.39332  -0.39738  -0.3338 
 1                    -0.83648   0.07836  -1.14791 
 6                    -2.6994   -0.91735  -0.9235 
 6                    -1.6971    0.69683   0.6945 
 1                    -2.53432  -1.668    -1.6998 
 8                    -2.03851   1.81089   0.38178 
 8                    -1.55712   0.27056   1.94711 
 6                    -1.81419   1.25732   2.95318 
 1                    -1.65258   0.75691   3.90654 
 1                    -1.12492   2.09793   2.84018 
 1                    -2.84192   1.61822   2.87828 
 9                    -3.42607   0.10356  -1.42436 
 9                    -3.42623  -1.48343   0.08324 
 9                     3.73945   0.13782  -0.5959 
 9                     3.25935  -0.63889   1.38723 
 6                     0.96867   1.87336  -0.45668 
 8                     0.79266   1.7403   -1.65738 
 6                     0.88539   3.20744   0.2405 
 1                    -0.1532    3.54701   0.20485 
 1                     1.21709   3.16494   1.28 
 1                     1.4991    3.92569  -0.30777 
 
 ITRead=  0  0  0  0  0  0  0  0  0  0  0  0  0  0  0  0  0  0  0  0
 ITRead=  0  0  0  0  0  0  0  0  0  0  0
 MicOpt= -1 -1 -1 -1 -1 -1 -1 -1 -1 -1 -1 -1 -1 -1 -1 -1 -1 -1 -1 -1
 MicOpt= -1 -1 -1 -1 -1 -1 -1 -1 -1 -1 -1
 NAtoms=     31 NQM=       31 NQMF=       0 NMMI=      0 NMMIF=      0
                NMic=       0 NMicF=      0.
                    Isotopes and Nuclear Properties:
 (Nuclear quadrupole moments (NQMom) in fm**2, nuclear magnetic moments (NMagM)
  in nuclear magnetons)

  Atom         1           2           3           4           5           6           7           8           9          10
 IAtWgt=          14           1          12           1          12          12           1          16          14           1
 AtmWgt=  14.0030740   1.0078250  12.0000000   1.0078250  12.0000000  12.0000000   1.0078250  15.9949146  14.0030740   1.0078250
 NucSpn=           2           1           0           1           0           0           1           0           2           1
 AtZEff=   0.0000000   0.0000000   0.0000000   0.0000000   0.0000000   0.0000000   0.0000000   0.0000000   0.0000000   0.0000000
 NQMom=    2.0440000   0.0000000   0.0000000   0.0000000   0.0000000   0.0000000   0.0000000   0.0000000   2.0440000   0.0000000
 NMagM=    0.4037610   2.7928460   0.0000000   2.7928460   0.0000000   0.0000000   2.7928460   0.0000000   0.4037610   2.7928460
 AtZNuc=   7.0000000   1.0000000   6.0000000   1.0000000   6.0000000   6.0000000   1.0000000   8.0000000   7.0000000   1.0000000

  Atom        11          12          13          14          15          16          17          18          19          20
 IAtWgt=          12           1          12          12           1          16          16          12           1           1
 AtmWgt=  12.0000000   1.0078250  12.0000000  12.0000000   1.0078250  15.9949146  15.9949146  12.0000000   1.0078250   1.0078250
 NucSpn=           0           1           0           0           1           0           0           0           1           1
 AtZEff=   0.0000000   0.0000000   0.0000000   0.0000000   0.0000000   0.0000000   0.0000000   0.0000000   0.0000000   0.0000000
 NQMom=    0.0000000   0.0000000   0.0000000   0.0000000   0.0000000   0.0000000   0.0000000   0.0000000   0.0000000   0.0000000
 NMagM=    0.0000000   2.7928460   0.0000000   0.0000000   2.7928460   0.0000000   0.0000000   0.0000000   2.7928460   2.7928460
 AtZNuc=   6.0000000   1.0000000   6.0000000   6.0000000   1.0000000   8.0000000   8.0000000   6.0000000   1.0000000   1.0000000

  Atom        21          22          23          24          25          26          27          28          29          30
 IAtWgt=           1          19          19          19          19          12          16          12           1           1
 AtmWgt=   1.0078250  18.9984033  18.9984033  18.9984033  18.9984033  12.0000000  15.9949146  12.0000000   1.0078250   1.0078250
 NucSpn=           1           1           1           1           1           0           0           0           1           1
 AtZEff=   0.0000000   0.0000000   0.0000000   0.0000000   0.0000000   0.0000000   0.0000000   0.0000000   0.0000000   0.0000000
 NQMom=    0.0000000   0.0000000   0.0000000   0.0000000   0.0000000   0.0000000   0.0000000   0.0000000   0.0000000   0.0000000
 NMagM=    2.7928460   2.6288670   2.6288670   2.6288670   2.6288670   0.0000000   0.0000000   0.0000000   2.7928460   2.7928460
 AtZNuc=   1.0000000   9.0000000   9.0000000   9.0000000   9.0000000   6.0000000   8.0000000   6.0000000   1.0000000   1.0000000

  Atom        31
 IAtWgt=           1
 AtmWgt=   1.0078250
 NucSpn=           1
 AtZEff=   0.0000000
 NQMom=    0.0000000
 NMagM=    2.7928460
 AtZNuc=   1.0000000
 Leave Link  101 at Mon Dec 30 11:32:52 2019, MaxMem=  4294967296 cpu:               8.0 elap:               0.6
 (Enter /n/sw/g16_nehalem/g16/l103.exe)

 GradGradGradGradGradGradGradGradGradGradGradGradGradGradGradGradGradGrad
 Berny optimization.
 Initialization pass.
                           ----------------------------
                           !    Initial Parameters    !
                           ! (Angstroms and Degrees)  !
 --------------------------                            --------------------------
 ! Name  Definition              Value          Derivative Info.                !
 --------------------------------------------------------------------------------
 ! R1    R(1,2)                  1.0137         estimate D2E/DX2                !
 ! R2    R(1,3)                  1.4461         estimate D2E/DX2                !
 ! R3    R(1,26)                 1.3739         estimate D2E/DX2                !
 ! R4    R(3,4)                  1.0955         estimate D2E/DX2                !
 ! R5    R(3,5)                  1.5201         estimate D2E/DX2                !
 ! R6    R(3,6)                  1.5309         estimate D2E/DX2                !
 ! R7    R(5,7)                  1.0899         estimate D2E/DX2                !
 ! R8    R(5,24)                 1.3598         estimate D2E/DX2                !
 ! R9    R(5,25)                 1.3618         estimate D2E/DX2                !
 ! R10   R(6,8)                  1.2185         estimate D2E/DX2                !
 ! R11   R(6,9)                  1.3628         estimate D2E/DX2                !
 ! R12   R(9,10)                 1.0163         estimate D2E/DX2                !
 ! R13   R(9,11)                 1.4414         estimate D2E/DX2                !
 ! R14   R(11,12)                1.0951         estimate D2E/DX2                !
 ! R15   R(11,13)                1.5245         estimate D2E/DX2                !
 ! R16   R(11,14)                1.532          estimate D2E/DX2                !
 ! R17   R(13,15)                1.0924         estimate D2E/DX2                !
 ! R18   R(13,22)                1.3495         estimate D2E/DX2                !
 ! R19   R(13,23)                1.3646         estimate D2E/DX2                !
 ! R20   R(14,16)                1.2064         estimate D2E/DX2                !
 ! R21   R(14,17)                1.3305         estimate D2E/DX2                !
 ! R22   R(17,18)                1.4325         estimate D2E/DX2                !
 ! R23   R(18,19)                1.0888         estimate D2E/DX2                !
 ! R24   R(18,20)                1.0929         estimate D2E/DX2                !
 ! R25   R(18,21)                1.0918         estimate D2E/DX2                !
 ! R26   R(26,27)                1.2208         estimate D2E/DX2                !
 ! R27   R(26,28)                1.5076         estimate D2E/DX2                !
 ! R28   R(28,29)                1.0933         estimate D2E/DX2                !
 ! R29   R(28,30)                1.092          estimate D2E/DX2                !
 ! R30   R(28,31)                1.0923         estimate D2E/DX2                !
 ! A1    A(2,1,3)              116.7284         estimate D2E/DX2                !
 ! A2    A(2,1,26)             118.6633         estimate D2E/DX2                !
 ! A3    A(3,1,26)             120.9613         estimate D2E/DX2                !
 ! A4    A(1,3,4)              106.9674         estimate D2E/DX2                !
 ! A5    A(1,3,5)              109.4731         estimate D2E/DX2                !
 ! A6    A(1,3,6)              112.6097         estimate D2E/DX2                !
 ! A7    A(4,3,5)              108.1088         estimate D2E/DX2                !
 ! A8    A(4,3,6)              109.8104         estimate D2E/DX2                !
 ! A9    A(5,3,6)              109.7415         estimate D2E/DX2                !
 ! A10   A(3,5,7)              114.1202         estimate D2E/DX2                !
 ! A11   A(3,5,24)             108.3061         estimate D2E/DX2                !
 ! A12   A(3,5,25)             109.0124         estimate D2E/DX2                !
 ! A13   A(7,5,24)             109.3845         estimate D2E/DX2                !
 ! A14   A(7,5,25)             109.0718         estimate D2E/DX2                !
 ! A15   A(24,5,25)            106.6832         estimate D2E/DX2                !
 ! A16   A(3,6,8)              121.1729         estimate D2E/DX2                !
 ! A17   A(3,6,9)              116.7003         estimate D2E/DX2                !
 ! A18   A(8,6,9)              122.1048         estimate D2E/DX2                !
 ! A19   A(6,9,10)             114.068          estimate D2E/DX2                !
 ! A20   A(6,9,11)             126.7718         estimate D2E/DX2                !
 ! A21   A(10,9,11)            116.6751         estimate D2E/DX2                !
 ! A22   A(9,11,12)            111.2424         estimate D2E/DX2                !
 ! A23   A(9,11,13)            107.4574         estimate D2E/DX2                !
 ! A24   A(9,11,14)            114.387          estimate D2E/DX2                !
 ! A25   A(12,11,13)           107.2331         estimate D2E/DX2                !
 ! A26   A(12,11,14)           106.8306         estimate D2E/DX2                !
 ! A27   A(13,11,14)           109.4736         estimate D2E/DX2                !
 ! A28   A(11,13,15)           112.3212         estimate D2E/DX2                !
 ! A29   A(11,13,22)           110.296          estimate D2E/DX2                !
 ! A30   A(11,13,23)           108.2063         estimate D2E/DX2                !
 ! A31   A(15,13,22)           109.7219         estimate D2E/DX2                !
 ! A32   A(15,13,23)           108.6446         estimate D2E/DX2                !
 ! A33   A(22,13,23)           107.5067         estimate D2E/DX2                !
 ! A34   A(11,14,16)           122.7986         estimate D2E/DX2                !
 ! A35   A(11,14,17)           112.4714         estimate D2E/DX2                !
 ! A36   A(16,14,17)           124.7249         estimate D2E/DX2                !
 ! A37   A(14,17,18)           114.9376         estimate D2E/DX2                !
 ! A38   A(17,18,19)           105.7679         estimate D2E/DX2                !
 ! A39   A(17,18,20)           110.1224         estimate D2E/DX2                !
 ! A40   A(17,18,21)           110.3919         estimate D2E/DX2                !
 ! A41   A(19,18,20)           110.5141         estimate D2E/DX2                !
 ! A42   A(19,18,21)           110.5916         estimate D2E/DX2                !
 ! A43   A(20,18,21)           109.409          estimate D2E/DX2                !
 ! A44   A(1,26,27)            121.4811         estimate D2E/DX2                !
 ! A45   A(1,26,28)            115.5344         estimate D2E/DX2                !
 ! A46   A(27,26,28)           122.9095         estimate D2E/DX2                !
 ! A47   A(26,28,29)           108.1959         estimate D2E/DX2                !
 ! A48   A(26,28,30)           112.8927         estimate D2E/DX2                !
 ! A49   A(26,28,31)           108.586          estimate D2E/DX2                !
 ! A50   A(29,28,30)           109.3718         estimate D2E/DX2                !
 ! A51   A(29,28,31)           108.2492         estimate D2E/DX2                !
 ! A52   A(30,28,31)           109.4348         estimate D2E/DX2                !
 ! D1    D(2,1,3,4)           -168.0339         estimate D2E/DX2                !
 ! D2    D(2,1,3,5)            -51.1254         estimate D2E/DX2                !
 ! D3    D(2,1,3,6)             71.2426         estimate D2E/DX2                !
 ! D4    D(26,1,3,4)            -9.848          estimate D2E/DX2                !
 ! D5    D(26,1,3,5)           107.0606         estimate D2E/DX2                !
 ! D6    D(26,1,3,6)          -130.5715         estimate D2E/DX2                !
 ! D7    D(2,1,26,27)          171.9146         estimate D2E/DX2                !
 ! D8    D(2,1,26,28)          -11.1458         estimate D2E/DX2                !
 ! D9    D(3,1,26,27)           14.1395         estimate D2E/DX2                !
 ! D10   D(3,1,26,28)         -168.9209         estimate D2E/DX2                !
 ! D11   D(1,3,5,7)            174.9417         estimate D2E/DX2                !
 ! D12   D(1,3,5,24)           -62.9736         estimate D2E/DX2                !
 ! D13   D(1,3,5,25)            52.737          estimate D2E/DX2                !
 ! D14   D(4,3,5,7)            -68.8718         estimate D2E/DX2                !
 ! D15   D(4,3,5,24)            53.2129         estimate D2E/DX2                !
 ! D16   D(4,3,5,25)           168.9235         estimate D2E/DX2                !
 ! D17   D(6,3,5,7)             50.8767         estimate D2E/DX2                !
 ! D18   D(6,3,5,24)           172.9614         estimate D2E/DX2                !
 ! D19   D(6,3,5,25)           -71.328          estimate D2E/DX2                !
 ! D20   D(1,3,6,8)           -121.9328         estimate D2E/DX2                !
 ! D21   D(1,3,6,9)             59.7398         estimate D2E/DX2                !
 ! D22   D(4,3,6,8)            118.9875         estimate D2E/DX2                !
 ! D23   D(4,3,6,9)            -59.34           estimate D2E/DX2                !
 ! D24   D(5,3,6,8)              0.2839         estimate D2E/DX2                !
 ! D25   D(5,3,6,9)           -178.0436         estimate D2E/DX2                !
 ! D26   D(3,6,9,10)          -169.8535         estimate D2E/DX2                !
 ! D27   D(3,6,9,11)            -8.4834         estimate D2E/DX2                !
 ! D28   D(8,6,9,10)            11.8359         estimate D2E/DX2                !
 ! D29   D(8,6,9,11)           173.206          estimate D2E/DX2                !
 ! D30   D(6,9,11,12)           38.2785         estimate D2E/DX2                !
 ! D31   D(6,9,11,13)          155.3725         estimate D2E/DX2                !
 ! D32   D(6,9,11,14)          -82.8735         estimate D2E/DX2                !
 ! D33   D(10,9,11,12)        -160.7734         estimate D2E/DX2                !
 ! D34   D(10,9,11,13)         -43.6794         estimate D2E/DX2                !
 ! D35   D(10,9,11,14)          78.0746         estimate D2E/DX2                !
 ! D36   D(9,11,13,15)         -58.003          estimate D2E/DX2                !
 ! D37   D(9,11,13,22)         179.2606         estimate D2E/DX2                !
 ! D38   D(9,11,13,23)          61.9205         estimate D2E/DX2                !
 ! D39   D(12,11,13,15)         61.6805         estimate D2E/DX2                !
 ! D40   D(12,11,13,22)        -61.0559         estimate D2E/DX2                !
 ! D41   D(12,11,13,23)       -178.396          estimate D2E/DX2                !
 ! D42   D(14,11,13,15)        177.2261         estimate D2E/DX2                !
 ! D43   D(14,11,13,22)         54.4897         estimate D2E/DX2                !
 ! D44   D(14,11,13,23)        -62.8505         estimate D2E/DX2                !
 ! D45   D(9,11,14,16)         164.599          estimate D2E/DX2                !
 ! D46   D(9,11,14,17)         -16.1782         estimate D2E/DX2                !
 ! D47   D(12,11,14,16)         41.0432         estimate D2E/DX2                !
 ! D48   D(12,11,14,17)       -139.734          estimate D2E/DX2                !
 ! D49   D(13,11,14,16)        -74.7589         estimate D2E/DX2                !
 ! D50   D(13,11,14,17)        104.4639         estimate D2E/DX2                !
 ! D51   D(11,14,17,18)        179.3283         estimate D2E/DX2                !
 ! D52   D(16,14,17,18)         -1.4666         estimate D2E/DX2                !
 ! D53   D(14,17,18,19)       -179.6763         estimate D2E/DX2                !
 ! D54   D(14,17,18,20)        -60.2522         estimate D2E/DX2                !
 ! D55   D(14,17,18,21)         60.6635         estimate D2E/DX2                !
 ! D56   D(1,26,28,29)        -109.3621         estimate D2E/DX2                !
 ! D57   D(1,26,28,30)          11.8233         estimate D2E/DX2                !
 ! D58   D(1,26,28,31)         133.3603         estimate D2E/DX2                !
 ! D59   D(27,26,28,29)         67.529          estimate D2E/DX2                !
 ! D60   D(27,26,28,30)       -171.2856         estimate D2E/DX2                !
 ! D61   D(27,26,28,31)        -49.7486         estimate D2E/DX2                !
 --------------------------------------------------------------------------------
 Trust Radius=3.00D-01 FncErr=1.00D-07 GrdErr=1.00D-06 EigMax=2.50D+02 EigMin=1.00D-04
 Number of steps in this run=    153 maximum allowed number of steps=    186.
 GradGradGradGradGradGradGradGradGradGradGradGradGradGradGradGradGradGrad

 Leave Link  103 at Mon Dec 30 11:32:53 2019, MaxMem=  4294967296 cpu:               0.9 elap:               0.3
 (Enter /n/sw/g16_nehalem/g16/l202.exe)
                          Input orientation:                          
 ---------------------------------------------------------------------
 Center     Atomic      Atomic             Coordinates (Angstroms)
 Number     Number       Type             X           Y           Z
 ---------------------------------------------------------------------
      1          7           0        1.192569    0.791381    0.359882
      2          1           0        1.455946    0.956630    1.324772
      3          6           0        1.528658   -0.501597   -0.193766
      4          1           0        1.376632   -0.434998   -1.276661
      5          6           0        2.998452   -0.794904    0.059845
      6          6           0        0.669280   -1.629949    0.382380
      7          1           0        3.313851   -1.790992   -0.250425
      8          8           0        1.175931   -2.581808    0.949866
      9          7           0       -0.677083   -1.530193    0.196559
     10          1           0       -1.219974   -2.205027    0.728233
     11          6           0       -1.393317   -0.397380   -0.333803
     12          1           0       -0.836485    0.078359   -1.147907
     13          6           0       -2.699401   -0.917350   -0.923496
     14          6           0       -1.697099    0.696827    0.694496
     15          1           0       -2.534325   -1.667996   -1.699796
     16          8           0       -2.038509    1.810892    0.381784
     17          8           0       -1.557122    0.270557    1.947107
     18          6           0       -1.814188    1.257322    2.953184
     19          1           0       -1.652585    0.756909    3.906538
     20          1           0       -1.124922    2.097932    2.840177
     21          1           0       -2.841924    1.618223    2.878285
     22          9           0       -3.426075    0.103565   -1.424358
     23          9           0       -3.426234   -1.483429    0.083245
     24          9           0        3.739446    0.137821   -0.595899
     25          9           0        3.259346   -0.638889    1.387233
     26          6           0        0.968674    1.873356   -0.456676
     27          8           0        0.792664    1.740302   -1.657379
     28          6           0        0.885385    3.207440    0.240497
     29          1           0       -0.153200    3.547012    0.204854
     30          1           0        1.217088    3.164943    1.279996
     31          1           0        1.499103    3.925692   -0.307767
 ---------------------------------------------------------------------
                    Distance matrix (angstroms):
                    1          2          3          4          5
     1  N    0.000000
     2  H    1.013749   0.000000
     3  C    1.446124   2.106578   0.000000
     4  H    2.053328   2.951334   1.095540   0.000000
     5  C    2.422300   2.654663   1.520080   2.132154   0.000000
     6  C    2.477333   2.863099   1.530899   2.163486   2.495270
     7  H    3.397199   3.671850   2.202876   2.577731   1.089924
     8  O    3.424436   3.569245   2.399914   3.099435   2.703099
     9  N    2.985294   3.465107   2.464885   2.754555   3.750853
    10  H    3.864519   4.184792   3.362549   3.727595   4.497811
    11  C    2.929361   3.564059   2.927185   2.926263   4.427259
    12  H    2.626573   3.484357   2.615461   2.275522   4.114364
    13  C    4.440073   5.082659   4.310666   4.119640   5.783380
    14  C    2.910513   3.225901   3.553975   3.822867   4.967519
    15  H    4.917372   5.653223   4.487365   4.122489   5.871137
    16  O    3.388178   3.718898   4.289935   4.411083   5.680211
    17  O    3.217350   3.152233   3.834266   4.415586   5.044821
    18  C    3.997862   3.665504   4.916473   5.562092   5.978674
    19  H    4.546961   4.045784   5.340097   6.120649   6.231959
    20  H    3.637266   3.203108   4.796233   5.442597   5.753343
    21  H    4.827334   4.617661   5.747445   6.267017   6.919305
    22  F    4.998847   5.667413   5.141007   4.835066   6.654671
    23  F    5.156028   5.597406   5.058822   5.100595   6.461517
    24  F    2.797721   3.094155   2.336268   2.524767   1.359797
    25  F    2.715270   2.408700   2.348124   3.268412   1.361751
    26  C    1.373887   2.061887   2.454202   2.483406   3.392109
    27  O    2.264888   3.153936   2.776682   2.284271   3.773808
    28  C    2.438433   2.562682   3.789372   3.976235   4.529508
    29  H    3.070607   3.248638   4.402133   4.515714   5.367138
    30  H    2.545782   2.221645   3.963908   4.418317   4.510257
    31  H    3.219258   3.388565   4.428855   4.468710   4.966610
                    6          7          8          9         10
     6  C    0.000000
     7  H    2.723992   0.000000
     8  O    1.218512   2.576197   0.000000
     9  N    1.362782   4.024347   2.259873   0.000000
    10  H    2.004896   4.656690   2.435456   1.016272   0.000000
    11  C    2.507280   4.909841   3.608402   1.441368   2.103701
    12  H    2.743615   4.639530   3.940426   2.102484   2.980070
    13  C    3.682543   6.113548   4.614987   2.391625   2.564181
    14  C    3.333325   5.673776   4.366802   2.499598   2.941011
    15  H    3.820993   6.026356   4.649921   2.657913   2.812694
    16  O    4.378528   6.482362   5.472765   3.612567   4.113105
    17  O    3.319211   5.727609   4.074316   2.661125   2.779899
    18  C    4.594886   6.771419   5.262415   4.081939   4.158288
    19  H    4.848488   6.959715   5.281046   4.466137   4.365987
    20  H    4.812175   6.661701   5.546816   4.511382   4.794246
    21  H    5.395249   7.700983   6.123906   4.668053   4.676611
    22  F    4.800136   7.098878   5.833235   3.585177   3.850990
    23  F    4.109037   6.755344   4.810134   2.751883   2.409211
    24  F    3.675318   2.005194   4.044426   4.787065   5.642527
    25  F    2.949639   2.003057   2.882159   4.208040   4.790760
    26  C    3.614803   4.355438   4.676516   3.836584   4.777803
    27  O    3.941374   4.561353   5.062139   4.036506   5.030654
    28  C    4.844292   5.578779   5.839779   4.988828   5.827969
    29  H    5.244894   6.381380   6.315383   5.104168   5.873490
    30  H    4.908849   5.594631   5.756373   5.177453   5.922862
    31  H    5.659510   5.998089   6.635785   5.895491   6.786191
                   11         12         13         14         15
    11  C    0.000000
    12  H    1.095059   0.000000
    13  C    1.524455   2.124206   0.000000
    14  C    1.531983   2.125467   2.495611   0.000000
    15  H    2.186847   2.497398   1.092411   3.467848   0.000000
    16  O    2.409316   2.605089   3.095778   1.206437   4.084296
    17  O    2.382335   3.183609   3.310028   1.330539   4.244151
    18  C    3.703978   4.377762   4.532267   2.330136   5.543131
    19  H    4.402283   5.164675   5.218064   3.212912   6.171597
    20  H    4.046328   4.479585   5.073080   2.625724   6.064650
    21  H    4.059388   4.754281   4.571978   2.632210   5.643818
    22  F    2.360585   2.604426   1.349513   2.798367   2.002377
    23  F    2.342260   3.265228   1.364646   2.849044   2.002199
    24  F    5.167242   4.609489   6.532952   5.615481   6.621160
    25  F    4.966645   4.870032   6.397161   5.179804   6.644955
    26  C    3.278771   2.637881   4.632573   3.133012   5.133958
    27  O    3.331674   2.382382   4.449294   3.580374   4.763103
    28  C    4.303142   3.831925   5.587438   3.630223   6.263308
    29  H    4.169685   3.785287   5.261829   3.278251   6.041006
    30  H    4.701990   4.431577   6.071193   3.863534   6.805113
    31  H    5.201512   4.578513   6.439069   4.652506   7.035313
                   16         17         18         19         20
    16  O    0.000000
    17  O    2.248244   0.000000
    18  C    2.639859   1.432473   0.000000
    19  H    3.699150   2.021144   1.088767   0.000000
    20  H    2.638319   2.079344   1.092924   1.792734   0.000000
    21  H    2.629660   2.081829   1.091834   1.792678   1.783163
    22  F    2.846481   3.858451   4.805435   5.656021   5.240140
    23  F    3.587124   3.169231   4.283335   4.773103   5.071771
    24  F    6.094243   5.876915   6.685217   7.051894   6.269827
    25  F    5.922805   4.933449   5.638135   5.694051   5.368709
    26  C    3.122510   3.837549   4.444206   5.211055   3.911882
    27  O    3.489801   4.546863   5.318481   6.156580   4.902351
    28  C    3.243372   4.183735   4.295268   5.087853   3.468527
    29  H    2.569009   3.967569   3.943967   4.871888   3.160539
    30  H    3.638564   4.064326   3.953127   4.575191   3.009599
    31  H    4.178823   5.271146   5.360214   6.142857   4.487289
                   21         22         23         24         25
    21  H    0.000000
    22  F    4.598713   0.000000
    23  F    4.215912   2.188931   0.000000
    24  F    7.587883   7.213335   7.378120   0.000000
    25  F    6.674076   7.290483   6.863717   2.183251   0.000000
    26  C    5.070278   4.835534   5.556504   3.272406   3.867629
    27  O    5.813552   4.531111   5.587604   3.518268   4.584183
    28  C    4.834911   5.567268   6.373307   4.274083   4.663147
    29  H    4.254021   5.022287   6.002739   5.236075   5.528585
    30  H    4.628439   6.184216   6.678324   4.364028   4.318733
    31  H    5.858315   6.333467   7.326010   4.410229   5.177536
                   26         27         28         29         30
    26  C    0.000000
    27  O    1.220807   0.000000
    28  C    1.507570   2.400630   0.000000
    29  H    2.120695   2.761661   1.093270   0.000000
    30  H    2.178517   3.292098   1.091967   1.783142   0.000000
    31  H    2.124997   2.663914   1.092305   1.770956   1.783049
                   31
    31  H    0.000000
 Stoichiometry    C9H12F4N2O4
 Framework group  C1[X(C9H12F4N2O4)]
 Deg. of freedom    87
 Full point group                 C1      NOp   1
 Largest Abelian subgroup         C1      NOp   1
 Largest concise Abelian subgroup C1      NOp   1
                         Standard orientation:                         
 ---------------------------------------------------------------------
 Center     Atomic      Atomic             Coordinates (Angstroms)
 Number     Number       Type             X           Y           Z
 ---------------------------------------------------------------------
      1          7           0        1.279810    0.692538    0.123839
      2          1           0        1.543187    0.857787    1.088729
      3          6           0        1.615899   -0.600440   -0.429809
      4          1           0        1.463873   -0.533841   -1.512704
      5          6           0        3.085693   -0.893747   -0.176198
      6          6           0        0.756521   -1.728792    0.146337
      7          1           0        3.401092   -1.889835   -0.486468
      8          8           0        1.263172   -2.680651    0.713823
      9          7           0       -0.589842   -1.629036   -0.039484
     10          1           0       -1.132733   -2.303870    0.492190
     11          6           0       -1.306076   -0.496223   -0.569846
     12          1           0       -0.749244   -0.020484   -1.383950
     13          6           0       -2.612160   -1.016193   -1.159539
     14          6           0       -1.609858    0.597984    0.458453
     15          1           0       -2.447084   -1.766839   -1.935839
     16          8           0       -1.951268    1.712049    0.145741
     17          8           0       -1.469881    0.171714    1.711064
     18          6           0       -1.726947    1.158479    2.717141
     19          1           0       -1.565344    0.658066    3.670495
     20          1           0       -1.037681    1.999089    2.604134
     21          1           0       -2.754683    1.519380    2.642242
     22          9           0       -3.338834    0.004722   -1.660401
     23          9           0       -3.338993   -1.582272   -0.152798
     24          9           0        3.826687    0.038978   -0.831942
     25          9           0        3.346587   -0.737732    1.151190
     26          6           0        1.055915    1.774513   -0.692719
     27          8           0        0.879905    1.641459   -1.893422
     28          6           0        0.972626    3.108597    0.004454
     29          1           0       -0.065959    3.448169   -0.031189
     30          1           0        1.304329    3.066100    1.043953
     31          1           0        1.586344    3.826849   -0.543810
 ---------------------------------------------------------------------
 Rotational constants (GHZ):           0.5242487           0.2772982           0.2446602
 Leave Link  202 at Mon Dec 30 11:32:54 2019, MaxMem=  4294967296 cpu:               4.9 elap:               0.4
 (Enter /n/sw/g16_nehalem/g16/l301.exe)
 Standard basis: 6-31G(d) (6D, 7F)
 Ernie: Thresh=  0.10000D-02 Tol=  0.10000D-05 Strict=F.
 There are   309 symmetry adapted cartesian basis functions of A   symmetry.
 There are   309 symmetry adapted basis functions of A   symmetry.
   309 basis functions,   580 primitive gaussians,   309 cartesian basis functions
    74 alpha electrons       74 beta electrons
       nuclear repulsion energy      1701.5458703661 Hartrees.
 IExCor= 4336 DFT=T Ex+Corr=M062X ExCW=0 ScaHFX=  0.540000
 ScaDFX=  1.000000  1.000000  1.000000  1.000000 ScalE2=  1.000000  1.000000
 IRadAn=      5 IRanWt=     -1 IRanGd=            0 ICorTp=0 IEmpDi=  4
 NAtoms=   31 NActive=   31 NUniq=   31 SFac= 1.00D+00 NAtFMM=   60 NAOKFM=F Big=F
 Integral buffers will be    131072 words long.
 Raffenetti 2 integral format.
 Two-electron integral symmetry is turned on.
 ------------------------------------------------------------------------------
 Polarizable Continuum Model (PCM)
 =================================
 Model                : PCM.
 Atomic radii         : SMD-Coulomb.
 Polarization charges : Total charges.
 Charge compensation  : None.
 Solution method      : On-the-fly selection.
 Cavity type          : VdW (van der Waals Surface) (Alpha=1.000).
 Cavity algorithm     : GePol (No added spheres)
                        Default sphere list used, NSphG=   31.
                        Lebedev-Laikov grids with approx.  5.0 points / Ang**2.
                        Smoothing algorithm: York/Karplus (Gamma=1.0000).
                        Polarization charges: spherical gaussians, with
                                              point-specific exponents (IZeta= 3).
                        Self-potential: point-specific (ISelfS= 7).
                        Self-field    : sphere-specific E.n sum rule (ISelfD= 2).
 1st derivatives      : Analytical E(r).r(x)/FMM algorithm (CHGder, D1EAlg=3).
                        Cavity 1st derivative terms included.
 Solvent              : DiethylEther, Eps=   4.240000 Eps(inf)=   1.829527
 ------------------------------------------------------------------------------
 GePol: Number of generator spheres                  =      31
 GePol: Total number of spheres                      =      31
 GePol: Number of exposed spheres                    =      31 (100.00%)
 GePol: Number of points                             =    2267
 GePol: Average weight of points                     =       0.13
 GePol: Minimum weight of points                     =   0.12D-07
 GePol: Maximum weight of points                     =    0.21501
 GePol: Number of points with low weight             =     121
 GePol: Fraction of low-weight points (<1% of avg)   =       5.34%
 GePol: Cavity surface area                          =    292.535 Ang**2
 GePol: Cavity volume                                =    314.043 Ang**3
 ------------------------------------------------------------------------------
 Atomic radii for non-electrostatic terms: SMD-CDS.
 ------------------------------------------------------------------------------
 PCM non-electrostatic energy =        -0.0042084667 Hartrees.
 Nuclear repulsion after PCM non-electrostatic terms =     1701.5416618994 Hartrees.
 Leave Link  301 at Mon Dec 30 11:32:55 2019, MaxMem=  4294967296 cpu:               7.5 elap:               0.6
 (Enter /n/sw/g16_nehalem/g16/l302.exe)
 NPDir=0 NMtPBC=     1 NCelOv=     1 NCel=       1 NClECP=     1 NCelD=      1
         NCelK=      1 NCelE2=     1 NClLst=     1 CellRange=     0.0.
 One-electron integrals computed using PRISM.
 One-electron integral symmetry used in STVInt
 NBasis=   309 RedAO= T EigKep=  1.44D-03  NBF=   309
 NBsUse=   309 1.00D-06 EigRej= -1.00D+00 NBFU=   309
 Precomputing XC quadrature grid using
 IXCGrd= 4 IRadAn=           5 IRanWt=          -1 IRanGd=           0 AccXCQ= 0.00D+00.
 Generated NRdTot=       0 NPtTot=           0 NUsed=           0 NTot=          32
 NSgBfM=   307   306   306   307   307 MxSgAt=    31 MxSgA2=    31.
 Leave Link  302 at Mon Dec 30 11:32:56 2019, MaxMem=  4294967296 cpu:              12.4 elap:               1.1
 (Enter /n/sw/g16_nehalem/g16/l303.exe)
 DipDrv:  MaxL=1.
 Leave Link  303 at Mon Dec 30 11:32:57 2019, MaxMem=  4294967296 cpu:               6.0 elap:               0.7
 (Enter /n/sw/g16_nehalem/g16/l401.exe)
 ExpMin= 1.61D-01 ExpMax= 7.00D+03 ExpMxC= 1.05D+03 IAcc=3 IRadAn=         5 AccDes= 0.00D+00
 Harris functional with IExCor= 1009 and IRadAn=       5 diagonalized for initial guess.
 HarFok:  IExCor= 1009 AccDes= 0.00D+00 IRadAn=         5 IDoV= 1 UseB2=F ITyADJ=14
 ICtDFT=  3500011 ScaDFX=  1.000000  1.000000  1.000000  1.000000
 FoFCou: FMM=F IPFlag=           0 FMFlag=      100000 FMFlg1=           0
         NFxFlg=           0 DoJE=T BraDBF=F KetDBF=T FulRan=T
         wScrn=  0.000000 ICntrl=       500 IOpCl=  0 I1Cent=   200000004 NGrid=           0
         NMat0=    1 NMatS0=      1 NMatT0=    0 NMatD0=    1 NMtDS0=    0 NMtDT0=    0
 Petite list used in FoFCou.
 Harris En= -1158.87198976938    
 JPrj=0 DoOrth=F DoCkMO=F.
 Leave Link  401 at Mon Dec 30 11:33:00 2019, MaxMem=  4294967296 cpu:              26.9 elap:               2.1
 (Enter /n/sw/g16_nehalem/g16/l502.exe)
 Integral symmetry usage will be decided dynamically.
 Closed shell SCF:
 Using DIIS extrapolation, IDIIS=  1040.
 NGot=  4294967296 LenX=  4294767994 LenY=  4294672072
 Requested convergence on RMS density matrix=1.00D-08 within 128 cycles.
 Requested convergence on MAX density matrix=1.00D-06.
 Requested convergence on             energy=1.00D-06.
 No special actions if energy rises.
 Fock matrices will be formed incrementally for  20 cycles.

 Cycle   1  Pass 1  IDiag  1:
 FoFJK:  IHMeth= 1 ICntrl=       0 DoSepK=F KAlg= 0 I1Cent=           0 FoldK=F
 IRaf= 840000000 NMat=       1 IRICut=       1 DoRegI=T DoRafI=F ISym2E= 0 IDoP0=0 IntGTp=1.
 FoFCou: FMM=F IPFlag=           0 FMFlag=      100000 FMFlg1=           0
         NFxFlg=           0 DoJE=F BraDBF=F KetDBF=F FulRan=T
         wScrn=  0.000000 ICntrl=         0 IOpCl=  0 I1Cent=           0 NGrid=           0
         NMat0=    1 NMatS0=      1 NMatT0=    0 NMatD0=    1 NMtDS0=    0 NMtDT0=    0
 Symmetry not used in FoFCou.
 Inv3:  Mode=1 IEnd=    15417867.
 Iteration    1 A*A^-1 deviation from unit magnitude is 7.44D-15 for    233.
 Iteration    1 A*A^-1 deviation from orthogonality  is 4.79D-15 for    954    233.
 Iteration    1 A^-1*A deviation from unit magnitude is 7.33D-15 for    774.
 Iteration    1 A^-1*A deviation from orthogonality  is 3.11D-15 for   1112   1097.
 E= -1159.21830474775    
 DIIS: error= 1.65D-02 at cycle   1 NSaved=   1.
 NSaved= 1 IEnMin= 1 EnMin= -1159.21830474775     IErMin= 1 ErrMin= 1.65D-02
 ErrMax= 1.65D-02  0.00D+00 EMaxC= 1.00D-01 BMatC= 5.06D-01 BMatP= 5.06D-01
 IDIUse=3 WtCom= 8.35D-01 WtEn= 1.65D-01
 Coeff-Com:  0.100D+01
 Coeff-En:   0.100D+01
 Coeff:      0.100D+01
 Gap=     0.352 Goal=   None    Shift=    0.000
 GapD=    0.352 DampG=1.000 DampE=0.500 DampFc=0.5000 IDamp=-1.
 Damping current iteration by 5.00D-01
 RMSDP=3.83D-03 MaxDP=1.59D-01              OVMax= 2.04D-01

 Cycle   2  Pass 1  IDiag  1:
 RMSU=  1.91D-03    CP:  9.95D-01
 E= -1159.36855569079     Delta-E=       -0.150250943035 Rises=F Damp=T
 DIIS: error= 8.49D-03 at cycle   2 NSaved=   2.
 NSaved= 2 IEnMin= 2 EnMin= -1159.36855569079     IErMin= 2 ErrMin= 8.49D-03
 ErrMax= 8.49D-03  0.00D+00 EMaxC= 1.00D-01 BMatC= 5.72D-02 BMatP= 5.06D-01
 IDIUse=3 WtCom= 9.15D-01 WtEn= 8.49D-02
 Coeff-Com:  0.299D-01 0.970D+00
 Coeff-En:   0.840D-01 0.916D+00
 Coeff:      0.345D-01 0.965D+00
 Gap=     0.386 Goal=   None    Shift=    0.000
 RMSDP=1.13D-03 MaxDP=4.60D-02 DE=-1.50D-01 OVMax= 1.01D-01

 Cycle   3  Pass 1  IDiag  1:
 RMSU=  1.07D-03    CP:  9.89D-01  8.22D-01
 E= -1159.53949837874     Delta-E=       -0.170942687947 Rises=F Damp=F
 DIIS: error= 5.35D-03 at cycle   3 NSaved=   3.
 NSaved= 3 IEnMin= 3 EnMin= -1159.53949837874     IErMin= 3 ErrMin= 5.35D-03
 ErrMax= 5.35D-03  0.00D+00 EMaxC= 1.00D-01 BMatC= 3.19D-02 BMatP= 5.72D-02
 IDIUse=3 WtCom= 9.46D-01 WtEn= 5.35D-02
 Coeff-Com: -0.819D-01 0.440D+00 0.642D+00
 Coeff-En:   0.000D+00 0.000D+00 0.100D+01
 Coeff:     -0.775D-01 0.416D+00 0.661D+00
 Gap=     0.367 Goal=   None    Shift=    0.000
 RMSDP=6.50D-04 MaxDP=2.65D-02 DE=-1.71D-01 OVMax= 3.95D-02

 Cycle   4  Pass 1  IDiag  1:
 RMSU=  3.81D-04    CP:  9.92D-01  9.82D-01  6.04D-01
 E= -1159.56113741047     Delta-E=       -0.021639031732 Rises=F Damp=F
 DIIS: error= 1.98D-03 at cycle   4 NSaved=   4.
 NSaved= 4 IEnMin= 4 EnMin= -1159.56113741047     IErMin= 4 ErrMin= 1.98D-03
 ErrMax= 1.98D-03  0.00D+00 EMaxC= 1.00D-01 BMatC= 5.00D-03 BMatP= 3.19D-02
 IDIUse=3 WtCom= 9.80D-01 WtEn= 1.98D-02
 Coeff-Com: -0.323D-01 0.771D-01 0.327D+00 0.629D+00
 Coeff-En:   0.000D+00 0.000D+00 0.109D+00 0.891D+00
 Coeff:     -0.317D-01 0.756D-01 0.322D+00 0.634D+00
 Gap=     0.363 Goal=   None    Shift=    0.000
 RMSDP=2.14D-04 MaxDP=9.98D-03 DE=-2.16D-02 OVMax= 1.06D-02

 Cycle   5  Pass 1  IDiag  1:
 RMSU=  9.15D-05    CP:  9.91D-01  9.43D-01  7.27D-01  6.85D-01
 E= -1159.56501052310     Delta-E=       -0.003873112631 Rises=F Damp=F
 DIIS: error= 3.40D-04 at cycle   5 NSaved=   5.
 NSaved= 5 IEnMin= 5 EnMin= -1159.56501052310     IErMin= 5 ErrMin= 3.40D-04
 ErrMax= 3.40D-04  0.00D+00 EMaxC= 1.00D-01 BMatC= 1.60D-04 BMatP= 5.00D-03
 IDIUse=3 WtCom= 9.97D-01 WtEn= 3.40D-03
 Coeff-Com: -0.934D-02 0.155D-01 0.114D+00 0.270D+00 0.609D+00
 Coeff-En:   0.000D+00 0.000D+00 0.000D+00 0.000D+00 0.100D+01
 Coeff:     -0.930D-02 0.154D-01 0.114D+00 0.270D+00 0.611D+00
 Gap=     0.363 Goal=   None    Shift=    0.000
 RMSDP=3.83D-05 MaxDP=1.68D-03 DE=-3.87D-03 OVMax= 2.33D-03

 Cycle   6  Pass 1  IDiag  1:
 RMSU=  2.78D-05    CP:  9.91D-01  9.46D-01  7.35D-01  7.24D-01  7.92D-01
 E= -1159.56514377003     Delta-E=       -0.000133246930 Rises=F Damp=F
 DIIS: error= 1.10D-04 at cycle   6 NSaved=   6.
 NSaved= 6 IEnMin= 6 EnMin= -1159.56514377003     IErMin= 6 ErrMin= 1.10D-04
 ErrMax= 1.10D-04  0.00D+00 EMaxC= 1.00D-01 BMatC= 1.17D-05 BMatP= 1.60D-04
 IDIUse=3 WtCom= 9.99D-01 WtEn= 1.10D-03
 Coeff-Com:  0.127D-03-0.244D-02 0.907D-02 0.265D-01 0.217D+00 0.750D+00
 Coeff-En:   0.000D+00 0.000D+00 0.000D+00 0.000D+00 0.000D+00 0.100D+01
 Coeff:      0.127D-03-0.244D-02 0.906D-02 0.264D-01 0.216D+00 0.750D+00
 Gap=     0.364 Goal=   None    Shift=    0.000
 RMSDP=1.33D-05 MaxDP=5.25D-04 DE=-1.33D-04 OVMax= 9.46D-04

 Cycle   7  Pass 1  IDiag  1:
 RMSU=  9.63D-06    CP:  9.91D-01  9.44D-01  7.38D-01  7.32D-01  8.72D-01
                    CP:  9.81D-01
 E= -1159.56515448441     Delta-E=       -0.000010714377 Rises=F Damp=F
 DIIS: error= 5.65D-05 at cycle   7 NSaved=   7.
 NSaved= 7 IEnMin= 7 EnMin= -1159.56515448441     IErMin= 7 ErrMin= 5.65D-05
 ErrMax= 5.65D-05  0.00D+00 EMaxC= 1.00D-01 BMatC= 1.58D-06 BMatP= 1.17D-05
 IDIUse=1 WtCom= 1.00D+00 WtEn= 0.00D+00
 Coeff-Com:  0.143D-02-0.335D-02-0.106D-01-0.271D-01 0.149D-01 0.257D+00
 Coeff-Com:  0.768D+00
 Coeff:      0.143D-02-0.335D-02-0.106D-01-0.271D-01 0.149D-01 0.257D+00
 Coeff:      0.768D+00
 Gap=     0.364 Goal=   None    Shift=    0.000
 RMSDP=7.16D-06 MaxDP=3.76D-04 DE=-1.07D-05 OVMax= 4.28D-04

 Cycle   8  Pass 1  IDiag  1:
 RMSU=  3.93D-06    CP:  9.91D-01  9.43D-01  7.40D-01  7.35D-01  9.09D-01
                    CP:  1.10D+00  9.84D-01
 E= -1159.56515610505     Delta-E=       -0.000001620643 Rises=F Damp=F
 DIIS: error= 2.37D-05 at cycle   8 NSaved=   8.
 NSaved= 8 IEnMin= 8 EnMin= -1159.56515610505     IErMin= 8 ErrMin= 2.37D-05
 ErrMax= 2.37D-05  0.00D+00 EMaxC= 1.00D-01 BMatC= 4.13D-07 BMatP= 1.58D-06
 IDIUse=1 WtCom= 1.00D+00 WtEn= 0.00D+00
 Coeff-Com:  0.746D-03-0.136D-02-0.597D-02-0.176D-01-0.216D-01 0.938D-02
 Coeff-Com:  0.385D+00 0.652D+00
 Coeff:      0.746D-03-0.136D-02-0.597D-02-0.176D-01-0.216D-01 0.938D-02
 Coeff:      0.385D+00 0.652D+00
 Gap=     0.364 Goal=   None    Shift=    0.000
 RMSDP=2.70D-06 MaxDP=1.53D-04 DE=-1.62D-06 OVMax= 2.36D-04

 Cycle   9  Pass 1  IDiag  1:
 RMSU=  1.31D-06    CP:  9.91D-01  9.42D-01  7.41D-01  7.35D-01  9.21D-01
                    CP:  1.13D+00  1.12D+00  7.97D-01
 E= -1159.56515648321     Delta-E=       -0.000000378158 Rises=F Damp=F
 DIIS: error= 1.05D-05 at cycle   9 NSaved=   9.
 NSaved= 9 IEnMin= 9 EnMin= -1159.56515648321     IErMin= 9 ErrMin= 1.05D-05
 ErrMax= 1.05D-05  0.00D+00 EMaxC= 1.00D-01 BMatC= 4.19D-08 BMatP= 4.13D-07
 IDIUse=1 WtCom= 1.00D+00 WtEn= 0.00D+00
 Coeff-Com:  0.132D-03-0.137D-03-0.685D-03-0.337D-02-0.104D-01-0.335D-01
 Coeff-Com:  0.411D-01 0.260D+00 0.747D+00
 Coeff:      0.132D-03-0.137D-03-0.685D-03-0.337D-02-0.104D-01-0.335D-01
 Coeff:      0.411D-01 0.260D+00 0.747D+00
 Gap=     0.364 Goal=   None    Shift=    0.000
 RMSDP=1.06D-06 MaxDP=5.60D-05 DE=-3.78D-07 OVMax= 5.57D-05

 Cycle  10  Pass 1  IDiag  1:
 RMSU=  4.58D-07    CP:  9.91D-01  9.42D-01  7.41D-01  7.35D-01  9.24D-01
                    CP:  1.15D+00  1.16D+00  9.22D-01  9.19D-01
 E= -1159.56515652436     Delta-E=       -0.000000041154 Rises=F Damp=F
 DIIS: error= 1.56D-06 at cycle  10 NSaved=  10.
 NSaved=10 IEnMin=10 EnMin= -1159.56515652436     IErMin=10 ErrMin= 1.56D-06
 ErrMax= 1.56D-06  0.00D+00 EMaxC= 1.00D-01 BMatC= 2.97D-09 BMatP= 4.19D-08
 IDIUse=1 WtCom= 1.00D+00 WtEn= 0.00D+00
 Coeff-Com: -0.292D-04 0.809D-04 0.495D-03 0.860D-03-0.887D-03-0.112D-01
 Coeff-Com: -0.315D-01 0.109D-01 0.230D+00 0.801D+00
 Coeff:     -0.292D-04 0.809D-04 0.495D-03 0.860D-03-0.887D-03-0.112D-01
 Coeff:     -0.315D-01 0.109D-01 0.230D+00 0.801D+00
 Gap=     0.364 Goal=   None    Shift=    0.000
 RMSDP=2.95D-07 MaxDP=1.08D-05 DE=-4.12D-08 OVMax= 1.97D-05

 Cycle  11  Pass 1  IDiag  1:
 RMSU=  1.48D-07    CP:  9.91D-01  9.42D-01  7.41D-01  7.35D-01  9.25D-01
                    CP:  1.15D+00  1.17D+00  9.43D-01  1.01D+00  9.89D-01
 E= -1159.56515652731     Delta-E=       -0.000000002945 Rises=F Damp=F
 DIIS: error= 7.77D-07 at cycle  11 NSaved=  11.
 NSaved=11 IEnMin=11 EnMin= -1159.56515652731     IErMin=11 ErrMin= 7.77D-07
 ErrMax= 7.77D-07  0.00D+00 EMaxC= 1.00D-01 BMatC= 5.78D-10 BMatP= 2.97D-09
 IDIUse=1 WtCom= 1.00D+00 WtEn= 0.00D+00
 Coeff-Com: -0.251D-04 0.476D-04 0.315D-03 0.755D-03 0.696D-03-0.162D-02
 Coeff-Com: -0.192D-01-0.210D-01 0.280D-01 0.382D+00 0.630D+00
 Coeff:     -0.251D-04 0.476D-04 0.315D-03 0.755D-03 0.696D-03-0.162D-02
 Coeff:     -0.192D-01-0.210D-01 0.280D-01 0.382D+00 0.630D+00
 Gap=     0.364 Goal=   None    Shift=    0.000
 RMSDP=8.03D-08 MaxDP=3.08D-06 DE=-2.94D-09 OVMax= 3.80D-06

 Cycle  12  Pass 1  IDiag  1:
 RMSU=  4.43D-08    CP:  9.91D-01  9.42D-01  7.41D-01  7.35D-01  9.25D-01
                    CP:  1.15D+00  1.17D+00  9.50D-01  1.03D+00  1.06D+00
                    CP:  8.14D-01
 E= -1159.56515652779     Delta-E=       -0.000000000480 Rises=F Damp=F
 DIIS: error= 1.56D-07 at cycle  12 NSaved=  12.
 NSaved=12 IEnMin=12 EnMin= -1159.56515652779     IErMin=12 ErrMin= 1.56D-07
 ErrMax= 1.56D-07  0.00D+00 EMaxC= 1.00D-01 BMatC= 1.63D-11 BMatP= 5.78D-10
 IDIUse=1 WtCom= 1.00D+00 WtEn= 0.00D+00
 Coeff-Com: -0.293D-05 0.398D-05 0.421D-04 0.115D-03 0.243D-03 0.502D-03
 Coeff-Com: -0.244D-02-0.575D-02-0.122D-01 0.312D-01 0.140D+00 0.848D+00
 Coeff:     -0.293D-05 0.398D-05 0.421D-04 0.115D-03 0.243D-03 0.502D-03
 Coeff:     -0.244D-02-0.575D-02-0.122D-01 0.312D-01 0.140D+00 0.848D+00
 Gap=     0.364 Goal=   None    Shift=    0.000
 RMSDP=2.29D-08 MaxDP=8.50D-07 DE=-4.80D-10 OVMax= 1.26D-06

 Cycle  13  Pass 1  IDiag  1:
 RMSU=  1.38D-08    CP:  9.91D-01  9.42D-01  7.41D-01  7.35D-01  9.25D-01
                    CP:  1.15D+00  1.18D+00  9.51D-01  1.03D+00  1.09D+00
                    CP:  8.72D-01  9.87D-01
 E= -1159.56515652778     Delta-E=        0.000000000008 Rises=F Damp=F
 DIIS: error= 5.96D-08 at cycle  13 NSaved=  13.
 NSaved=13 IEnMin=12 EnMin= -1159.56515652779     IErMin=13 ErrMin= 5.96D-08
 ErrMax= 5.96D-08  0.00D+00 EMaxC= 1.00D-01 BMatC= 2.77D-12 BMatP= 1.63D-11
 IDIUse=1 WtCom= 1.00D+00 WtEn= 0.00D+00
 Coeff-Com:  0.102D-05-0.251D-05-0.817D-05-0.162D-04 0.380D-04 0.306D-03
 Coeff-Com:  0.533D-03-0.474D-03-0.682D-02-0.187D-01-0.985D-03 0.331D+00
 Coeff-Com:  0.695D+00
 Coeff:      0.102D-05-0.251D-05-0.817D-05-0.162D-04 0.380D-04 0.306D-03
 Coeff:      0.533D-03-0.474D-03-0.682D-02-0.187D-01-0.985D-03 0.331D+00
 Coeff:      0.695D+00
 Gap=     0.364 Goal=   None    Shift=    0.000
 RMSDP=7.30D-09 MaxDP=2.75D-07 DE= 7.73D-12 OVMax= 4.13D-07

 Error on total polarization charges =  0.01798
 SCF Done:  E(RM062X) =  -1159.56515653     A.U. after   13 cycles
            NFock= 13  Conv=0.73D-08     -V/T= 2.0075
 KE= 1.150903698326D+03 PE=-6.130083770663D+03 EE= 2.118073253910D+03
 SMD-CDS (non-electrostatic) energy       (kcal/mol) =      -2.64
 (included in total energy above)
 Leave Link  502 at Mon Dec 30 11:33:55 2019, MaxMem=  4294967296 cpu:             842.8 elap:              54.2
 (Enter /n/sw/g16_nehalem/g16/l601.exe)
 Copying SCF densities to generalized density rwf, IOpCl= 0 IROHF=0.

 **********************************************************************

            Population analysis using the SCF density.

 **********************************************************************

 Orbital symmetries:
       Occupied  (A) (A) (A) (A) (A) (A) (A) (A) (A) (A) (A) (A)
                 (A) (A) (A) (A) (A) (A) (A) (A) (A) (A) (A) (A)
                 (A) (A) (A) (A) (A) (A) (A) (A) (A) (A) (A) (A)
                 (A) (A) (A) (A) (A) (A) (A) (A) (A) (A) (A) (A)
                 (A) (A) (A) (A) (A) (A) (A) (A) (A) (A) (A) (A)
                 (A) (A) (A) (A) (A) (A) (A) (A) (A) (A) (A) (A)
                 (A) (A)
       Virtual   (A) (A) (A) (A) (A) (A) (A) (A) (A) (A) (A) (A)
                 (A) (A) (A) (A) (A) (A) (A) (A) (A) (A) (A) (A)
                 (A) (A) (A) (A) (A) (A) (A) (A) (A) (A) (A) (A)
                 (A) (A) (A) (A) (A) (A) (A) (A) (A) (A) (A) (A)
                 (A) (A) (A) (A) (A) (A) (A) (A) (A) (A) (A) (A)
                 (A) (A) (A) (A) (A) (A) (A) (A) (A) (A) (A) (A)
                 (A) (A) (A) (A) (A) (A) (A) (A) (A) (A) (A) (A)
                 (A) (A) (A) (A) (A) (A) (A) (A) (A) (A) (A) (A)
                 (A) (A) (A) (A) (A) (A) (A) (A) (A) (A) (A) (A)
                 (A) (A) (A) (A) (A) (A) (A) (A) (A) (A) (A) (A)
                 (A) (A) (A) (A) (A) (A) (A) (A) (A) (A) (A) (A)
                 (A) (A) (A) (A) (A) (A) (A) (A) (A) (A) (A) (A)
                 (A) (A) (A) (A) (A) (A) (A) (A) (A) (A) (A) (A)
                 (A) (A) (A) (A) (A) (A) (A) (A) (A) (A) (A) (A)
                 (A) (A) (A) (A) (A) (A) (A) (A) (A) (A) (A) (A)
                 (A) (A) (A) (A) (A) (A) (A) (A) (A) (A) (A) (A)
                 (A) (A) (A) (A) (A) (A) (A) (A) (A) (A) (A) (A)
                 (A) (A) (A) (A) (A) (A) (A) (A) (A) (A) (A) (A)
                 (A) (A) (A) (A) (A) (A) (A) (A) (A) (A) (A) (A)
                 (A) (A) (A) (A) (A) (A) (A)
 The electronic state is 1-A.
 Alpha  occ. eigenvalues --  -25.27132 -25.26951 -25.26249 -25.26124 -19.69625
 Alpha  occ. eigenvalues --  -19.64078 -19.62496 -19.61662 -14.79919 -14.79781
 Alpha  occ. eigenvalues --  -10.71976 -10.70839 -10.69179 -10.67113 -10.66220
 Alpha  occ. eigenvalues --  -10.61670 -10.60788 -10.59867 -10.54392  -1.40394
 Alpha  occ. eigenvalues --   -1.39460  -1.34240  -1.33255  -1.24487  -1.17779
 Alpha  occ. eigenvalues --   -1.16712  -1.14814  -1.05952  -1.04177  -0.89401
 Alpha  occ. eigenvalues --   -0.88159  -0.82950  -0.82373  -0.76635  -0.76161
 Alpha  occ. eigenvalues --   -0.69834  -0.68276  -0.66946  -0.65237  -0.64831
 Alpha  occ. eigenvalues --   -0.63610  -0.62982  -0.62443  -0.61652  -0.60649
 Alpha  occ. eigenvalues --   -0.58458  -0.56884  -0.56352  -0.55889  -0.54060
 Alpha  occ. eigenvalues --   -0.53563  -0.52669  -0.52420  -0.51563  -0.50152
 Alpha  occ. eigenvalues --   -0.49842  -0.49418  -0.49107  -0.48594  -0.48071
 Alpha  occ. eigenvalues --   -0.47708  -0.46542  -0.45881  -0.45545  -0.43813
 Alpha  occ. eigenvalues --   -0.43366  -0.42067  -0.41711  -0.37978  -0.37701
 Alpha  occ. eigenvalues --   -0.35607  -0.33737  -0.32232  -0.31842
 Alpha virt. eigenvalues --    0.04527   0.04866   0.06284   0.11543   0.14355
 Alpha virt. eigenvalues --    0.15303   0.16630   0.17322   0.18303   0.18667
 Alpha virt. eigenvalues --    0.18992   0.19392   0.19854   0.21311   0.21496
 Alpha virt. eigenvalues --    0.22455   0.22771   0.23266   0.24091   0.24668
 Alpha virt. eigenvalues --    0.26477   0.27304   0.28112   0.28952   0.30943
 Alpha virt. eigenvalues --    0.32476   0.33647   0.36766   0.37999   0.40726
 Alpha virt. eigenvalues --    0.42270   0.45591   0.47828   0.52433   0.53629
 Alpha virt. eigenvalues --    0.54946   0.55352   0.56477   0.56951   0.57415
 Alpha virt. eigenvalues --    0.58623   0.60430   0.60795   0.62063   0.63053
 Alpha virt. eigenvalues --    0.64479   0.65038   0.68194   0.69062   0.70076
 Alpha virt. eigenvalues --    0.70662   0.71152   0.72570   0.74552   0.75356
 Alpha virt. eigenvalues --    0.76677   0.78220   0.79714   0.80118   0.82254
 Alpha virt. eigenvalues --    0.85685   0.86146   0.88661   0.89670   0.90592
 Alpha virt. eigenvalues --    0.91135   0.91865   0.92317   0.92872   0.93245
 Alpha virt. eigenvalues --    0.94776   0.95420   0.96747   0.96842   0.97565
 Alpha virt. eigenvalues --    0.99343   1.00012   1.00945   1.01267   1.04977
 Alpha virt. eigenvalues --    1.05659   1.07249   1.09109   1.10902   1.12374
 Alpha virt. eigenvalues --    1.14504   1.15607   1.17312   1.17966   1.19429
 Alpha virt. eigenvalues --    1.20025   1.20477   1.21648   1.22109   1.26115
 Alpha virt. eigenvalues --    1.26382   1.28794   1.32575   1.33118   1.34677
 Alpha virt. eigenvalues --    1.36746   1.38947   1.40232   1.42360   1.43116
 Alpha virt. eigenvalues --    1.43373   1.43786   1.44900   1.45431   1.46458
 Alpha virt. eigenvalues --    1.47400   1.47724   1.48375   1.48833   1.51777
 Alpha virt. eigenvalues --    1.53202   1.54090   1.56108   1.56990   1.58562
 Alpha virt. eigenvalues --    1.61655   1.63034   1.66494   1.68213   1.70072
 Alpha virt. eigenvalues --    1.71383   1.72837   1.73970   1.75226   1.76616
 Alpha virt. eigenvalues --    1.77644   1.79555   1.79803   1.81935   1.82541
 Alpha virt. eigenvalues --    1.84214   1.85618   1.86477   1.87780   1.88152
 Alpha virt. eigenvalues --    1.89826   1.90411   1.91274   1.91579   1.93828
 Alpha virt. eigenvalues --    1.94879   1.95721   1.96781   1.97768   1.98357
 Alpha virt. eigenvalues --    2.01418   2.02633   2.03710   2.04633   2.05975
 Alpha virt. eigenvalues --    2.07240   2.08651   2.09692   2.10350   2.11941
 Alpha virt. eigenvalues --    2.12692   2.14063   2.15862   2.16325   2.17139
 Alpha virt. eigenvalues --    2.18402   2.19745   2.23274   2.23677   2.24381
 Alpha virt. eigenvalues --    2.26647   2.27829   2.28204   2.29706   2.30893
 Alpha virt. eigenvalues --    2.32118   2.34683   2.36031   2.37234   2.38599
 Alpha virt. eigenvalues --    2.40217   2.41612   2.44640   2.47772   2.49313
 Alpha virt. eigenvalues --    2.51846   2.53248   2.53760   2.59085   2.62196
 Alpha virt. eigenvalues --    2.64088   2.66432   2.68411   2.69271   2.72382
 Alpha virt. eigenvalues --    2.75196   2.76479   2.77458   2.82061   2.82980
 Alpha virt. eigenvalues --    2.86050   2.87503   2.88885   2.95680   2.99058
 Alpha virt. eigenvalues --    3.01597   3.03236   3.05406   3.06384   3.11208
 Alpha virt. eigenvalues --    3.12474   3.13180   3.14012   3.16625   3.18624
 Alpha virt. eigenvalues --    3.23892   3.95871   4.04627   4.06018   4.12813
 Alpha virt. eigenvalues --    4.18597   4.19600   4.24395   4.26051   4.29386
 Alpha virt. eigenvalues --    4.34863   4.44267   4.49167   4.52929   4.58828
 Alpha virt. eigenvalues --    4.68641   4.69458   4.78462   5.16913   5.24026
          Condensed to atoms (all electrons):
               1          2          3          4          5          6
     1  N    7.275010   0.304741   0.177813  -0.045841  -0.033024  -0.039090
     2  H    0.304741   0.330228  -0.035443   0.003574  -0.001377  -0.000196
     3  C    0.177813  -0.035443   5.605205   0.354840   0.252182   0.237943
     4  H   -0.045841   0.003574   0.354840   0.446025  -0.018128  -0.022372
     5  C   -0.033024  -0.001377   0.252182  -0.018128   4.398756  -0.025101
     6  C   -0.039090  -0.000196   0.237943  -0.022372  -0.025101   4.331090
     7  H    0.004963   0.000376  -0.081871  -0.000499   0.400188   0.006009
     8  O    0.000641   0.000218  -0.098407   0.001147   0.010514   0.599576
     9  N    0.002512   0.000199  -0.124296   0.000542   0.003590   0.294054
    10  H   -0.000493  -0.000004   0.006871  -0.000119  -0.000079  -0.006950
    11  C    0.004436  -0.000169   0.003572  -0.001942   0.000328  -0.029679
    12  H   -0.014539   0.000098   0.007194   0.001605   0.000076  -0.003983
    13  C    0.000573   0.000001  -0.000699  -0.000044   0.000003   0.001177
    14  C    0.002622  -0.000277  -0.001401   0.000191   0.000003  -0.001251
    15  H   -0.000004   0.000000  -0.000031   0.000021  -0.000001  -0.000062
    16  O   -0.003496  -0.000068   0.000059  -0.000009  -0.000001   0.000091
    17  O   -0.000679   0.001023  -0.000838  -0.000003   0.000002   0.005355
    18  C   -0.000112   0.000118   0.000021   0.000001   0.000000  -0.000157
    19  H   -0.000021  -0.000005   0.000001   0.000000   0.000000  -0.000008
    20  H    0.000479   0.000023   0.000011   0.000000   0.000000  -0.000019
    21  H    0.000010   0.000006  -0.000002   0.000000   0.000000   0.000008
    22  F    0.000000   0.000000   0.000003   0.000000   0.000000  -0.000014
    23  F   -0.000001   0.000000  -0.000004   0.000000   0.000000   0.000259
    24  F   -0.002486  -0.000026  -0.031224   0.000928   0.262741   0.001950
    25  F   -0.003890   0.010760  -0.038804   0.001866   0.255553   0.000669
    26  C    0.238590  -0.010481  -0.029282  -0.000723   0.000596   0.001906
    27  O   -0.106752   0.002548  -0.001848   0.018236  -0.000053  -0.000362
    28  C   -0.114542  -0.000043   0.007094   0.001175  -0.000175  -0.000109
    29  H    0.000531  -0.000028  -0.000117  -0.000014  -0.000005   0.000010
    30  H    0.004200   0.002466  -0.000031  -0.000053  -0.000008  -0.000005
    31  H    0.002746  -0.000102  -0.000180  -0.000013   0.000019  -0.000001
               7          8          9         10         11         12
     1  N    0.004963   0.000641   0.002512  -0.000493   0.004436  -0.014539
     2  H    0.000376   0.000218   0.000199  -0.000004  -0.000169   0.000098
     3  C   -0.081871  -0.098407  -0.124296   0.006871   0.003572   0.007194
     4  H   -0.000499   0.001147   0.000542  -0.000119  -0.001942   0.001605
     5  C    0.400188   0.010514   0.003590  -0.000079   0.000328   0.000076
     6  C    0.006009   0.599576   0.294054  -0.006950  -0.029679  -0.003983
     7  H    0.545771   0.003131   0.000195   0.000002  -0.000024   0.000006
     8  O    0.003131   8.101461  -0.097795   0.005661   0.002796   0.000004
     9  N    0.000195  -0.097795   7.234804   0.291430   0.172479  -0.028973
    10  H    0.000002   0.005661   0.291430   0.333980  -0.031001   0.003033
    11  C   -0.000024   0.002796   0.172479  -0.031001   5.464706   0.347178
    12  H    0.000006   0.000004  -0.028973   0.003033   0.347178   0.456857
    13  C    0.000000  -0.000062  -0.036688  -0.005592   0.295218  -0.017728
    14  C    0.000000  -0.000018  -0.060780  -0.000148   0.276348  -0.036783
    15  H    0.000000  -0.000012   0.003083   0.000479  -0.075762  -0.002078
    16  O    0.000000   0.000000   0.002978   0.000000  -0.065900   0.000700
    17  O    0.000000  -0.000066  -0.002768   0.002090  -0.100685   0.002053
    18  C    0.000000   0.000003  -0.000558  -0.000050   0.007213  -0.000118
    19  H    0.000000   0.000000  -0.000017   0.000000   0.000001   0.000002
    20  H    0.000000   0.000000  -0.000014   0.000006  -0.000108   0.000013
    21  H    0.000000   0.000000  -0.000015   0.000000  -0.000314  -0.000011
    22  F    0.000000   0.000000   0.001589   0.000135  -0.037174   0.001793
    23  F    0.000000   0.000000  -0.000427   0.010308  -0.050939   0.002160
    24  F   -0.036451   0.000044  -0.000016   0.000000   0.000002  -0.000003
    25  F   -0.036376  -0.000994   0.000008   0.000002  -0.000005  -0.000002
    26  C    0.000208  -0.000073   0.000180   0.000003  -0.002937   0.005345
    27  O   -0.000033  -0.000002   0.000253  -0.000002  -0.009076   0.022023
    28  C    0.000003   0.000001  -0.000025  -0.000001  -0.000303   0.000449
    29  H    0.000000   0.000000  -0.000002   0.000000   0.000119  -0.000026
    30  H    0.000000   0.000000   0.000000   0.000000   0.000021  -0.000028
    31  H    0.000000   0.000000   0.000000   0.000000   0.000001  -0.000007
              13         14         15         16         17         18
     1  N    0.000573   0.002622  -0.000004  -0.003496  -0.000679  -0.000112
     2  H    0.000001  -0.000277   0.000000  -0.000068   0.001023   0.000118
     3  C   -0.000699  -0.001401  -0.000031   0.000059  -0.000838   0.000021
     4  H   -0.000044   0.000191   0.000021  -0.000009  -0.000003   0.000001
     5  C    0.000003   0.000003  -0.000001  -0.000001   0.000002   0.000000
     6  C    0.001177  -0.001251  -0.000062   0.000091   0.005355  -0.000157
     7  H    0.000000   0.000000   0.000000   0.000000   0.000000   0.000000
     8  O   -0.000062  -0.000018  -0.000012   0.000000  -0.000066   0.000003
     9  N   -0.036688  -0.060780   0.003083   0.002978  -0.002768  -0.000558
    10  H   -0.005592  -0.000148   0.000479   0.000000   0.002090  -0.000050
    11  C    0.295218   0.276348  -0.075762  -0.065900  -0.100685   0.007213
    12  H   -0.017728  -0.036783  -0.002078   0.000700   0.002053  -0.000118
    13  C    4.388951  -0.014838   0.397124   0.001659  -0.001383   0.000001
    14  C   -0.014838   4.394969   0.006312   0.501717   0.283106  -0.027585
    15  H    0.397124   0.006312   0.538751  -0.000141  -0.000093   0.000007
    16  O    0.001659   0.501717  -0.000141   8.122483  -0.084355   0.001462
    17  O   -0.001383   0.283106  -0.000093  -0.084355   8.282146   0.188797
    18  C    0.000001  -0.027585   0.000007   0.001462   0.188797   4.944771
    19  H    0.000000   0.004220   0.000000   0.000634  -0.030225   0.386003
    20  H   -0.000016  -0.003710   0.000000   0.003988  -0.033243   0.379847
    21  H    0.000055  -0.005579   0.000000   0.004850  -0.030661   0.383471
    22  F    0.271076   0.004787  -0.034255  -0.000896   0.000029   0.000007
    23  F    0.250225   0.005976  -0.036553  -0.000185  -0.000266  -0.000021
    24  F    0.000000   0.000000   0.000000   0.000000   0.000000   0.000000
    25  F    0.000000   0.000002   0.000000   0.000000   0.000000   0.000000
    26  C    0.000012   0.000786  -0.000007   0.006607  -0.000479  -0.000040
    27  O    0.000029  -0.000640   0.000000  -0.000838   0.000017   0.000002
    28  C    0.000001   0.000914   0.000000  -0.004396  -0.000081  -0.000205
    29  H   -0.000007  -0.000346   0.000000   0.007395  -0.000051   0.000021
    30  H    0.000000  -0.000069   0.000000  -0.000056   0.000001  -0.000077
    31  H    0.000000   0.000044   0.000000   0.000110  -0.000002   0.000004
              19         20         21         22         23         24
     1  N   -0.000021   0.000479   0.000010   0.000000  -0.000001  -0.002486
     2  H   -0.000005   0.000023   0.000006   0.000000   0.000000  -0.000026
     3  C    0.000001   0.000011  -0.000002   0.000003  -0.000004  -0.031224
     4  H    0.000000   0.000000   0.000000   0.000000   0.000000   0.000928
     5  C    0.000000   0.000000   0.000000   0.000000   0.000000   0.262741
     6  C   -0.000008  -0.000019   0.000008  -0.000014   0.000259   0.001950
     7  H    0.000000   0.000000   0.000000   0.000000   0.000000  -0.036451
     8  O    0.000000   0.000000   0.000000   0.000000   0.000000   0.000044
     9  N   -0.000017  -0.000014  -0.000015   0.001589  -0.000427  -0.000016
    10  H    0.000000   0.000006   0.000000   0.000135   0.010308   0.000000
    11  C    0.000001  -0.000108  -0.000314  -0.037174  -0.050939   0.000002
    12  H    0.000002   0.000013  -0.000011   0.001793   0.002160  -0.000003
    13  C    0.000000  -0.000016   0.000055   0.271076   0.250225   0.000000
    14  C    0.004220  -0.003710  -0.005579   0.004787   0.005976   0.000000
    15  H    0.000000   0.000000   0.000000  -0.034255  -0.036553   0.000000
    16  O    0.000634   0.003988   0.004850  -0.000896  -0.000185   0.000000
    17  O   -0.030225  -0.033243  -0.030661   0.000029  -0.000266   0.000000
    18  C    0.386003   0.379847   0.383471   0.000007  -0.000021   0.000000
    19  H    0.487263  -0.027217  -0.025915   0.000000   0.000000   0.000000
    20  H   -0.027217   0.524496  -0.032768   0.000000   0.000000   0.000000
    21  H   -0.025915  -0.032768   0.505180  -0.000003   0.000003   0.000000
    22  F    0.000000   0.000000  -0.000003   9.119839  -0.034493   0.000000
    23  F    0.000000   0.000000   0.000003  -0.034493   9.167400   0.000000
    24  F    0.000000   0.000000   0.000000   0.000000   0.000000   9.147902
    25  F    0.000000   0.000000   0.000000   0.000000   0.000000  -0.036069
    26  C    0.000000  -0.000034  -0.000005  -0.000012   0.000000   0.005663
    27  O    0.000000  -0.000005   0.000000   0.000000   0.000000  -0.000425
    28  C    0.000000   0.000707   0.000010   0.000000   0.000000  -0.000034
    29  H    0.000002   0.000282  -0.000018   0.000000   0.000000   0.000000
    30  H    0.000001   0.000591  -0.000002   0.000000   0.000000   0.000009
    31  H    0.000000   0.000012   0.000000   0.000000   0.000000   0.000003
              25         26         27         28         29         30
     1  N   -0.003890   0.238590  -0.106752  -0.114542   0.000531   0.004200
     2  H    0.010760  -0.010481   0.002548  -0.000043  -0.000028   0.002466
     3  C   -0.038804  -0.029282  -0.001848   0.007094  -0.000117  -0.000031
     4  H    0.001866  -0.000723   0.018236   0.001175  -0.000014  -0.000053
     5  C    0.255553   0.000596  -0.000053  -0.000175  -0.000005  -0.000008
     6  C    0.000669   0.001906  -0.000362  -0.000109   0.000010  -0.000005
     7  H   -0.036376   0.000208  -0.000033   0.000003   0.000000   0.000000
     8  O   -0.000994  -0.000073  -0.000002   0.000001   0.000000   0.000000
     9  N    0.000008   0.000180   0.000253  -0.000025  -0.000002   0.000000
    10  H    0.000002   0.000003  -0.000002  -0.000001   0.000000   0.000000
    11  C   -0.000005  -0.002937  -0.009076  -0.000303   0.000119   0.000021
    12  H   -0.000002   0.005345   0.022023   0.000449  -0.000026  -0.000028
    13  C    0.000000   0.000012   0.000029   0.000001  -0.000007   0.000000
    14  C    0.000002   0.000786  -0.000640   0.000914  -0.000346  -0.000069
    15  H    0.000000  -0.000007   0.000000   0.000000   0.000000   0.000000
    16  O    0.000000   0.006607  -0.000838  -0.004396   0.007395  -0.000056
    17  O    0.000000  -0.000479   0.000017  -0.000081  -0.000051   0.000001
    18  C    0.000000  -0.000040   0.000002  -0.000205   0.000021  -0.000077
    19  H    0.000000   0.000000   0.000000   0.000000   0.000002   0.000001
    20  H    0.000000  -0.000034  -0.000005   0.000707   0.000282   0.000591
    21  H    0.000000  -0.000005   0.000000   0.000010  -0.000018  -0.000002
    22  F    0.000000  -0.000012   0.000000   0.000000   0.000000   0.000000
    23  F    0.000000   0.000000   0.000000   0.000000   0.000000   0.000000
    24  F   -0.036069   0.005663  -0.000425  -0.000034   0.000000   0.000009
    25  F    9.160179   0.000121  -0.000003   0.000001   0.000000  -0.000016
    26  C    0.000121   4.337771   0.547315   0.373891  -0.020868  -0.028088
    27  O   -0.000003   0.547315   8.137341  -0.077064  -0.000666   0.003015
    28  C    0.000001   0.373891  -0.077064   5.304431   0.363074   0.358256
    29  H    0.000000  -0.020868  -0.000666   0.363074   0.461334  -0.021244
    30  H   -0.000016  -0.028088   0.003015   0.358256  -0.021244   0.518877
    31  H    0.000000  -0.021764   0.000083   0.366682  -0.017138  -0.021673
              31
     1  N    0.002746
     2  H   -0.000102
     3  C   -0.000180
     4  H   -0.000013
     5  C    0.000019
     6  C   -0.000001
     7  H    0.000000
     8  O    0.000000
     9  N    0.000000
    10  H    0.000000
    11  C    0.000001
    12  H   -0.000007
    13  C    0.000000
    14  C    0.000044
    15  H    0.000000
    16  O    0.000110
    17  O   -0.000002
    18  C    0.000004
    19  H    0.000000
    20  H    0.000012
    21  H    0.000000
    22  F    0.000000
    23  F    0.000000
    24  F    0.000003
    25  F    0.000000
    26  C   -0.021764
    27  O    0.000083
    28  C    0.366682
    29  H   -0.017138
    30  H   -0.021673
    31  H    0.475497
 Mulliken charges:
               1
     1  N   -0.654898
     2  H    0.391842
     3  C   -0.208334
     4  H    0.259607
     5  C    0.493401
     6  C    0.649262
     7  H    0.194402
     8  O   -0.527766
     9  N   -0.655525
    10  H    0.390438
    11  C   -0.168399
    12  H    0.253687
    13  C    0.470952
    14  C    0.671428
    15  H    0.203219
    16  O   -0.494393
    17  O   -0.478743
    18  C   -0.262825
    19  H    0.205282
    20  H    0.186681
    21  H    0.201697
    22  F   -0.292414
    23  F   -0.313443
    24  F   -0.312508
    25  F   -0.313002
    26  C    0.595798
    27  O   -0.533095
    28  C   -0.579708
    29  H    0.227763
    30  H    0.183915
    31  H    0.215680
 Sum of Mulliken charges =   0.00000
 Mulliken charges with hydrogens summed into heavy atoms:
               1
     1  N   -0.263056
     3  C    0.051273
     5  C    0.687803
     6  C    0.649262
     8  O   -0.527766
     9  N   -0.265087
    11  C    0.085288
    13  C    0.674171
    14  C    0.671428
    16  O   -0.494393
    17  O   -0.478743
    18  C    0.330835
    22  F   -0.292414
    23  F   -0.313443
    24  F   -0.312508
    25  F   -0.313002
    26  C    0.595798
    27  O   -0.533095
    28  C    0.047650
 Electronic spatial extent (au):  <R**2>=           4712.6560
 Charge=              0.0000 electrons
 Dipole moment (field-independent basis, Debye):
    X=             -0.6323    Y=              0.1260    Z=              2.5439  Tot=              2.6244
 Quadrupole moment (field-independent basis, Debye-Ang):
   XX=           -117.1126   YY=           -108.0220   ZZ=           -102.1860
   XY=              7.5297   XZ=             -4.0938   YZ=             17.5233
 Traceless Quadrupole moment (field-independent basis, Debye-Ang):
   XX=             -8.0057   YY=              1.0849   ZZ=              6.9209
   XY=              7.5297   XZ=             -4.0938   YZ=             17.5233
 Octapole moment (field-independent basis, Debye-Ang**2):
  XXX=              1.1582  YYY=             20.6109  ZZZ=             31.3337  XYY=             -0.2034
  XXY=            -14.9618  XXZ=              3.4796  XZZ=            -25.1081  YZZ=             -7.5950
  YYZ=             -3.0851  XYZ=              3.5346
 Hexadecapole moment (field-independent basis, Debye-Ang**3):
 XXXX=          -3063.9758 YYYY=          -1538.2095 ZZZZ=           -836.6895 XXXY=            -30.7815
 XXXZ=            -14.8031 YYYX=             96.5634 YYYZ=             27.1098 ZZZX=              7.2574
 ZZZY=             59.7277 XXYY=           -715.7079 XXZZ=           -615.0736 YYZZ=           -407.5313
 XXYZ=             57.1922 YYXZ=             -6.9325 ZZXY=             -2.6252
 N-N= 1.701541661899D+03 E-N=-6.130083770136D+03  KE= 1.150903698326D+03
 No NMR shielding tensors so no spin-rotation constants.
 Leave Link  601 at Mon Dec 30 11:33:57 2019, MaxMem=  4294967296 cpu:              19.1 elap:               1.5
 (Enter /n/sw/g16_nehalem/g16/l701.exe)
 ... and contract with generalized density number  0.
 Compute integral first derivatives.
 D1PCM: PCM CHGder 1st derivatives, ID1Alg=3 FixD1E=F DoIter=F DoCFld=F I1PDM=0.
 GePol: Maximum number of non-zero 1st derivatives   =     333
 Leave Link  701 at Mon Dec 30 11:33:59 2019, MaxMem=  4294967296 cpu:              19.6 elap:               1.7
 (Enter /n/sw/g16_nehalem/g16/l702.exe)
 L702 exits ... SP integral derivatives will be done elsewhere.
 Leave Link  702 at Mon Dec 30 11:33:59 2019, MaxMem=  4294967296 cpu:               0.8 elap:               0.1
 (Enter /n/sw/g16_nehalem/g16/l703.exe)
 Integral derivatives from FoFJK, PRISM(SPDF).
 Compute integral first derivatives, UseDBF=F ICtDFT=           0.
 Calling FoFJK, ICntrl=      2127 FMM=F ISym2X=0 I1Cent= 0 IOpClX= 0 NMat=1 NMatS=1 NMatT=0.
 FoFJK:  IHMeth= 1 ICntrl=    2127 DoSepK=F KAlg= 0 I1Cent=           0 FoldK=F
 IRaf=         0 NMat=       1 IRICut=       1 DoRegI=T DoRafI=F ISym2E= 0 IDoP0=0 IntGTp=1.
 FoFCou: FMM=F IPFlag=           0 FMFlag=      100000 FMFlg1=         800
         NFxFlg=           0 DoJE=F BraDBF=F KetDBF=F FulRan=T
         wScrn=  0.000000 ICntrl=      2127 IOpCl=  0 I1Cent=           0 NGrid=           0
         NMat0=    1 NMatS0=      1 NMatT0=    0 NMatD0=    1 NMtDS0=    0 NMtDT0=    0
 Symmetry not used in FoFCou.
 Leave Link  703 at Mon Dec 30 11:34:05 2019, MaxMem=  4294967296 cpu:              88.7 elap:               5.7
 (Enter /n/sw/g16_nehalem/g16/l716.exe)
 Dipole        =-2.48773614D-01 4.95817239D-02 1.00085721D+00
 ***** Axes restored to original set *****
 -------------------------------------------------------------------
 Center     Atomic                   Forces (Hartrees/Bohr)
 Number     Number              X              Y              Z
 -------------------------------------------------------------------
      1        7           0.000006523    0.000015358   -0.000026733
      2        1          -0.000007929    0.000016149    0.000001046
      3        6          -0.000005801    0.000030196    0.000027588
      4        1           0.000006767   -0.000007644   -0.000003038
      5        6           0.000008145    0.000008411    0.000025876
      6        6          -0.000000876   -0.000016853   -0.000002156
      7        1           0.000008404    0.000008210    0.000016365
      8        8           0.000009086    0.000016952    0.000016800
      9        7           0.000037156   -0.000000074    0.000022804
     10        1           0.000007983   -0.000002830    0.000008883
     11        6          -0.000005329   -0.000018951    0.000006417
     12        1           0.000006000   -0.000011440   -0.000009635
     13        6           0.000014120   -0.000007769   -0.000006143
     14        6          -0.000008152    0.000008885   -0.000018016
     15        1           0.000014724   -0.000026613    0.000007234
     16        8          -0.000006763   -0.000017898   -0.000004198
     17        8           0.000010013    0.000004296    0.000005461
     18        6          -0.000019709    0.000003299   -0.000017428
     19        1          -0.000013001    0.000010122   -0.000005054
     20        1          -0.000009190    0.000005384   -0.000011251
     21        1          -0.000010423    0.000001383   -0.000012557
     22        9           0.000005419   -0.000019515   -0.000005561
     23        9           0.000014130   -0.000016518   -0.000000450
     24        9          -0.000002022    0.000013229    0.000002480
     25        9          -0.000006108    0.000021704    0.000009512
     26        6          -0.000004600   -0.000015675    0.000032218
     27        8           0.000003857   -0.000010895   -0.000003645
     28        6          -0.000010385    0.000010891   -0.000026429
     29        1          -0.000007042   -0.000003588   -0.000012715
     30        1          -0.000015879   -0.000005766    0.000000454
     31        1          -0.000019115    0.000007558   -0.000018129
 -------------------------------------------------------------------
 Cartesian Forces:  Max     0.000037156 RMS     0.000013581
[...]
 0.00100872,-0.00000541,0.00001633,0.00000844,-0.00014317,0.00010405,0.
 00033260,0.00006027,0.00009603,0.00081554,0.00000425,-0.00015760,-0.00
 028110,-0.00005655,-0.00000402,0.00006543,-0.00001870,0.00007348,-0.00
 000997,0.00002000,0.00004158,0.00004964,-0.00022280,0.00009583,-0.0000
 5605,-0.00032769,-0.00012182,0.00014255,0.01671179,0.02774520,-0.05993
 425,0.06707048,0.03283195,0.38976584,-0.05648987,0.02905482,-0.0231337
 5,-0.00768549,0.00536644,-0.00336510,-0.00593491,0.01111415,-0.0009391
 4,0.00144860,-0.00065638,-0.00099656,-0.00072059,0.00419841,-0.0019100
 4,0.00448083,-0.00051837,-0.00252918,-0.00015509,-0.00021261,0.0002196
 0,-0.00125695,-0.00119081,0.00135343,-0.00252004,-0.00016399,-0.000197
 81,-0.00026606,0.00032149,0.00001563,0.00050532,-0.00204729,0.00065190
 ,-0.00252368,-0.00307283,-0.00092361,-0.00065327,-0.00041200,0.0000270
 2,-0.00102173,-0.00693383,0.00516626,0.00014333,0.00010427,0.00005324,
 0.00109285,0.00399086,-0.00146773,-0.00121056,0.00105532,-0.00301148,-
 0.00020798,0.00038981,0.00061445,0.00003791,0.00002207,-0.00010770,0.0
 0012229,-0.00005403,-0.00000759,0.00001558,-0.00004840,0.00002253,-0.0
 0001797,0.00027566,-0.00006502,0.00033562,0.00029111,-0.00020887,0.000
 73202,-0.00166427,0.00036698,-0.00000139,-0.00002710,0.00083410,0.2539
 5297,0.05161420,-0.25862611,0.08156787,-0.00629727,0.01463633,-0.00381
 919,0.00099863,-0.04473294,0.00651017,0.00037448,-0.00005459,0.0017526
 1,0.00353516,0.00132189,0.00117582,-0.00056562,-0.00585690,0.00152680,
 -0.00213913,0.00037573,-0.00038200,0.00037573,0.00212671,-0.00093548,0
 .00217518,0.00087626,0.00041438,-0.00010553,-0.00057367,0.00013659,0.0
 0006852,0.00005747,0.00014101,-0.00156968,-0.00091294,-0.00223721,-0.0
 0259692,0.00051789,-0.00106614,-0.00766175,0.00480762,0.00000078,0.000
 34899,0.00010219,0.00012713,0.00078912,-0.00501912,0.00018823,0.002893
 54,-0.00142330,-0.00038247,-0.00028452,0.00133210,0.00152258,-0.000075
 77,-0.00013156,-0.00008777,-0.00019961,0.00005798,-0.00020350,0.000087
 50,-0.00019581,-0.00015967,0.00105044,-0.00073398,0.00058252,0.0011575
 8,0.00045069,-0.00026564,-0.00215265,0.00016108,0.00083645,-0.00228224
 ,0.00144561,-0.00051247,-0.04109149,0.62721702,-0.03806628,0.04989235,
 -0.17377584,0.00234366,0.02524247,-0.01750438,0.00394082,0.00378805,0.
 02665298,0.00067467,-0.00651449,-0.00244824,-0.00466619,-0.00940226,-0
 .00332315,0.00937370,0.00179395,-0.00796029,0.00381644,-0.00022737,0.0
 0085158,-0.00235431,-0.00345921,0.00369877,-0.00369457,-0.00070984,-0.
 00141798,-0.00053787,0.00095322,0.00001251,0.00076933,-0.00094064,0.00
 208530,-0.00460054,-0.00630494,0.00164463,0.00014165,-0.00122976,0.000
 33269,0.00563740,0.00063710,0.00401188,-0.00023179,-0.00008102,-0.0001
 1254,-0.00119670,0.00096876,-0.00236625,-0.00240579,0.00012195,-0.0014
 4471,0.00055080,-0.00011723,-0.00104643,-0.00002646,-0.00008271,0.0000
 2729,0.00013766,-0.00025742,-0.00021033,-0.00016441,0.00002929,0.00011
 294,-0.00044268,0.00067286,-0.00062579,0.00049626,0.00046299,-0.000447
 60,0.00188737,0.00218109,-0.00241959,0.00020853,-0.00028264,-0.0003507
 9,0.11097009,0.06947538,0.98297393,0.01492664,0.00996339,-0.02224038,0
 .00650421,0.00214031,-0.00126330,-0.00176087,-0.00257370,-0.00120859,-
 0.00145147,0.00011312,-0.00047536,0.00081086,-0.00035172,0.00158213,-0
 .00337847,-0.00166674,-0.00037256,-0.00032035,0.00009890,-0.00016954,0
 .00110148,0.00043944,0.00002974,0.00128561,-0.00016563,0.00086434,0.00
 037304,-0.00018270,0.00013019,-0.00123153,0.00019775,-0.00088885,0.001
 00129,0.00206621,0.00049892,0.00130650,0.00070613,0.00059642,-0.000568
 81,0.00112354,-0.00344488,-0.00010987,-0.00007869,-0.00002950,-0.00063
 070,-0.00090094,0.00132788,0.00070929,-0.00021499,0.00216510,0.0000554
 2,-0.00030422,-0.00026680,-0.00001108,0.00002088,0.00007481,-0.0000659
 0,0.00009023,0.00005464,0.00001232,0.00005325,-0.00000239,-0.00020898,
 -0.00014667,-0.00003779,-0.00085763,-0.00056153,0.00028835,-0.00047157
 ,0.00048459,-0.00055164,-0.00017917,0.00006434,-0.00045691,-0.09254642
 ,-0.01030884,-0.08674229,0.05510379,0.00895310,0.01459274,0.04800225,0
 .00154664,-0.00549756,0.00258955,0.00049959,-0.00145881,0.00144298,0.0
 0014266,0.00012356,0.00400111,-0.00341789,0.00077745,0.00136926,0.0013
 3927,0.00264229,0.00050567,0.00004462,-0.00005656,-0.00006773,-0.00018
 167,-0.00150523,0.00023652,-0.00111335,-0.00063879,0.00032423,0.000258
 98,0.00011634,-0.00003278,-0.00075220,-0.00060476,0.00010487,0.0014652
 6,0.00081309,0.00023280,0.00152912,0.00024612,0.00075760,0.00099147,-0
 .00263102,-0.00114181,-0.00008722,-0.00002998,-0.00001021,0.00007651,0
 .00181075,0.00003232,-0.00038784,0.00069768,0.00085378,0.00004150,-0.0
 0048515,-0.00037228,0.00002273,0.00006442,0.00004373,0.00001651,0.0000
 4749,0.00011734,-0.00000382,0.00007005,0.00004292,-0.00052129,0.000275
 52,-0.00023496,-0.00085397,-0.00038424,0.00019361,0.00103624,0.0003161
 4,-0.00006288,0.00189140,-0.00030165,0.00112478,-0.00868305,-0.1225645
 1,-0.07816536,0.00086538,0.11512061,-0.01479333,0.05254814,-0.09035923
 ,-0.00244162,0.00649466,0.00296334,-0.00041184,-0.01139848,-0.00738876
 ,-0.00051042,0.00390967,0.00024447,0.00322402,0.00347413,-0.00019835,-
 0.00395477,-0.00215563,0.00344979,-0.00176708,0.00012471,-0.00033396,0
 .00099481,0.00142422,-0.00130075,0.00205608,0.00046890,0.00082162,0.00
 020423,-0.00055222,-0.00001602,-0.00070247,0.00049407,-0.00121751,0.00
 186556,0.00275326,-0.00106789,-0.00022149,0.00060573,-0.00037954,-0.00
 319173,0.00025246,-0.00262577,0.00015546,0.00007139,0.00006085,0.00050
 788,-0.00086164,0.00106101,0.00167159,0.00000034,0.00076709,-0.0003534
 4,0.00001710,0.00054805,-0.00000244,0.00004413,-0.00000332,-0.00014022
 ,0.00015306,0.00013713,0.00011509,-0.00001081,-0.00005421,0.00029947,-
 0.00039630,0.00042139,-0.00023160,-0.00023503,0.00031571,-0.00131077,-
 0.00125299,0.00128357,-0.00075933,0.00080647,0.00079212,-0.08732748,-0
 .09852194,-0.69162693,0.11384825,0.06473404,0.81930502,0.01109097,0.00
 752154,-0.00065419,-0.00249967,0.00012090,0.00159186,0.00736672,0.0018
 0918,-0.00108845,0.00007760,0.00013065,-0.00013123,0.00011752,-0.00171
 565,-0.00084736,-0.00108670,0.00047693,0.00175458,0.00031606,0.0000489
 2,0.00010812,0.00016282,0.00058537,-0.00066213,0.00039126,0.00029249,-
 0.00013633,-0.00000944,-0.00010905,-0.00008975,0.00003687,0.00006171,0
 .00034320,0.00014612,-0.00000339,-0.00016300,-0.00023214,-0.00001254,-
 0.00013801,-0.00050871,0.00051640,0.00026160,0.00000810,-0.00000174,-0
 .00000049,-0.00049975,-0.00098508,0.00006047,0.00015874,-0.00022465,-0
 .00034052,0.00005949,0.00024294,0.00009802,-0.00002115,-0.00003751,-0.
 00000585,0.00016389,0.00001971,-0.00009028,-0.00004216,-0.00006254,-0.
 00001504,0.00008716,-0.00004344,0.00003165,0.00014038,0.00006647,-0.00
 004602,-0.00014303,0.00019024,-0.00001713,-0.00019696,0.00011198,-0.00
 007138,-0.08846723,0.00432274,0.00111860,0.01747096,-0.00499086,-0.005
 46443,0.56596440,0.00660524,-0.03480065,-0.00874381,-0.00038793,-0.001
 13282,-0.00107940,-0.00011877,0.00114023,0.00288576,-0.00009882,0.0003
 3416,-0.00011223,-0.00086645,-0.00081569,-0.00045096,0.00072420,0.0003
 9915,-0.00070006,0.00033509,-0.00002184,0.00010172,-0.00015494,-0.0005
 8859,0.00040302,-0.00017752,-0.00029578,-0.00002631,0.00001061,0.00009
 582,-0.00000602,0.00003258,-0.00006765,-0.00015444,0.00001072,-0.00011
 285,0.00001366,0.00042046,0.00000628,0.00017642,-0.00000938,0.00089694
 ,-0.00074352,-0.00005045,-0.00001609,-0.00002000,-0.00114080,-0.001537
 27,0.00010324,-0.00006250,-0.00009796,0.00096982,0.00012647,-0.0001027
 6,-0.00029393,-0.00002090,-0.00001788,0.00003877,0.00003341,-0.0000450
 4,-0.00006657,-0.00006359,0.00000712,0.00003143,-0.00014455,0.00005625
 ,-0.00007704,-0.00019511,-0.00008162,0.00005354,0.00028863,0.00021492,
 -0.00012714,0.00018722,0.00001595,0.00023644,0.00743672,-0.19103924,-0
 .04070352,-0.00130487,0.00142001,-0.01820511,0.00910630,0.51713834,-0.
 00383161,0.01771745,0.01188359,0.00055001,0.00123293,0.00043620,-0.001
 64174,0.00327965,-0.00181663,-0.00017803,0.00051996,-0.00044351,0.0006
 2223,0.00101263,0.00067690,-0.00102939,-0.00022522,0.00072214,-0.00031
 649,0.00001552,-0.00010515,0.00019563,0.00040434,-0.00045013,0.0002123
 3,0.00011902,0.00008592,0.00003177,-0.00004072,0.00001436,-0.00007082,
 0.00003554,-0.00013497,0.00024534,0.00024175,-0.00021269,-0.00003800,0
 .00000523,-0.00003992,0.00032185,-0.00111486,0.00072856,0.00002092,0.0
 0001461,0.00000860,0.00059606,0.00109868,-0.00011850,-0.00016529,0.000
 13564,-0.00029967,-0.00005880,0.00008400,0.00014822,0.00001602,0.00002
 526,-0.00002496,0.00006338,-0.00014750,0.00003767,-0.00001298,-0.00004
 322,-0.00001003,0.00002724,-0.00000545,0.00004705,-0.00001547,-0.00001
 063,0.00002401,-0.00014132,-0.00016487,0.00005974,-0.00003591,-0.00010
 602,-0.00025272,0.00476967,-0.05323654,-0.11055951,-0.00149933,-0.0410
 5406,-0.03327554,0.01453358,-0.03837348,0.60547049,-0.00060981,-0.0005
 1060,0.00079925,0.00003557,-0.00011840,0.00008517,-0.00010576,0.000088
 15,0.00001642,-0.00001053,0.00003797,0.00001407,-0.00000714,-0.0000034
 1,-0.00000869,-0.00003702,-0.00001164,0.00001169,-0.00000411,0.0000032
 6,-0.00000140,0.00000483,-0.00002415,-0.00000160,-0.00000268,-0.000011
 46,0.00002138,-0.00000322,0.00000961,0.00000027,0.00000696,0.00003342,
 -0.00016611,-0.00001798,-0.00001082,-0.00000426,0.00000332,-0.00004681
 ,0.00001002,0.00040517,-0.00074500,0.00036751,0.00000518,0.00000628,0.
 00000157,-0.00155779,-0.00062176,-0.00015174,-0.00013674,0.00013882,-0
 .00020479,0.00002548,0.00013625,0.00007619,-0.00000304,0.00000347,-0.0
 0000215,0.00004060,-0.00000616,-0.00005381,-0.00003064,-0.00002292,0.0
 0000977,0.00000194,0.00001757,0.00001462,-0.00001495,0.00000405,0.0000
 1023,0.00001247,0.00000869,0.00000845,0.00001390,0.00000679,0.00000940
 ,0.00001355,0.00181622,0.00041255,0.00059066,-0.00039213,-0.00065472,-
 0.30127410,0.08427882,-0.00978898,0.32398163,-0.00197208,-0.00315570,-
 0.00115974,0.00058700,0.00015980,-0.00056353,-0.00157284,-0.00104364,0
 .00054434,-0.00001434,0.00003010,-0.00000259,-0.00021890,0.00028499,0.
 00007369,0.00099369,0.00000503,-0.00052649,-0.00000779,-0.00001081,-0.
 00000800,-0.00025608,-0.00016428,0.00017602,-0.00053708,0.00011441,0.0
 0011072,-0.00004053,0.00000710,0.00000437,0.00007614,-0.00026658,-0.00
 016629,-0.00002002,0.00000709,0.00001732,-0.00021530,-0.00013602,-0.00
 004753,0.00103714,-0.00340294,0.00154033,0.00006478,0.00003918,0.00002
 762,-0.00012902,0.00193478,-0.00031489,-0.00042151,0.00061405,-0.00142
 133,-0.00016653,0.00017838,0.00038130,0.00003114,0.00004063,-0.0000515
 6,0.00008249,-0.00003705,0.00007699,0.00002726,-0.00002619,-0.00000573
 ,0.00002450,0.00007740,0.00006047,0.00004703,0.00006098,-0.00000596,0.
 00008675,-0.00001958,-0.00001427,0.00008009,-0.00003025,0.00005920,0.0
 3325978,-0.01082013,0.00179815,-0.00374419,0.00109997,0.00114497,0.085
 74636,-0.07063278,0.00087803,-0.09126463,0.07792533,-0.00032652,-0.000
 53795,-0.00025988,-0.00019098,-0.00019769,0.00023107,-0.00017826,-0.00
 016907,0.00021568,-0.00001907,0.00008653,0.00001145,-0.00010959,0.0000
 2288,-0.00007615,0.00009215,0.00011223,-0.00014625,0.00000570,-0.00000
 135,0.00000885,0.00000587,-0.00013267,0.00009264,0.00000130,-0.0000640
 5,-0.00002375,0.00000693,0.00002010,0.00001677,-0.00001461,-0.00003258
 ,-0.00001510,0.00005312,0.00003138,0.00003674,0.00011197,-0.00002595,0
 .00008655,0.00014700,0.00011295,-0.00006801,-0.00001555,-0.00000517,-0
 .00000649,0.00008407,0.00008953,-0.00004283,-0.00014992,-0.00006565,-0
 .00016146,0.00016317,0.00025990,0.00010816,-0.00004859,-0.00006577,0.0
 0001240,-0.00013651,0.00002903,-0.00018211,-0.00001390,-0.00002276,0.0
 0000854,-0.00004477,0.00003887,-0.00004249,-0.00003961,-0.00001548,-0.
 00000918,0.00005151,-0.00000778,0.00002040,0.00005212,0.00001489,0.000
 06581,0.01631298,-0.00241247,-0.00023874,-0.00265884,-0.00070014,-0.00
 064410,-0.00905514,0.00089846,-0.04786503,0.00994158,-0.00112597,0.046
 90321,-0.00050436,0.00025995,0.00027902,-0.00008528,0.00012092,-0.0000
 6835,0.00004608,-0.00015152,0.00008983,0.00001233,0.00001569,0.0000483
 8,0.00004133,0.00008266,0.00001300,0.00008800,0.00002709,-0.00004462,0
 .00000241,-0.00001098,-0.00000117,-0.00003112,-0.00002767,0.00002349,-
 0.00004965,-0.00000863,0.00002845,-0.00000025,-0.00000530,-0.00000826,
 -0.00001037,-0.00000221,-0.00000572,-0.00001094,0.00002230,0.00002771,
 0.00000852,0.00002177,-0.00002759,-0.00014919,0.00016428,-0.00053295,0
 .00000231,0.00000100,0.00000217,0.00000307,-0.00021832,0.00034105,0.00
 011660,0.00004558,0.00043404,-0.00014994,-0.00039172,-0.00015202,0.000
 03742,0.00005411,0.00000164,-0.00027138,-0.00003189,0.00024326,0.00004
 628,0.00007018,-0.00000049,0.00000045,-0.00001112,0.00001328,-0.000011
 38,-0.00000727,0.00001947,-0.00002608,-0.00005584,-0.00000401,-0.00001
 246,-0.00003935,-0.00001079,-0.00284664,0.00028632,0.00403100,0.002281
 98,0.00105108,0.00040192,-0.07435434,0.00267183,-0.08310567,-0.0061521
 2,0.00005555,-0.02983323,0.07522236,0.00024557,-0.00082696,0.00098101,
 0.00029771,-0.00135970,-0.00009745,0.00004852,0.00068790,0.00033542,-0
 .00011114,0.00039054,-0.00021708,-0.00007163,0.00001901,-0.00017582,-0
 .00010398,0.00010863,0.00003471,0.00000657,0.00000119,0.00001511,0.000
 03393,-0.00002622,-0.00000649,0.00000492,-0.00001054,0.00003109,0.0000
 1125,-0.00000424,-0.00000011,-0.00003636,0.00001617,-0.00004099,0.0001
 2494,0.00013694,-0.00000790,0.00007512,0.00000796,0.00002471,0.0000728
 2,-0.00012818,-0.00016280,-0.00000339,-0.00000003,-0.00000091,0.000034
 95,0.00012851,0.00007084,0.00004424,0.00002144,0.00003356,-0.00000760,
 -0.00003304,0.00001419,-0.00000614,0.00000105,0.00000560,-0.00017840,0
 .00002314,0.00008879,0.00001452,0.00001824,0.00000502,-0.00002199,0.00
 001206,-0.00000584,-0.00004041,-0.00002072,0.00001426,0.00001770,-0.00
 001523,0.00004447,0.00003877,0.00003176,0.00011610,-0.01124484,0.00863
 522,-0.02773299,0.00116465,-0.00756862,-0.00588605,0.00426035,-0.05293
 053,0.01558141,0.00133427,-0.00110818,0.01028547,-0.00505989,0.0536726
 1,-0.00007432,0.00103833,0.00130517,-0.00001695,-0.00057912,0.00092874
 ,0.00043867,-0.00016001,0.00027655,-0.00004368,0.00023074,0.00008912,-
 0.00020158,-0.00016147,-0.00014182,0.00002149,0.00016397,-0.00005076,0
 .00003787,0.00000599,0.00000987,0.00002469,-0.00011249,0.00005285,-0.0
 0001500,-0.00004433,0.00003391,0.00001473,0.00000659,0.00000131,-0.000
 03006,0.00002168,-0.00005621,0.00009522,0.00011635,0.00000874,0.000101
 55,0.00004383,0.00001748,-0.00012431,0.00005025,-0.00035315,-0.0000068
 8,-0.00000265,-0.00000198,-0.00013073,-0.00022713,0.00014896,0.0000059
 8,-0.00002925,0.00019487,-0.00000792,-0.00009225,-0.00009284,0.0000208
 8,0.00002888,0.00000211,0.00010991,0.00008530,0.00004776,0.00001012,0.
 00001920,-0.00000073,-0.00002600,-0.00000535,-0.00000299,-0.00005825,-
 0.00003526,0.00002865,0.00006698,0.00004087,0.00002441,0.00008162,0.00
 003829,0.00009664,-0.00353679,0.00771704,-0.01294435,-0.00021078,-0.00
 501090,-0.00124375,-0.08166111,0.01011341,-0.30301888,0.00062161,0.000
 19771,0.00161222,0.08961899,-0.01286352,0.32553693,-0.00070370,0.00087
 540,0.00034658,0.00027708,-0.00004112,0.00004060,-0.00030578,0.0003188
 1,0.00008066,0.00000007,0.00001069,-0.00000405,0.00009378,0.00016647,-
 0.00000200,-0.00015775,-0.00000617,-0.00001694,-0.00002973,-0.00000492
 ,-0.00000650,0.00004572,-0.00003303,0.00000963,0.00010667,-0.00007274,
 -0.00002932,0.00001075,0.00001786,0.00001000,-0.00002749,0.00005731,-0
 .00004550,-0.00001400,-0.00001799,0.00003131,0.00011756,0.00001379,0.0
 0005886,-0.00030015,0.00092316,-0.00046899,-0.00002307,-0.00001178,-0.
 00000944,-0.00056977,-0.00108904,0.00009619,0.00009281,-0.00017700,0.0
 0045171,0.00005936,-0.00003269,-0.00011615,-0.00001270,-0.00001527,0.0
 0001732,-0.00005586,-0.00000534,-0.00000599,-0.00000922,0.00001231,0.0
 0000617,-0.00002993,0.00000151,-0.00003317,-0.00003538,-0.00002232,0.0
 0000050,-0.00003036,-0.00009005,0.00002842,-0.00001051,-0.00002222,-0.
 00000125,0.00164501,0.00543666,-0.00138063,0.00025875,-0.00038680,-0.0
 0110518,-0.13442368,-0.10747171,0.07972380,-0.01517363,-0.02161887,0.0
 1580560,0.00675634,0.00905497,-0.00512594,0.14244879,0.00151265,-0.004
 22572,-0.00333209,-0.00039664,0.00005851,-0.00024857,0.00088016,-0.000
 30172,0.00072934,-0.00001488,0.00003278,-0.00001008,-0.00048961,-0.000
 60535,-0.00022104,0.00037973,0.00020285,-0.00017233,0.00017591,0.00001
 318,0.00004495,-0.00007888,-0.00016235,0.00013337,-0.00014478,-0.00002
 239,0.00000210,-0.00000367,0.00001222,-0.00001147,0.00000806,-0.000027
 28,0.00001633,0.00000738,-0.00000174,0.00003317,0.00005807,0.00000235,
 0.00001988,0.00014929,-0.00011284,-0.00001749,-0.00000559,-0.00000222,
 -0.00000205,0.00007272,0.00026026,0.00004284,-0.00005177,0.00003990,0.
 00001353,-0.00001041,-0.00007491,-0.00006034,0.00000720,0.00001012,0.0
 0000036,-0.00000370,0.00000330,0.00006232,0.00000605,0.00000987,0.0000
 0035,-0.00002692,0.00001496,-0.00001315,-0.00002368,-0.00000924,0.0000
 0466,0.00014604,0.00019346,-0.00008869,0.00007052,0.00003576,0.0000792
 8,-0.01885962,-0.02143700,0.01819378,0.00291332,0.00349265,-0.00004525
 ,-0.10744473,-0.16738817,0.09212090,0.00586625,0.00827492,-0.00641972,
 0.00107141,0.00011982,-0.00059470,0.11423012,0.18159402,0.00055749,-0.
 00142264,-0.00074305,0.00026620,-0.00042045,0.00010811,0.00068533,-0.0
 0021143,0.00045545,-0.00003491,0.00013586,0.00003209,-0.00010954,-0.00
 020902,-0.00014707,0.00008847,0.00009815,-0.00006472,0.00007649,-0.000
 00770,0.00001767,-0.00002376,-0.00006068,0.00004806,-0.00004530,-0.000
 01867,0.00002145,0.00000175,-0.00000116,-0.00000626,-0.00001264,0.0000
 0031,-0.00007429,0.00001767,0.00004668,0.00005106,0.00005866,-0.000004
 19,0.00003450,-0.00003358,0.00004800,-0.00033271,-0.00000308,-0.000000
 57,-0.00000085,-0.00008163,-0.00008255,0.00016245,0.00003212,0.0000529
 9,0.00021379,-0.00007332,-0.00021335,-0.00008922,0.00001886,0.00002963
 ,0.00000342,-0.00000113,0.00006627,0.00004734,0.00003071,0.00004294,0.
 00000106,-0.00002007,0.00001119,-0.00000840,-0.00003577,-0.00001455,0.
 00001317,0.00001401,-0.00000075,-0.00000541,0.00001349,0.00000833,0.00
 006466,-0.01165002,-0.00945291,0.00841893,0.00105899,0.00014377,-0.000
 43550,0.08077615,0.09385782,-0.12171561,-0.00139350,-0.00167735,0.0003
 5109,0.01817816,0.01951619,-0.01250881,-0.08835628,-0.10026016,0.12608
 762\\-0.00000225,-0.00000264,-0.00000843,0.00000643,-0.00000838,-0.000
 00170,-0.00000815,-0.00000142,-0.00000659,-0.00000745,0.00000082,-0.00
 001208,-0.00000629,-0.00001065,-0.00001023,-0.00000712,-0.00000167,-0.
 00000103,-0.00001164,-0.00001335,-0.00001885,-0.00001362,-0.00000468,-
 0.00002173,-0.00000190,-0.00000553,-0.00001806,-0.00001067,0.00000394,
 -0.00000756,0.00000110,0.00001534,0.00000909,-0.00000373,0.00000909,-0
 .00000561,-0.00000836,0.00002226,0.00000394,-0.00002856,-0.00000012,0.
 00000313,-0.00001377,0.00001839,-0.00000218,0.00001929,0.00001191,0.00
 001422,0.00000770,-0.00000066,0.00000647,0.00001336,-0.00000389,0.0000
 0560,0.00001046,-0.00001016,0.00000597,0.00001303,-0.00000751,0.000010
 05,0.00001102,-0.00000087,0.00001386,-0.00000736,0.00002381,0.00000518
 ,-0.00000535,0.00001621,-0.00000328,-0.00000479,-0.00001111,-0.0000150
 4,-0.00000479,-0.00001955,-0.00001390,0.00002173,-0.00000269,0.0000099
 4,-0.00000484,0.00000449,0.00001102,0.00000273,-0.00000451,0.00000655,
 0.00001655,0.00000140,0.00001527,0.00001322,-0.00001596,0.00001497,0.0
 0001401,-0.00000231,0.00001100\\\@


 EVERYBODY NEEDS BEAUTY AS WELL AS BREAD, PLACES TO PLAY IN AND PRAY IN,
 WHERE NATURE MAY HEAL AND CHEER AND GIVE STRENGTH TO BODY AND SOUL ALIKE.

                                    -- JOHN MUIR
 Job cpu time:       0 days  2 hours  4 minutes 17.4 seconds.
 Elapsed time:       0 days  0 hours  7 minutes 50.4 seconds.
 File lengths (MBytes):  RWF=    464 Int=      0 D2E=      0 Chk=     16 Scr=      1
 Normal termination of Gaussian 16 at Mon Dec 30 11:45:44 2019.
