 Entering Gaussian System, Link 0=g16
 Input=conformer_final_01.gjf
 Output=conformer_final_01.out
 Initial command:
 /n/sw/g16_nehalem/g16/l1.exe "/scratch/cwagen_conformer_final_01/Gau-374864.inp" -scrdir="/scratch/cwagen_conformer_final_01/"
 Entering Link 1 = /n/sw/g16_nehalem/g16/l1.exe PID=    374881.
  
 Copyright (c) 1988,1990,1992,1993,1995,1998,2003,2009,2016,
            Gaussian, Inc.  All Rights Reserved.
  
 This is part of the Gaussian(R) 16 program.  It is based on
 the Gaussian(R) 09 system (copyright 2009, Gaussian, Inc.),
 the Gaussian(R) 03 system (copyright 2003, Gaussian, Inc.),
 the Gaussian(R) 98 system (copyright 1998, Gaussian, Inc.),
 the Gaussian(R) 94 system (copyright 1995, Gaussian, Inc.),
 the Gaussian 92(TM) system (copyright 1992, Gaussian, Inc.),
 the Gaussian 90(TM) system (copyright 1990, Gaussian, Inc.),
 the Gaussian 88(TM) system (copyright 1988, Gaussian, Inc.),
 the Gaussian 86(TM) system (copyright 1986, Carnegie Mellon
 University), and the Gaussian 82(TM) system (copyright 1983,
 Carnegie Mellon University). Gaussian is a federally registered
 trademark of Gaussian, Inc.
  
 This software contains proprietary and confidential information,
 including trade secrets, belonging to Gaussian, Inc.
  
 This software is provided under written license and may be
 used, copied, transmitted, or stored only in accord with that
 written license.
  
 The following legend is applicable only to US Government
 contracts under FAR:
  
                    RESTRICTED RIGHTS LEGEND
  
 Use, reproduction and disclosure by the US Government is
 subject to restrictions as set forth in subparagraphs (a)
 and (c) of the Commercial Computer Software - Restricted
 Rights clause in FAR 52.227-19.
  
 Gaussian, Inc.
 340 Quinnipiac St., Bldg. 40, Wallingford CT 06492
  
  
 ---------------------------------------------------------------
 Warning -- This program may not be used in any manner that
 competes with the business of Gaussian, Inc. or will provide
 assistance to any competitor of Gaussian, Inc.  The licensee
 of this program is prohibited from giving any competitor of
 Gaussian, Inc. access to this program.  By using this program,
 the user acknowledges that Gaussian, Inc. is engaged in the
 business of creating and licensing software in the field of
 computational chemistry and represents and warrants to the
 licensee that it is not a competitor of Gaussian, Inc. and that
 it will not use this program in any manner prohibited above.
 ---------------------------------------------------------------
  

 Cite this work as:
 Gaussian 16, Revision A.03,
 M. J. Frisch, G. W. Trucks, H. B. Schlegel, G. E. Scuseria, 
 M. A. Robb, J. R. Cheeseman, G. Scalmani, V. Barone, 
 G. A. Petersson, H. Nakatsuji, X. Li, M. Caricato, A. V. Marenich, 
 J. Bloino, B. G. Janesko, R. Gomperts, B. Mennucci, H. P. Hratchian, 
 J. V. Ortiz, A. F. Izmaylov, J. L. Sonnenberg, D. Williams-Young, 
 F. Ding, F. Lipparini, F. Egidi, J. Goings, B. Peng, A. Petrone, 
 T. Henderson, D. Ranasinghe, V. G. Zakrzewski, J. Gao, N. Rega, 
 G. Zheng, W. Liang, M. Hada, M. Ehara, K. Toyota, R. Fukuda, 
 J. Hasegawa, M. Ishida, T. Nakajima, Y. Honda, O. Kitao, H. Nakai, 
 T. Vreven, K. Throssell, J. A. Montgomery, Jr., J. E. Peralta, 
 F. Ogliaro, M. J. Bearpark, J. J. Heyd, E. N. Brothers, K. N. Kudin, 
 V. N. Staroverov, T. A. Keith, R. Kobayashi, J. Normand, 
 K. Raghavachari, A. P. Rendell, J. C. Burant, S. S. Iyengar, 
 J. Tomasi, M. Cossi, J. M. Millam, M. Klene, C. Adamo, R. Cammi, 
 J. W. Ochterski, R. L. Martin, K. Morokuma, O. Farkas, 
 J. B. Foresman, and D. J. Fox, Gaussian, Inc., Wallingford CT, 2016.
 
 ******************************************
 Gaussian 16:  ES64L-G16RevA.03 25-Dec-2016
                30-Dec-2019 
 ******************************************
 %nprocshared=16
 Will use up to   16 processors via shared memory.
 %mem=32GB
 ------------------------------------------------------------------
 #p opt freq=noraman m062x/6-31g(d) scrf=(smd,solvent=diethylether)
 ------------------------------------------------------------------
 1/18=20,19=15,26=3,38=1/1,3;
 2/9=110,12=2,17=6,18=5,40=1/2;
 3/5=1,6=6,7=1,11=2,25=1,30=1,70=32201,71=1,72=8,74=-55/1,2,3;
 4//1;
 5/5=2,38=5,53=8/2;
 6/7=2,8=2,9=2,10=2,28=1/1;
 7//1,2,3,16;
 1/18=20,19=15,26=3/3(2);
 2/9=110/2;
 99//99;
 2/9=110/2;
 3/5=1,6=6,7=1,11=2,25=1,30=1,70=32205,71=1,72=8,74=-55/1,2,3;
 4/5=5,16=3,69=1/1;
 5/5=2,38=5,53=8/2;
 7//1,2,3,16;
 1/18=20,19=15,26=3/3(-5);
 2/9=110/2;
 6/7=2,8=2,9=2,10=2,19=2,28=1/1;
 99/9=1/99;
 Leave Link    1 at Mon Dec 30 11:32:55 2019, MaxMem=  4294967296 cpu:               0.8 elap:               0.1
 (Enter /n/sw/g16_nehalem/g16/l101.exe)
 -----
 title
 -----
 Symbolic Z-matrix:
 Charge =  0 Multiplicity = 1
 7                     2.00948   0.70846  -0.33854 
 1                     2.49523   0.96066   0.5156 
 6                     1.72836  -0.7001   -0.5418 
 1                     1.44446  -0.83745  -1.58915 
 6                     2.98892  -1.49691  -0.27601 
 6                     0.5629   -1.10213   0.37416 
 1                     3.77501  -1.27832  -1.00351 
 8                     0.70698  -1.69506   1.42508 
 7                    -0.63737  -0.64138  -0.08991 
 1                    -0.62001  -0.05506  -0.92343 
 6                    -1.72509  -0.44782   0.82896 
 1                    -1.57087  -1.116     1.68266 
 6                    -1.70795   0.99227   1.33362 
 6                    -3.10423  -0.73381   0.25152 
 1                    -2.46799   1.21497   2.08281 
 8                    -4.11398  -0.37419   0.80922 
 8                    -3.06612  -1.40607  -0.89076 
 6                    -4.34746  -1.70554  -1.46243 
 1                    -4.13825  -2.24785  -2.38283 
 1                    -4.93094  -2.32357  -0.77708 
 1                    -4.89013  -0.78241  -1.67553 
 9                    -1.8763    1.82181   0.2645 
 9                    -0.47619   1.26316   1.84259 
 9                     3.46768  -1.20217   0.96349 
 9                     2.70541  -2.82059  -0.31582 
 6                     1.29153   1.66763  -0.9932 
 8                     0.50074   1.383    -1.88598 
 6                     1.51095   3.08027  -0.51923 
 1                     0.72148   3.31428   0.20271 
 1                     2.48187   3.21663  -0.03853 
 1                     1.41358   3.76073  -1.36618 
 
 ITRead=  0  0  0  0  0  0  0  0  0  0  0  0  0  0  0  0  0  0  0  0
 ITRead=  0  0  0  0  0  0  0  0  0  0  0
 MicOpt= -1 -1 -1 -1 -1 -1 -1 -1 -1 -1 -1 -1 -1 -1 -1 -1 -1 -1 -1 -1
 MicOpt= -1 -1 -1 -1 -1 -1 -1 -1 -1 -1 -1
 NAtoms=     31 NQM=       31 NQMF=       0 NMMI=      0 NMMIF=      0
                NMic=       0 NMicF=      0.
                    Isotopes and Nuclear Properties:
 (Nuclear quadrupole moments (NQMom) in fm**2, nuclear magnetic moments (NMagM)
  in nuclear magnetons)

  Atom         1           2           3           4           5           6           7           8           9          10
 IAtWgt=          14           1          12           1          12          12           1          16          14           1
 AtmWgt=  14.0030740   1.0078250  12.0000000   1.0078250  12.0000000  12.0000000   1.0078250  15.9949146  14.0030740   1.0078250
 NucSpn=           2           1           0           1           0           0           1           0           2           1
 AtZEff=   0.0000000   0.0000000   0.0000000   0.0000000   0.0000000   0.0000000   0.0000000   0.0000000   0.0000000   0.0000000
 NQMom=    2.0440000   0.0000000   0.0000000   0.0000000   0.0000000   0.0000000   0.0000000   0.0000000   2.0440000   0.0000000
 NMagM=    0.4037610   2.7928460   0.0000000   2.7928460   0.0000000   0.0000000   2.7928460   0.0000000   0.4037610   2.7928460
 AtZNuc=   7.0000000   1.0000000   6.0000000   1.0000000   6.0000000   6.0000000   1.0000000   8.0000000   7.0000000   1.0000000

  Atom        11          12          13          14          15          16          17          18          19          20
 IAtWgt=          12           1          12          12           1          16          16          12           1           1
 AtmWgt=  12.0000000   1.0078250  12.0000000  12.0000000   1.0078250  15.9949146  15.9949146  12.0000000   1.0078250   1.0078250
 NucSpn=           0           1           0           0           1           0           0           0           1           1
 AtZEff=   0.0000000   0.0000000   0.0000000   0.0000000   0.0000000   0.0000000   0.0000000   0.0000000   0.0000000   0.0000000
 NQMom=    0.0000000   0.0000000   0.0000000   0.0000000   0.0000000   0.0000000   0.0000000   0.0000000   0.0000000   0.0000000
 NMagM=    0.0000000   2.7928460   0.0000000   0.0000000   2.7928460   0.0000000   0.0000000   0.0000000   2.7928460   2.7928460
 AtZNuc=   6.0000000   1.0000000   6.0000000   6.0000000   1.0000000   8.0000000   8.0000000   6.0000000   1.0000000   1.0000000

  Atom        21          22          23          24          25          26          27          28          29          30
 IAtWgt=           1          19          19          19          19          12          16          12           1           1
 AtmWgt=   1.0078250  18.9984033  18.9984033  18.9984033  18.9984033  12.0000000  15.9949146  12.0000000   1.0078250   1.0078250
 NucSpn=           1           1           1           1           1           0           0           0           1           1
 AtZEff=   0.0000000   0.0000000   0.0000000   0.0000000   0.0000000   0.0000000   0.0000000   0.0000000   0.0000000   0.0000000
 NQMom=    0.0000000   0.0000000   0.0000000   0.0000000   0.0000000   0.0000000   0.0000000   0.0000000   0.0000000   0.0000000
 NMagM=    2.7928460   2.6288670   2.6288670   2.6288670   2.6288670   0.0000000   0.0000000   0.0000000   2.7928460   2.7928460
 AtZNuc=   1.0000000   9.0000000   9.0000000   9.0000000   9.0000000   6.0000000   8.0000000   6.0000000   1.0000000   1.0000000

  Atom        31
 IAtWgt=           1
 AtmWgt=   1.0078250
 NucSpn=           1
 AtZEff=   0.0000000
 NQMom=    0.0000000
 NMagM=    2.7928460
 AtZNuc=   1.0000000
 Leave Link  101 at Mon Dec 30 11:33:01 2019, MaxMem=  4294967296 cpu:              25.3 elap:               2.2
 (Enter /n/sw/g16_nehalem/g16/l103.exe)

 GradGradGradGradGradGradGradGradGradGradGradGradGradGradGradGradGradGrad
 Berny optimization.
 Initialization pass.
                           ----------------------------
                           !    Initial Parameters    !
                           ! (Angstroms and Degrees)  !
 --------------------------                            --------------------------
 ! Name  Definition              Value          Derivative Info.                !
 --------------------------------------------------------------------------------
 ! R1    R(1,2)                  1.0145         estimate D2E/DX2                !
 ! R2    R(1,3)                  1.4506         estimate D2E/DX2                !
 ! R3    R(1,26)                 1.3653         estimate D2E/DX2                !
 ! R4    R(3,4)                  1.0938         estimate D2E/DX2                !
 ! R5    R(3,5)                  1.5148         estimate D2E/DX2                !
 ! R6    R(3,6)                  1.5359         estimate D2E/DX2                !
 ! R7    R(5,7)                  1.0931         estimate D2E/DX2                !
 ! R8    R(5,24)                 1.361          estimate D2E/DX2                !
 ! R9    R(5,25)                 1.3543         estimate D2E/DX2                !
 ! R10   R(6,8)                  1.2152         estimate D2E/DX2                !
 ! R11   R(6,9)                  1.3669         estimate D2E/DX2                !
 ! R12   R(9,10)                 1.0192         estimate D2E/DX2                !
 ! R13   R(9,11)                 1.437          estimate D2E/DX2                !
 ! R14   R(11,12)                1.095          estimate D2E/DX2                !
 ! R15   R(11,13)                1.526          estimate D2E/DX2                !
 ! R16   R(11,14)                1.5222         estimate D2E/DX2                !
 ! R17   R(13,15)                1.0902         estimate D2E/DX2                !
 ! R18   R(13,22)                1.3636         estimate D2E/DX2                !
 ! R19   R(13,23)                1.36           estimate D2E/DX2                !
 ! R20   R(14,16)                1.2083         estimate D2E/DX2                !
 ! R21   R(14,17)                1.326          estimate D2E/DX2                !
 ! R22   R(17,18)                1.4347         estimate D2E/DX2                !
 ! R23   R(18,19)                1.0886         estimate D2E/DX2                !
 ! R24   R(18,20)                1.0918         estimate D2E/DX2                !
 ! R25   R(18,21)                1.0918         estimate D2E/DX2                !
 ! R26   R(26,27)                1.2261         estimate D2E/DX2                !
 ! R27   R(26,28)                1.5061         estimate D2E/DX2                !
 ! R28   R(28,29)                1.0951         estimate D2E/DX2                !
 ! R29   R(28,30)                1.0919         estimate D2E/DX2                !
 ! R30   R(28,31)                1.0908         estimate D2E/DX2                !
 ! A1    A(2,1,3)              116.8829         estimate D2E/DX2                !
 ! A2    A(2,1,26)             118.7416         estimate D2E/DX2                !
 ! A3    A(3,1,26)             120.8678         estimate D2E/DX2                !
 ! A4    A(1,3,4)              107.842          estimate D2E/DX2                !
 ! A5    A(1,3,5)              108.96           estimate D2E/DX2                !
 ! A6    A(1,3,6)              108.5213         estimate D2E/DX2                !
 ! A7    A(4,3,5)              108.539          estimate D2E/DX2                !
 ! A8    A(4,3,6)              109.9519         estimate D2E/DX2                !
 ! A9    A(5,3,6)              112.9006         estimate D2E/DX2                !
 ! A10   A(3,5,7)              112.1147         estimate D2E/DX2                !
 ! A11   A(3,5,24)             109.792          estimate D2E/DX2                !
 ! A12   A(3,5,25)             109.5588         estimate D2E/DX2                !
 ! A13   A(7,5,24)             108.0485         estimate D2E/DX2                !
 ! A14   A(7,5,25)             109.0514         estimate D2E/DX2                !
 ! A15   A(24,5,25)            108.1838         estimate D2E/DX2                !
 ! A16   A(3,6,8)              123.6072         estimate D2E/DX2                !
 ! A17   A(3,6,9)              112.0626         estimate D2E/DX2                !
 ! A18   A(8,6,9)              124.2083         estimate D2E/DX2                !
 ! A19   A(6,9,10)             117.1693         estimate D2E/DX2                !
 ! A20   A(6,9,11)             119.5379         estimate D2E/DX2                !
 ! A21   A(10,9,11)            117.2793         estimate D2E/DX2                !
 ! A22   A(9,11,12)            108.0426         estimate D2E/DX2                !
 ! A23   A(9,11,13)            109.2732         estimate D2E/DX2                !
 ! A24   A(9,11,14)            114.7034         estimate D2E/DX2                !
 ! A25   A(12,11,13)           108.4472         estimate D2E/DX2                !
 ! A26   A(12,11,14)           107.9799         estimate D2E/DX2                !
 ! A27   A(13,11,14)           108.2349         estimate D2E/DX2                !
 ! A28   A(11,13,15)           114.3426         estimate D2E/DX2                !
 ! A29   A(11,13,22)           108.2645         estimate D2E/DX2                !
 ! A30   A(11,13,23)           108.7776         estimate D2E/DX2                !
 ! A31   A(15,13,22)           109.1746         estimate D2E/DX2                !
 ! A32   A(15,13,23)           109.4838         estimate D2E/DX2                !
 ! A33   A(22,13,23)           106.5024         estimate D2E/DX2                !
 ! A34   A(11,14,16)           121.7441         estimate D2E/DX2                !
 ! A35   A(11,14,17)           113.3282         estimate D2E/DX2                !
 ! A36   A(16,14,17)           124.9268         estimate D2E/DX2                !
 ! A37   A(14,17,18)           115.051          estimate D2E/DX2                !
 ! A38   A(17,18,19)           105.6191         estimate D2E/DX2                !
 ! A39   A(17,18,20)           110.2016         estimate D2E/DX2                !
 ! A40   A(17,18,21)           110.1932         estimate D2E/DX2                !
 ! A41   A(19,18,20)           110.5748         estimate D2E/DX2                !
 ! A42   A(19,18,21)           110.5923         estimate D2E/DX2                !
 ! A43   A(20,18,21)           109.6027         estimate D2E/DX2                !
 ! A44   A(1,26,27)            121.6816         estimate D2E/DX2                !
 ! A45   A(1,26,28)            115.5585         estimate D2E/DX2                !
 ! A46   A(27,26,28)           122.74           estimate D2E/DX2                !
 ! A47   A(26,28,29)           107.63           estimate D2E/DX2                !
 ! A48   A(26,28,30)           112.6561         estimate D2E/DX2                !
 ! A49   A(26,28,31)           109.1323         estimate D2E/DX2                !
 ! A50   A(29,28,30)           108.9123         estimate D2E/DX2                !
 ! A51   A(29,28,31)           108.3139         estimate D2E/DX2                !
 ! A52   A(30,28,31)           110.0769         estimate D2E/DX2                !
 ! D1    D(2,1,3,4)           -165.8211         estimate D2E/DX2                !
 ! D2    D(2,1,3,5)            -48.1914         estimate D2E/DX2                !
 ! D3    D(2,1,3,6)             75.1086         estimate D2E/DX2                !
 ! D4    D(26,1,3,4)            35.5709         estimate D2E/DX2                !
 ! D5    D(26,1,3,5)           153.2006         estimate D2E/DX2                !
 ! D6    D(26,1,3,6)           -83.4994         estimate D2E/DX2                !
 ! D7    D(2,1,26,27)         -167.0086         estimate D2E/DX2                !
 ! D8    D(2,1,26,28)           11.4083         estimate D2E/DX2                !
 ! D9    D(3,1,26,27)           -8.7886         estimate D2E/DX2                !
 ! D10   D(3,1,26,28)          169.6283         estimate D2E/DX2                !
 ! D11   D(1,3,5,7)            -65.5546         estimate D2E/DX2                !
 ! D12   D(1,3,5,24)            54.555          estimate D2E/DX2                !
 ! D13   D(1,3,5,25)           173.2285         estimate D2E/DX2                !
 ! D14   D(4,3,5,7)             51.6334         estimate D2E/DX2                !
 ! D15   D(4,3,5,24)           171.7429         estimate D2E/DX2                !
 ! D16   D(4,3,5,25)           -69.5835         estimate D2E/DX2                !
 ! D17   D(6,3,5,7)            173.7988         estimate D2E/DX2                !
 ! D18   D(6,3,5,24)           -66.0917         estimate D2E/DX2                !
 ! D19   D(6,3,5,25)            52.5819         estimate D2E/DX2                !
 ! D20   D(1,3,6,8)           -101.2292         estimate D2E/DX2                !
 ! D21   D(1,3,6,9)             74.9029         estimate D2E/DX2                !
 ! D22   D(4,3,6,8)            141.0362         estimate D2E/DX2                !
 ! D23   D(4,3,6,9)            -42.8317         estimate D2E/DX2                !
 ! D24   D(5,3,6,8)             19.6675         estimate D2E/DX2                !
 ! D25   D(5,3,6,9)           -164.2005         estimate D2E/DX2                !
 ! D26   D(3,6,9,10)            -3.7698         estimate D2E/DX2                !
 ! D27   D(3,6,9,11)          -155.7719         estimate D2E/DX2                !
 ! D28   D(8,6,9,10)           172.3348         estimate D2E/DX2                !
 ! D29   D(8,6,9,11)            20.3328         estimate D2E/DX2                !
 ! D30   D(6,9,11,12)          -25.4852         estimate D2E/DX2                !
 ! D31   D(6,9,11,13)           92.3193         estimate D2E/DX2                !
 ! D32   D(6,9,11,14)         -145.9626         estimate D2E/DX2                !
 ! D33   D(10,9,11,12)        -177.4571         estimate D2E/DX2                !
 ! D34   D(10,9,11,13)         -59.6527         estimate D2E/DX2                !
 ! D35   D(10,9,11,14)          62.0655         estimate D2E/DX2                !
 ! D36   D(9,11,13,15)        -176.6875         estimate D2E/DX2                !
 ! D37   D(9,11,13,22)          61.3792         estimate D2E/DX2                !
 ! D38   D(9,11,13,23)         -53.971          estimate D2E/DX2                !
 ! D39   D(12,11,13,15)        -59.1373         estimate D2E/DX2                !
 ! D40   D(12,11,13,22)        178.9294         estimate D2E/DX2                !
 ! D41   D(12,11,13,23)         63.5792         estimate D2E/DX2                !
 ! D42   D(14,11,13,15)         57.7673         estimate D2E/DX2                !
 ! D43   D(14,11,13,22)        -64.166          estimate D2E/DX2                !
 ! D44   D(14,11,13,23)       -179.5162         estimate D2E/DX2                !
 ! D45   D(9,11,14,16)        -165.4867         estimate D2E/DX2                !
 ! D46   D(9,11,14,17)          14.8374         estimate D2E/DX2                !
 ! D47   D(12,11,14,16)         74.0013         estimate D2E/DX2                !
 ! D48   D(12,11,14,17)       -105.6747         estimate D2E/DX2                !
 ! D49   D(13,11,14,16)        -43.2044         estimate D2E/DX2                !
 ! D50   D(13,11,14,17)        137.1197         estimate D2E/DX2                !
 ! D51   D(11,14,17,18)        179.5025         estimate D2E/DX2                !
 ! D52   D(16,14,17,18)         -0.1614         estimate D2E/DX2                !
 ! D53   D(14,17,18,19)        179.7915         estimate D2E/DX2                !
 ! D54   D(14,17,18,20)        -60.7567         estimate D2E/DX2                !
 ! D55   D(14,17,18,21)         60.3232         estimate D2E/DX2                !
 ! D56   D(1,26,28,29)         -95.5024         estimate D2E/DX2                !
 ! D57   D(1,26,28,30)          24.5759         estimate D2E/DX2                !
 ! D58   D(1,26,28,31)         147.16           estimate D2E/DX2                !
 ! D59   D(27,26,28,29)         82.896          estimate D2E/DX2                !
 ! D60   D(27,26,28,30)       -157.0257         estimate D2E/DX2                !
 ! D61   D(27,26,28,31)        -34.4416         estimate D2E/DX2                !
 --------------------------------------------------------------------------------
 Trust Radius=3.00D-01 FncErr=1.00D-07 GrdErr=1.00D-06 EigMax=2.50D+02 EigMin=1.00D-04
 Number of steps in this run=    153 maximum allowed number of steps=    186.
 GradGradGradGradGradGradGradGradGradGradGradGradGradGradGradGradGradGrad

 Leave Link  103 at Mon Dec 30 11:33:03 2019, MaxMem=  4294967296 cpu:               0.2 elap:               0.4
 (Enter /n/sw/g16_nehalem/g16/l202.exe)
                          Input orientation:                          
 ---------------------------------------------------------------------
 Center     Atomic      Atomic             Coordinates (Angstroms)
 Number     Number       Type             X           Y           Z
 ---------------------------------------------------------------------
      1          7           0        2.009481    0.708456   -0.338540
      2          1           0        2.495231    0.960662    0.515600
      3          6           0        1.728358   -0.700098   -0.541803
      4          1           0        1.444464   -0.837447   -1.589151
      5          6           0        2.988917   -1.496911   -0.276010
      6          6           0        0.562898   -1.102133    0.374164
      7          1           0        3.775007   -1.278323   -1.003508
      8          8           0        0.706983   -1.695055    1.425084
      9          7           0       -0.637366   -0.641381   -0.089908
     10          1           0       -0.620015   -0.055064   -0.923428
     11          6           0       -1.725090   -0.447817    0.828956
     12          1           0       -1.570875   -1.116001    1.682658
     13          6           0       -1.707949    0.992269    1.333616
     14          6           0       -3.104227   -0.733814    0.251525
     15          1           0       -2.467989    1.214968    2.082809
     16          8           0       -4.113984   -0.374191    0.809219
     17          8           0       -3.066122   -1.406067   -0.890760
     18          6           0       -4.347464   -1.705539   -1.462427
     19          1           0       -4.138249   -2.247855   -2.382825
     20          1           0       -4.930942   -2.323570   -0.777084
     21          1           0       -4.890126   -0.782406   -1.675527
     22          9           0       -1.876302    1.821808    0.264500
     23          9           0       -0.476188    1.263164    1.842587
     24          9           0        3.467676   -1.202172    0.963493
     25          9           0        2.705413   -2.820594   -0.315821
     26          6           0        1.291534    1.667630   -0.993203
     27          8           0        0.500740    1.383002   -1.885978
     28          6           0        1.510947    3.080271   -0.519227
     29          1           0        0.721477    3.314276    0.202710
     30          1           0        2.481868    3.216628   -0.038534
     31          1           0        1.413577    3.760728   -1.366177
 ---------------------------------------------------------------------
                    Distance matrix (angstroms):
                    1          2          3          4          5
     1  N    0.000000
     2  H    1.014454   0.000000
     3  C    1.450645   2.112894   0.000000
     4  H    2.067145   2.960960   1.093800   0.000000
     5  C    2.413887   2.628695   1.514782   2.131799   0.000000
     6  C    2.424620   2.830024   1.535879   2.168369   2.542468
     7  H    2.739809   2.993087   2.176301   2.443109   1.093148
     8  O    3.253265   3.328337   2.429360   3.219469   2.853104
     9  N    2.981556   3.570202   2.409213   2.572973   3.730482
    10  H    2.799876   3.578723   2.465068   2.305945   3.939856
    11  C    4.080078   4.460170   3.724101   4.005637   4.954131
    12  H    4.498092   4.712512   4.000767   4.458093   4.977266
    13  C    4.086067   4.282157   4.264916   4.672059   5.554049
    14  C    5.345870   5.856186   4.897385   4.908097   6.163361
    15  H    5.115391   5.210985   5.307108   5.744823   6.534228
    16  O    6.323472   6.749057   6.005367   6.071501   7.272512
    17  O    5.526111   6.205474   4.858724   4.599616   6.086844
    18  C    6.892115   7.605504   6.226883   5.857992   7.434622
    19  H    7.121338   7.918239   6.340504   5.812560   7.469878
    20  H    7.586499   8.222242   6.858374   6.596500   7.978634
    21  H    7.184343   7.898280   6.715388   6.335418   8.034207
    22  F    4.086872   4.462614   4.472551   4.640598   5.914085
    23  F    3.353143   3.268292   3.794698   4.458508   4.910542
    24  F    2.733518   2.413319   2.354405   3.277560   1.361047
    25  F    3.597087   3.877284   2.345678   2.672870   1.354288
    26  C    1.365301   2.055523   2.449635   2.579526   3.661939
    27  O    2.264040   3.150229   2.766434   2.430867   4.132423
    28  C    2.430368   2.555861   3.786683   4.061733   4.816030
    29  H    2.956722   2.963714   4.205153   4.579332   5.340223
    30  H    2.569840   2.323064   4.020174   4.462751   4.746677
    31  H    3.275287   3.542800   4.547268   4.603682   5.595796
                    6          7          8          9         10
     6  C    0.000000
     7  H    3.499524   0.000000
     8  O    1.215216   3.935034   0.000000
     9  N    1.366854   4.550758   2.283135   0.000000
    10  H    2.044354   4.562784   3.156898   1.019227   0.000000
    11  C    2.422778   5.856512   2.797490   1.436983   2.108624
    12  H    2.503065   5.985005   2.364378   2.058809   2.970085
    13  C    3.234782   6.378130   3.614135   2.416895   2.715650
    14  C    3.687615   7.013947   4.102017   2.492092   2.830640
    15  H    4.180275   7.397084   4.356751   3.393805   3.750393
    16  O    4.753146   8.144913   5.036437   3.600929   3.913020
    17  O    3.855152   6.843250   4.436549   2.669263   2.794587
    18  C    5.277198   8.146635   5.821105   4.096470   4.111990
    19  H    5.569062   8.090867   6.187248   4.482679   4.395013
    20  H    5.744524   8.771394   6.085292   4.662270   4.873564
    21  H    5.834289   8.705290   6.463308   4.540930   4.396422
    22  F    3.809351   6.569319   4.515378   2.779904   2.551877
    23  F    2.971632   5.712449   3.213295   2.718052   3.067450
    24  F    2.965645   1.992321   2.842081   4.274987   4.646025
    25  F    2.831882   1.998886   2.879464   3.996771   4.367587
    26  C    3.173671   3.853100   4.182997   3.141358   2.574211
    27  O    3.359762   4.310711   4.525495   2.935861   2.061705
    28  C    4.380576   4.935366   5.218280   4.318594   3.812441
    29  H    4.422580   5.645438   5.156336   4.192768   3.797399
    30  H    4.743887   4.775769   5.423746   4.961501   4.594419
    31  H    5.234487   5.576730   6.168953   5.021334   4.346469
                   11         12         13         14         15
    11  C    0.000000
    12  H    1.095016   0.000000
    13  C    1.526048   2.141360   0.000000
    14  C    1.522248   2.131989   2.469793   0.000000
    15  H    2.211086   2.529496   1.090204   2.748845   0.000000
    16  O    2.390110   2.789369   2.816240   1.208288   2.618541
    17  O    2.382023   2.990382   3.541821   1.325968   4.008703
    18  C    3.702586   4.236574   4.697134   2.329704   4.962911
    19  H    4.402160   4.939702   5.496971   3.209567   5.892605
    20  H    4.046641   4.335736   5.083063   2.631017   5.173623
    21  H    4.049918   4.733510   4.725533   2.627799   4.897075
    22  F    2.343645   3.276458   1.363630   2.835343   2.006140
    23  F    2.348331   2.623803   1.360026   3.664149   2.006814
    24  F    5.248997   5.090346   5.633796   6.626927   6.505963
    25  F    5.154604   5.018585   6.061050   6.199068   6.985934
    26  C    4.110401   4.806477   3.855788   5.161298   4.878603
    27  O    3.959430   4.824082   3.923871   4.695276   4.959119
    28  C    4.973624   5.652842   4.260759   6.036649   5.107042
    29  H    4.531139   5.203122   3.545811   5.570047   4.256120
    30  H    5.646166   6.177289   4.938131   6.847962   5.745244
    31  H    5.690491   6.479571   4.969625   6.574832   5.782988
                   16         17         18         19         20
    16  O    0.000000
    17  O    2.247824   0.000000
    18  C    2.643365   1.434686   0.000000
    19  H    3.701398   2.020970   1.088582   0.000000
    20  H    2.642699   2.081415   1.091835   1.792345   0.000000
    21  H    2.634957   2.081298   1.091819   1.792521   1.784391
    22  F    3.182193   3.628977   4.640161   5.356014   5.253559
    23  F    4.120964   4.615597   5.892630   6.602428   6.290641
    24  F    7.628297   6.794876   8.198468   8.375046   8.650082
    25  F    7.331765   5.970097   7.231952   7.171907   7.666402
    26  C    6.052882   5.333599   6.587620   6.837003   7.395647
    27  O    5.625610   4.635932   5.763988   5.911869   6.668695
    28  C    6.733344   6.419877   7.623292   7.985946   8.412248
    29  H    6.111818   6.150059   7.325666   7.825550   8.043329
    30  H    7.557640   7.271574   8.537855   8.898439   9.283803
    31  H    7.237668   6.854888   7.942225   8.243750   8.810144
                   21         22         23         24         25
    21  H    0.000000
    22  F    4.430437   0.000000
    23  F    6.003693   2.182375   0.000000
    24  F    8.774593   6.179899   4.733366   0.000000
    25  F    7.980929   6.548342   5.608778   2.199313   0.000000
    26  C    6.684397   3.411858   3.366027   4.098782   4.754162
    27  O    5.813322   3.235342   3.856287   4.858531   4.999620
    28  C    7.565120   3.697487   3.581724   4.936250   6.023980
    29  H    7.197268   2.996621   2.886288   5.340290   6.468501
    30  H    8.545075   4.585957   4.013070   4.636989   6.047719
    31  H    7.776402   4.152327   4.483883   5.854662   6.788659
                   26         27         28         29         30
    26  C    0.000000
    27  O    1.226138   0.000000
    28  C    1.506104   2.401926   0.000000
    29  H    2.113437   2.853272   1.095086   0.000000
    30  H    2.174324   3.271101   1.091946   1.779525   0.000000
    31  H    2.129569   2.599432   1.090792   1.771928   1.788834
                   31
    31  H    0.000000
 Stoichiometry    C9H12F4N2O4
 Framework group  C1[X(C9H12F4N2O4)]
 Deg. of freedom    87
 Full point group                 C1      NOp   1
 Largest Abelian subgroup         C1      NOp   1
 Largest concise Abelian subgroup C1      NOp   1
                         Standard orientation:                         
 ---------------------------------------------------------------------
 Center     Atomic      Atomic             Coordinates (Angstroms)
 Number     Number       Type             X           Y           Z
 ---------------------------------------------------------------------
      1          7           0       -2.191156    0.867641    0.380130
      2          1           0       -2.676906    1.119847   -0.474010
      3          6           0       -1.910033   -0.540913    0.583393
      4          1           0       -1.626139   -0.678262    1.630741
      5          6           0       -3.170592   -1.337726    0.317600
      6          6           0       -0.744573   -0.942948   -0.332574
      7          1           0       -3.956682   -1.119138    1.045098
      8          8           0       -0.888658   -1.535870   -1.383494
      9          7           0        0.455691   -0.482196    0.131498
     10          1           0        0.438340    0.104121    0.965018
     11          6           0        1.543415   -0.288632   -0.787366
     12          1           0        1.389200   -0.956816   -1.641068
     13          6           0        1.526274    1.151454   -1.292026
     14          6           0        2.922552   -0.574629   -0.209935
     15          1           0        2.286314    1.374153   -2.041219
     16          8           0        3.932309   -0.215006   -0.767629
     17          8           0        2.884447   -1.246882    0.932350
     18          6           0        4.165789   -1.546354    1.504017
     19          1           0        3.956574   -2.088670    2.424415
     20          1           0        4.749267   -2.164385    0.818674
     21          1           0        4.708451   -0.623221    1.717117
     22          9           0        1.694627    1.980993   -0.222910
     23          9           0        0.294513    1.422349   -1.800997
     24          9           0       -3.649351   -1.042987   -0.921903
     25          9           0       -2.887088   -2.661409    0.357411
     26          6           0       -1.473209    1.826815    1.034793
     27          8           0       -0.682415    1.542187    1.927568
     28          6           0       -1.692622    3.239456    0.560817
     29          1           0       -0.903152    3.473461   -0.161120
     30          1           0       -2.663543    3.375813    0.080124
     31          1           0       -1.595252    3.919913    1.407767
 ---------------------------------------------------------------------
 Rotational constants (GHZ):           0.5132517           0.2602125           0.2168843
 Leave Link  202 at Mon Dec 30 11:33:04 2019, MaxMem=  4294967296 cpu:               6.4 elap:               0.4
 (Enter /n/sw/g16_nehalem/g16/l301.exe)
 Standard basis: 6-31G(d) (6D, 7F)
 Ernie: Thresh=  0.10000D-02 Tol=  0.10000D-05 Strict=F.
 There are   309 symmetry adapted cartesian basis functions of A   symmetry.
 There are   309 symmetry adapted basis functions of A   symmetry.
   309 basis functions,   580 primitive gaussians,   309 cartesian basis functions
    74 alpha electrons       74 beta electrons
       nuclear repulsion energy      1674.3357031511 Hartrees.
 IExCor= 4336 DFT=T Ex+Corr=M062X ExCW=0 ScaHFX=  0.540000
 ScaDFX=  1.000000  1.000000  1.000000  1.000000 ScalE2=  1.000000  1.000000
 IRadAn=      5 IRanWt=     -1 IRanGd=            0 ICorTp=0 IEmpDi=  4
 NAtoms=   31 NActive=   31 NUniq=   31 SFac= 1.00D+00 NAtFMM=   60 NAOKFM=F Big=F
 Integral buffers will be    131072 words long.
 Raffenetti 2 integral format.
 Two-electron integral symmetry is turned on.
 ------------------------------------------------------------------------------
 Polarizable Continuum Model (PCM)
 =================================
 Model                : PCM.
 Atomic radii         : SMD-Coulomb.
 Polarization charges : Total charges.
 Charge compensation  : None.
 Solution method      : On-the-fly selection.
 Cavity type          : VdW (van der Waals Surface) (Alpha=1.000).
 Cavity algorithm     : GePol (No added spheres)
                        Default sphere list used, NSphG=   31.
                        Lebedev-Laikov grids with approx.  5.0 points / Ang**2.
                        Smoothing algorithm: York/Karplus (Gamma=1.0000).
                        Polarization charges: spherical gaussians, with
                                              point-specific exponents (IZeta= 3).
                        Self-potential: point-specific (ISelfS= 7).
                        Self-field    : sphere-specific E.n sum rule (ISelfD= 2).
 1st derivatives      : Analytical E(r).r(x)/FMM algorithm (CHGder, D1EAlg=3).
                        Cavity 1st derivative terms included.
 Solvent              : DiethylEther, Eps=   4.240000 Eps(inf)=   1.829527
 ------------------------------------------------------------------------------
 GePol: Number of generator spheres                  =      31
 GePol: Total number of spheres                      =      31
 GePol: Number of exposed spheres                    =      31 (100.00%)
 GePol: Number of points                             =    2384
 GePol: Average weight of points                     =       0.13
 GePol: Minimum weight of points                     =   0.49D-10
 GePol: Maximum weight of points                     =    0.21501
 GePol: Number of points with low weight             =     135
 GePol: Fraction of low-weight points (<1% of avg)   =       5.66%
 GePol: Cavity surface area                          =    302.659 Ang**2
 GePol: Cavity volume                                =    317.804 Ang**3
 ------------------------------------------------------------------------------
 Atomic radii for non-electrostatic terms: SMD-CDS.
 ------------------------------------------------------------------------------
 PCM non-electrostatic energy =        -0.0044045128 Hartrees.
 Nuclear repulsion after PCM non-electrostatic terms =     1674.3312986382 Hartrees.
 Leave Link  301 at Mon Dec 30 11:33:06 2019, MaxMem=  4294967296 cpu:              10.3 elap:               0.8
 (Enter /n/sw/g16_nehalem/g16/l302.exe)
 NPDir=0 NMtPBC=     1 NCelOv=     1 NCel=       1 NClECP=     1 NCelD=      1
         NCelK=      1 NCelE2=     1 NClLst=     1 CellRange=     0.0.
 One-electron integrals computed using PRISM.
 One-electron integral symmetry used in STVInt
 NBasis=   309 RedAO= T EigKep=  1.67D-03  NBF=   309
 NBsUse=   309 1.00D-06 EigRej= -1.00D+00 NBFU=   309
 Precomputing XC quadrature grid using
 IXCGrd= 4 IRadAn=           5 IRanWt=          -1 IRanGd=           0 AccXCQ= 0.00D+00.
 Generated NRdTot=       0 NPtTot=           0 NUsed=           0 NTot=          32
 NSgBfM=   308   308   308   308   308 MxSgAt=    31 MxSgA2=    31.
 Leave Link  302 at Mon Dec 30 11:33:08 2019, MaxMem=  4294967296 cpu:              14.0 elap:               1.2
 (Enter /n/sw/g16_nehalem/g16/l303.exe)
 DipDrv:  MaxL=1.
 Leave Link  303 at Mon Dec 30 11:33:09 2019, MaxMem=  4294967296 cpu:               4.2 elap:               0.6
 (Enter /n/sw/g16_nehalem/g16/l401.exe)
 ExpMin= 1.61D-01 ExpMax= 7.00D+03 ExpMxC= 1.05D+03 IAcc=3 IRadAn=         5 AccDes= 0.00D+00
 Harris functional with IExCor= 1009 and IRadAn=       5 diagonalized for initial guess.
 HarFok:  IExCor= 1009 AccDes= 0.00D+00 IRadAn=         5 IDoV= 1 UseB2=F ITyADJ=14
 ICtDFT=  3500011 ScaDFX=  1.000000  1.000000  1.000000  1.000000
 FoFCou: FMM=F IPFlag=           0 FMFlag=      100000 FMFlg1=           0
         NFxFlg=           0 DoJE=T BraDBF=F KetDBF=T FulRan=T
         wScrn=  0.000000 ICntrl=       500 IOpCl=  0 I1Cent=   200000004 NGrid=           0
         NMat0=    1 NMatS0=      1 NMatT0=    0 NMatD0=    1 NMtDS0=    0 NMtDT0=    0
 Petite list used in FoFCou.
 Harris En= -1158.87821577260    
 JPrj=0 DoOrth=F DoCkMO=F.
 Leave Link  401 at Mon Dec 30 11:33:12 2019, MaxMem=  4294967296 cpu:              28.2 elap:               2.3
 (Enter /n/sw/g16_nehalem/g16/l502.exe)
 Integral symmetry usage will be decided dynamically.
 Closed shell SCF:
 Using DIIS extrapolation, IDIIS=  1040.
 NGot=  4294967296 LenX=  4294767994 LenY=  4294672072
 Requested convergence on RMS density matrix=1.00D-08 within 128 cycles.
 Requested convergence on MAX density matrix=1.00D-06.
 Requested convergence on             energy=1.00D-06.
 No special actions if energy rises.
 Fock matrices will be formed incrementally for  20 cycles.

 Cycle   1  Pass 1  IDiag  1:
 FoFJK:  IHMeth= 1 ICntrl=       0 DoSepK=F KAlg= 0 I1Cent=           0 FoldK=F
 IRaf= 810000000 NMat=       1 IRICut=       1 DoRegI=T DoRafI=F ISym2E= 0 IDoP0=0 IntGTp=1.
 FoFCou: FMM=F IPFlag=           0 FMFlag=      100000 FMFlg1=           0
         NFxFlg=           0 DoJE=F BraDBF=F KetDBF=F FulRan=T
         wScrn=  0.000000 ICntrl=         0 IOpCl=  0 I1Cent=           0 NGrid=           0
         NMat0=    1 NMatS0=      1 NMatT0=    0 NMatD0=    1 NMtDS0=    0 NMtDT0=    0
 Symmetry not used in FoFCou.
 Inv3:  Mode=1 IEnd=    17050368.
 Iteration    1 A*A^-1 deviation from unit magnitude is 1.07D-14 for    429.
 Iteration    1 A*A^-1 deviation from orthogonality  is 3.88D-15 for   1260    250.
 Iteration    1 A^-1*A deviation from unit magnitude is 8.88D-15 for    416.
 Iteration    1 A^-1*A deviation from orthogonality  is 2.41D-15 for   1873    430.
 E= -1159.22728828601    
 DIIS: error= 1.87D-02 at cycle   1 NSaved=   1.
 NSaved= 1 IEnMin= 1 EnMin= -1159.22728828601     IErMin= 1 ErrMin= 1.87D-02
 ErrMax= 1.87D-02  0.00D+00 EMaxC= 1.00D-01 BMatC= 4.99D-01 BMatP= 4.99D-01
 IDIUse=3 WtCom= 8.13D-01 WtEn= 1.87D-01
 Coeff-Com:  0.100D+01
 Coeff-En:   0.100D+01
 Coeff:      0.100D+01
 Gap=     0.337 Goal=   None    Shift=    0.000
 GapD=    0.337 DampG=1.000 DampE=0.500 DampFc=0.5000 IDamp=-1.
 Damping current iteration by 5.00D-01
 RMSDP=3.68D-03 MaxDP=1.51D-01              OVMax= 1.87D-01

 Cycle   2  Pass 1  IDiag  1:
 RMSU=  1.84D-03    CP:  9.95D-01
 E= -1159.37902202574     Delta-E=       -0.151733739729 Rises=F Damp=T
 DIIS: error= 7.41D-03 at cycle   2 NSaved=   2.
 NSaved= 2 IEnMin= 2 EnMin= -1159.37902202574     IErMin= 2 ErrMin= 7.41D-03
 ErrMax= 7.41D-03  0.00D+00 EMaxC= 1.00D-01 BMatC= 5.40D-02 BMatP= 4.99D-01
 IDIUse=3 WtCom= 9.26D-01 WtEn= 7.41D-02
 Coeff-Com:  0.136D-01 0.986D+00
 Coeff-En:   0.542D-01 0.946D+00
 Coeff:      0.166D-01 0.983D+00
 Gap=     0.382 Goal=   None    Shift=    0.000
 RMSDP=1.07D-03 MaxDP=4.47D-02 DE=-1.52D-01 OVMax= 1.00D-01

 Cycle   3  Pass 1  IDiag  1:
 RMSU=  1.03D-03    CP:  9.89D-01  8.51D-01
 E= -1159.54595889809     Delta-E=       -0.166936872357 Rises=F Damp=F
 DIIS: error= 6.41D-03 at cycle   3 NSaved=   3.
 NSaved= 3 IEnMin= 3 EnMin= -1159.54595889809     IErMin= 3 ErrMin= 6.41D-03
 ErrMax= 6.41D-03  0.00D+00 EMaxC= 1.00D-01 BMatC= 2.79D-02 BMatP= 5.40D-02
 IDIUse=3 WtCom= 9.36D-01 WtEn= 6.41D-02
 Coeff-Com: -0.868D-01 0.431D+00 0.655D+00
 Coeff-En:   0.000D+00 0.000D+00 0.100D+01
 Coeff:     -0.813D-01 0.404D+00 0.678D+00
 Gap=     0.357 Goal=   None    Shift=    0.000
 RMSDP=5.97D-04 MaxDP=2.60D-02 DE=-1.67D-01 OVMax= 3.92D-02

 Cycle   4  Pass 1  IDiag  1:
 RMSU=  3.55D-04    CP:  9.92D-01  1.00D+00  6.19D-01
 E= -1159.56437256908     Delta-E=       -0.018413670984 Rises=F Damp=F
 DIIS: error= 2.31D-03 at cycle   4 NSaved=   4.
 NSaved= 4 IEnMin= 4 EnMin= -1159.56437256908     IErMin= 4 ErrMin= 2.31D-03
 ErrMax= 2.31D-03  0.00D+00 EMaxC= 1.00D-01 BMatC= 4.87D-03 BMatP= 2.79D-02
 IDIUse=3 WtCom= 9.77D-01 WtEn= 2.31D-02
 Coeff-Com: -0.326D-01 0.773D-01 0.339D+00 0.616D+00
 Coeff-En:   0.000D+00 0.000D+00 0.124D+00 0.876D+00
 Coeff:     -0.319D-01 0.755D-01 0.334D+00 0.622D+00
 Gap=     0.356 Goal=   None    Shift=    0.000
 RMSDP=2.06D-04 MaxDP=1.10D-02 DE=-1.84D-02 OVMax= 1.14D-02

 Cycle   5  Pass 1  IDiag  1:
 RMSU=  8.93D-05    CP:  9.91D-01  9.64D-01  7.43D-01  6.71D-01
 E= -1159.56810114729     Delta-E=       -0.003728578216 Rises=F Damp=F
 DIIS: error= 5.02D-04 at cycle   5 NSaved=   5.
 NSaved= 5 IEnMin= 5 EnMin= -1159.56810114729     IErMin= 5 ErrMin= 5.02D-04
 ErrMax= 5.02D-04  0.00D+00 EMaxC= 1.00D-01 BMatC= 1.66D-04 BMatP= 4.87D-03
 IDIUse=3 WtCom= 9.95D-01 WtEn= 5.02D-03
 Coeff-Com: -0.967D-02 0.162D-01 0.123D+00 0.276D+00 0.595D+00
 Coeff-En:   0.000D+00 0.000D+00 0.000D+00 0.000D+00 0.100D+01
 Coeff:     -0.962D-02 0.161D-01 0.122D+00 0.274D+00 0.597D+00
 Gap=     0.356 Goal=   None    Shift=    0.000
 RMSDP=3.89D-05 MaxDP=1.80D-03 DE=-3.73D-03 OVMax= 3.02D-03

 Cycle   6  Pass 1  IDiag  1:
 RMSU=  2.68D-05    CP:  9.91D-01  9.67D-01  7.50D-01  7.16D-01  7.62D-01
 E= -1159.56823661479     Delta-E=       -0.000135467498 Rises=F Damp=F
 DIIS: error= 1.25D-04 at cycle   6 NSaved=   6.
 NSaved= 6 IEnMin= 6 EnMin= -1159.56823661479     IErMin= 6 ErrMin= 1.25D-04
 ErrMax= 1.25D-04  0.00D+00 EMaxC= 1.00D-01 BMatC= 1.14D-05 BMatP= 1.66D-04
 IDIUse=3 WtCom= 9.99D-01 WtEn= 1.25D-03
 Coeff-Com: -0.233D-03-0.162D-02 0.136D-01 0.350D-01 0.220D+00 0.733D+00
 Coeff-En:   0.000D+00 0.000D+00 0.000D+00 0.000D+00 0.000D+00 0.100D+01
 Coeff:     -0.232D-03-0.162D-02 0.136D-01 0.350D-01 0.220D+00 0.734D+00
 Gap=     0.356 Goal=   None    Shift=    0.000
 RMSDP=1.31D-05 MaxDP=6.30D-04 DE=-1.35D-04 OVMax= 1.04D-03

 Cycle   7  Pass 1  IDiag  1:
 RMSU=  9.85D-06    CP:  9.91D-01  9.66D-01  7.53D-01  7.20D-01  8.42D-01
                    CP:  9.59D-01
 E= -1159.56824669328     Delta-E=       -0.000010078487 Rises=F Damp=F
 DIIS: error= 5.86D-05 at cycle   7 NSaved=   7.
 NSaved= 7 IEnMin= 7 EnMin= -1159.56824669328     IErMin= 7 ErrMin= 5.86D-05
 ErrMax= 5.86D-05  0.00D+00 EMaxC= 1.00D-01 BMatC= 1.84D-06 BMatP= 1.14D-05
 IDIUse=1 WtCom= 1.00D+00 WtEn= 0.00D+00
 Coeff-Com:  0.137D-02-0.330D-02-0.105D-01-0.250D-01 0.233D-01 0.297D+00
 Coeff-Com:  0.717D+00
 Coeff:      0.137D-02-0.330D-02-0.105D-01-0.250D-01 0.233D-01 0.297D+00
 Coeff:      0.717D+00
 Gap=     0.356 Goal=   None    Shift=    0.000
 RMSDP=6.90D-06 MaxDP=3.72D-04 DE=-1.01D-05 OVMax= 4.49D-04

 Cycle   8  Pass 1  IDiag  1:
 RMSU=  4.04D-06    CP:  9.91D-01  9.64D-01  7.55D-01  7.24D-01  8.73D-01
                    CP:  1.09D+00  9.16D-01
 E= -1159.56824846693     Delta-E=       -0.000001773648 Rises=F Damp=F
 DIIS: error= 2.85D-05 at cycle   8 NSaved=   8.
 NSaved= 8 IEnMin= 8 EnMin= -1159.56824846693     IErMin= 8 ErrMin= 2.85D-05
 ErrMax= 2.85D-05  0.00D+00 EMaxC= 1.00D-01 BMatC= 3.85D-07 BMatP= 1.84D-06
 IDIUse=1 WtCom= 1.00D+00 WtEn= 0.00D+00
 Coeff-Com:  0.749D-03-0.138D-02-0.667D-02-0.183D-01-0.216D-01 0.167D-01
 Coeff-Com:  0.345D+00 0.686D+00
 Coeff:      0.749D-03-0.138D-02-0.667D-02-0.183D-01-0.216D-01 0.167D-01
 Coeff:      0.345D+00 0.686D+00
 Gap=     0.356 Goal=   None    Shift=    0.000
 RMSDP=2.86D-06 MaxDP=1.23D-04 DE=-1.77D-06 OVMax= 2.52D-04

 Cycle   9  Pass 1  IDiag  1:
 RMSU=  1.34D-06    CP:  9.91D-01  9.64D-01  7.56D-01  7.24D-01  8.87D-01
                    CP:  1.13D+00  1.06D+00  8.31D-01
 E= -1159.56824885268     Delta-E=       -0.000000385751 Rises=F Damp=F
 DIIS: error= 8.33D-06 at cycle   9 NSaved=   9.
 NSaved= 9 IEnMin= 9 EnMin= -1159.56824885268     IErMin= 9 ErrMin= 8.33D-06
 ErrMax= 8.33D-06  0.00D+00 EMaxC= 1.00D-01 BMatC= 3.64D-08 BMatP= 3.85D-07
 IDIUse=1 WtCom= 1.00D+00 WtEn= 0.00D+00
 Coeff-Com:  0.122D-03-0.127D-03-0.757D-03-0.338D-02-0.992D-02-0.316D-01
 Coeff-Com:  0.246D-01 0.244D+00 0.777D+00
 Coeff:      0.122D-03-0.127D-03-0.757D-03-0.338D-02-0.992D-02-0.316D-01
 Coeff:      0.246D-01 0.244D+00 0.777D+00
 Gap=     0.356 Goal=   None    Shift=    0.000
 RMSDP=1.01D-06 MaxDP=4.61D-05 DE=-3.86D-07 OVMax= 6.94D-05

 Cycle  10  Pass 1  IDiag  1:
 RMSU=  4.53D-07    CP:  9.91D-01  9.64D-01  7.56D-01  7.24D-01  8.90D-01
                    CP:  1.14D+00  1.10D+00  9.50D-01  9.91D-01
 E= -1159.56824889097     Delta-E=       -0.000000038288 Rises=F Damp=F
 DIIS: error= 2.59D-06 at cycle  10 NSaved=  10.
 NSaved=10 IEnMin=10 EnMin= -1159.56824889097     IErMin=10 ErrMin= 2.59D-06
 ErrMax= 2.59D-06  0.00D+00 EMaxC= 1.00D-01 BMatC= 3.12D-09 BMatP= 3.64D-08
 IDIUse=1 WtCom= 1.00D+00 WtEn= 0.00D+00
 Coeff-Com: -0.342D-04 0.929D-04 0.552D-03 0.898D-03-0.949D-03-0.124D-01
 Coeff-Com: -0.336D-01 0.375D-02 0.250D+00 0.792D+00
 Coeff:     -0.342D-04 0.929D-04 0.552D-03 0.898D-03-0.949D-03-0.124D-01
 Coeff:     -0.336D-01 0.375D-02 0.250D+00 0.792D+00
 Gap=     0.356 Goal=   None    Shift=    0.000
 RMSDP=3.15D-07 MaxDP=1.28D-05 DE=-3.83D-08 OVMax= 2.06D-05

 Cycle  11  Pass 1  IDiag  1:
 RMSU=  1.48D-07    CP:  9.91D-01  9.64D-01  7.56D-01  7.25D-01  8.91D-01
                    CP:  1.15D+00  1.11D+00  9.76D-01  1.09D+00  9.65D-01
 E= -1159.56824889414     Delta-E=       -0.000000003173 Rises=F Damp=F
 DIIS: error= 7.32D-07 at cycle  11 NSaved=  11.
 NSaved=11 IEnMin=11 EnMin= -1159.56824889414     IErMin=11 ErrMin= 7.32D-07
 ErrMax= 7.32D-07  0.00D+00 EMaxC= 1.00D-01 BMatC= 5.24D-10 BMatP= 3.12D-09
 IDIUse=1 WtCom= 1.00D+00 WtEn= 0.00D+00
 Coeff-Com: -0.259D-04 0.499D-04 0.338D-03 0.760D-03 0.688D-03-0.183D-02
 Coeff-Com: -0.176D-01-0.234D-01 0.262D-01 0.363D+00 0.651D+00
 Coeff:     -0.259D-04 0.499D-04 0.338D-03 0.760D-03 0.688D-03-0.183D-02
 Coeff:     -0.176D-01-0.234D-01 0.262D-01 0.363D+00 0.651D+00
 Gap=     0.356 Goal=   None    Shift=    0.000
 RMSDP=8.22D-08 MaxDP=2.84D-06 DE=-3.17D-09 OVMax= 5.04D-06

 Cycle  12  Pass 1  IDiag  1:
 RMSU=  4.58D-08    CP:  9.91D-01  9.64D-01  7.56D-01  7.25D-01  8.92D-01
                    CP:  1.15D+00  1.11D+00  9.81D-01  1.11D+00  1.04D+00
                    CP:  8.17D-01
 E= -1159.56824889456     Delta-E=       -0.000000000418 Rises=F Damp=F
 DIIS: error= 1.46D-07 at cycle  12 NSaved=  12.
 NSaved=12 IEnMin=12 EnMin= -1159.56824889456     IErMin=12 ErrMin= 1.46D-07
 ErrMax= 1.46D-07  0.00D+00 EMaxC= 1.00D-01 BMatC= 2.17D-11 BMatP= 5.24D-10
 IDIUse=1 WtCom= 1.00D+00 WtEn= 0.00D+00
 Coeff-Com: -0.464D-05 0.725D-05 0.648D-04 0.162D-03 0.287D-03 0.398D-03
 Coeff-Com: -0.298D-02-0.720D-02-0.114D-01 0.517D-01 0.195D+00 0.774D+00
 Coeff:     -0.464D-05 0.725D-05 0.648D-04 0.162D-03 0.287D-03 0.398D-03
 Coeff:     -0.298D-02-0.720D-02-0.114D-01 0.517D-01 0.195D+00 0.774D+00
 Gap=     0.356 Goal=   None    Shift=    0.000
 RMSDP=2.24D-08 MaxDP=8.52D-07 DE=-4.18D-10 OVMax= 1.77D-06

 Cycle  13  Pass 1  IDiag  1:
 RMSU=  1.54D-08    CP:  9.91D-01  9.64D-01  7.56D-01  7.25D-01  8.92D-01
                    CP:  1.15D+00  1.11D+00  9.82D-01  1.11D+00  1.07D+00
                    CP:  8.75D-01  9.25D-01
 E= -1159.56824889459     Delta-E=       -0.000000000038 Rises=F Damp=F
 DIIS: error= 8.32D-08 at cycle  13 NSaved=  13.
 NSaved=13 IEnMin=13 EnMin= -1159.56824889459     IErMin=13 ErrMin= 8.32D-08
 ErrMax= 8.32D-08  0.00D+00 EMaxC= 1.00D-01 BMatC= 5.70D-12 BMatP= 2.17D-11
 IDIUse=1 WtCom= 1.00D+00 WtEn= 0.00D+00
 Coeff-Com:  0.470D-06-0.171D-05-0.235D-05 0.149D-05 0.732D-04 0.378D-03
 Coeff-Com:  0.265D-03-0.117D-02-0.857D-02-0.129D-01 0.241D-01 0.381D+00
 Coeff-Com:  0.617D+00
 Coeff:      0.470D-06-0.171D-05-0.235D-05 0.149D-05 0.732D-04 0.378D-03
 Coeff:      0.265D-03-0.117D-02-0.857D-02-0.129D-01 0.241D-01 0.381D+00
 Coeff:      0.617D+00
 Gap=     0.356 Goal=   None    Shift=    0.000
 RMSDP=9.18D-09 MaxDP=3.90D-07 DE=-3.77D-11 OVMax= 6.06D-07

 Error on total polarization charges =  0.01911
 SCF Done:  E(RM062X) =  -1159.56824889     A.U. after   13 cycles
            NFock= 13  Conv=0.92D-08     -V/T= 2.0075
 KE= 1.150898615695D+03 PE=-6.076494201816D+03 EE= 2.091696038589D+03
 SMD-CDS (non-electrostatic) energy       (kcal/mol) =      -2.76
 (included in total energy above)
 Leave Link  502 at Mon Dec 30 11:34:05 2019, MaxMem=  4294967296 cpu:             806.1 elap:              52.2
 (Enter /n/sw/g16_nehalem/g16/l601.exe)
 Copying SCF densities to generalized density rwf, IOpCl= 0 IROHF=0.

 **********************************************************************

            Population analysis using the SCF density.

 **********************************************************************

 Orbital symmetries:
       Occupied  (A) (A) (A) (A) (A) (A) (A) (A) (A) (A) (A) (A)
                 (A) (A) (A) (A) (A) (A) (A) (A) (A) (A) (A) (A)
                 (A) (A) (A) (A) (A) (A) (A) (A) (A) (A) (A) (A)
                 (A) (A) (A) (A) (A) (A) (A) (A) (A) (A) (A) (A)
                 (A) (A) (A) (A) (A) (A) (A) (A) (A) (A) (A) (A)
                 (A) (A) (A) (A) (A) (A) (A) (A) (A) (A) (A) (A)
                 (A) (A)
       Virtual   (A) (A) (A) (A) (A) (A) (A) (A) (A) (A) (A) (A)
                 (A) (A) (A) (A) (A) (A) (A) (A) (A) (A) (A) (A)
                 (A) (A) (A) (A) (A) (A) (A) (A) (A) (A) (A) (A)
                 (A) (A) (A) (A) (A) (A) (A) (A) (A) (A) (A) (A)
                 (A) (A) (A) (A) (A) (A) (A) (A) (A) (A) (A) (A)
                 (A) (A) (A) (A) (A) (A) (A) (A) (A) (A) (A) (A)
                 (A) (A) (A) (A) (A) (A) (A) (A) (A) (A) (A) (A)
                 (A) (A) (A) (A) (A) (A) (A) (A) (A) (A) (A) (A)
                 (A) (A) (A) (A) (A) (A) (A) (A) (A) (A) (A) (A)
                 (A) (A) (A) (A) (A) (A) (A) (A) (A) (A) (A) (A)
                 (A) (A) (A) (A) (A) (A) (A) (A) (A) (A) (A) (A)
                 (A) (A) (A) (A) (A) (A) (A) (A) (A) (A) (A) (A)
                 (A) (A) (A) (A) (A) (A) (A) (A) (A) (A) (A) (A)
                 (A) (A) (A) (A) (A) (A) (A) (A) (A) (A) (A) (A)
                 (A) (A) (A) (A) (A) (A) (A) (A) (A) (A) (A) (A)
                 (A) (A) (A) (A) (A) (A) (A) (A) (A) (A) (A) (A)
                 (A) (A) (A) (A) (A) (A) (A) (A) (A) (A) (A) (A)
                 (A) (A) (A) (A) (A) (A) (A) (A) (A) (A) (A) (A)
                 (A) (A) (A) (A) (A) (A) (A) (A) (A) (A) (A) (A)
                 (A) (A) (A) (A) (A) (A) (A)
 The electronic state is 1-A.
 Alpha  occ. eigenvalues --  -25.26864 -25.26640 -25.26217 -25.26144 -19.69660
 Alpha  occ. eigenvalues --  -19.64076 -19.62072 -19.61910 -14.79806 -14.78806
 Alpha  occ. eigenvalues --  -10.71193 -10.71061 -10.69347 -10.66435 -10.66363
 Alpha  occ. eigenvalues --  -10.60984 -10.60631 -10.59643 -10.54576  -1.39893
 Alpha  occ. eigenvalues --   -1.39409  -1.33691  -1.33421  -1.24571  -1.17541
 Alpha  occ. eigenvalues --   -1.16615  -1.14897  -1.05267  -1.04193  -0.90005
 Alpha  occ. eigenvalues --   -0.87507  -0.82777  -0.82367  -0.77257  -0.74397
 Alpha  occ. eigenvalues --   -0.68966  -0.67675  -0.66625  -0.65453  -0.64680
 Alpha  occ. eigenvalues --   -0.63692  -0.63122  -0.62605  -0.61497  -0.60717
 Alpha  occ. eigenvalues --   -0.57390  -0.56887  -0.56144  -0.55262  -0.54543
 Alpha  occ. eigenvalues --   -0.54000  -0.52283  -0.51786  -0.51188  -0.50301
 Alpha  occ. eigenvalues --   -0.49698  -0.49301  -0.49031  -0.48297  -0.48098
 Alpha  occ. eigenvalues --   -0.47531  -0.46342  -0.45633  -0.45235  -0.43694
 Alpha  occ. eigenvalues --   -0.43249  -0.42425  -0.41456  -0.37826  -0.36913
 Alpha  occ. eigenvalues --   -0.35948  -0.33855  -0.32438  -0.31151
 Alpha virt. eigenvalues --    0.04456   0.05001   0.07253   0.13531   0.15014
 Alpha virt. eigenvalues --    0.15789   0.16703   0.17207   0.17795   0.18428
 Alpha virt. eigenvalues --    0.18905   0.20153   0.21070   0.21521   0.21565
 Alpha virt. eigenvalues --    0.21765   0.22578   0.22772   0.23730   0.24160
 Alpha virt. eigenvalues --    0.26167   0.27800   0.29573   0.29974   0.31001
 Alpha virt. eigenvalues --    0.32777   0.34703   0.36493   0.37159   0.41363
 Alpha virt. eigenvalues --    0.43257   0.45265   0.47511   0.50905   0.54708
 Alpha virt. eigenvalues --    0.55991   0.56454   0.57237   0.57766   0.58783
 Alpha virt. eigenvalues --    0.59534   0.60331   0.60591   0.61734   0.62970
 Alpha virt. eigenvalues --    0.63667   0.65779   0.66518   0.67736   0.68734
 Alpha virt. eigenvalues --    0.69204   0.72011   0.72383   0.73126   0.74957
 Alpha virt. eigenvalues --    0.75696   0.78228   0.79685   0.80430   0.83104
 Alpha virt. eigenvalues --    0.83466   0.84299   0.86572   0.87606   0.88736
 Alpha virt. eigenvalues --    0.90181   0.91266   0.91914   0.92297   0.92734
 Alpha virt. eigenvalues --    0.94130   0.95533   0.95644   0.96724   0.97682
 Alpha virt. eigenvalues --    0.98546   0.98716   1.00408   1.01692   1.02709
 Alpha virt. eigenvalues --    1.04365   1.05504   1.07731   1.08027   1.10084
 Alpha virt. eigenvalues --    1.12222   1.13764   1.16189   1.17062   1.18498
 Alpha virt. eigenvalues --    1.19462   1.21005   1.22308   1.23826   1.24860
 Alpha virt. eigenvalues --    1.25919   1.27338   1.27687   1.30766   1.32931
 Alpha virt. eigenvalues --    1.35925   1.37865   1.38742   1.41223   1.42982
 Alpha virt. eigenvalues --    1.43637   1.44394   1.44699   1.45856   1.46406
 Alpha virt. eigenvalues --    1.47388   1.47945   1.49188   1.49754   1.51017
 Alpha virt. eigenvalues --    1.51609   1.52768   1.55746   1.56512   1.58920
 Alpha virt. eigenvalues --    1.59868   1.64371   1.65194   1.68313   1.70378
 Alpha virt. eigenvalues --    1.71398   1.73069   1.75928   1.77077   1.77661
 Alpha virt. eigenvalues --    1.77903   1.79072   1.80688   1.81800   1.82524
 Alpha virt. eigenvalues --    1.83072   1.85602   1.85948   1.87308   1.88128
 Alpha virt. eigenvalues --    1.89329   1.90276   1.90453   1.92865   1.93104
 Alpha virt. eigenvalues --    1.94526   1.95501   1.95978   1.97945   1.99029
 Alpha virt. eigenvalues --    1.99625   2.00806   2.01460   2.03307   2.05664
 Alpha virt. eigenvalues --    2.06580   2.07348   2.10150   2.10318   2.11500
 Alpha virt. eigenvalues --    2.12413   2.14802   2.15537   2.16583   2.16818
 Alpha virt. eigenvalues --    2.18032   2.18804   2.21869   2.22002   2.23974
 Alpha virt. eigenvalues --    2.24736   2.25544   2.29001   2.30533   2.33573
 Alpha virt. eigenvalues --    2.34209   2.35073   2.37472   2.37915   2.39741
 Alpha virt. eigenvalues --    2.40541   2.41635   2.44298   2.44870   2.47925
 Alpha virt. eigenvalues --    2.50359   2.51810   2.54050   2.55179   2.59756
 Alpha virt. eigenvalues --    2.63763   2.66982   2.67953   2.69551   2.69761
 Alpha virt. eigenvalues --    2.72750   2.75383   2.76599   2.78785   2.83564
 Alpha virt. eigenvalues --    2.86306   2.87091   2.88078   2.93599   2.99380
 Alpha virt. eigenvalues --    3.00998   3.03291   3.04568   3.07734   3.09316
 Alpha virt. eigenvalues --    3.11174   3.12208   3.16168   3.17583   3.21288
 Alpha virt. eigenvalues --    3.22900   3.96837   4.02503   4.07272   4.12470
 Alpha virt. eigenvalues --    4.19869   4.21627   4.23835   4.27112   4.28254
 Alpha virt. eigenvalues --    4.32626   4.43351   4.47205   4.48717   4.52326
 Alpha virt. eigenvalues --    4.56747   4.67730   4.73705   5.15129   5.26668
          Condensed to atoms (all electrons):
               1          2          3          4          5          6
     1  N    7.256278   0.304231   0.176746  -0.039830  -0.030423  -0.058415
     2  H    0.304231   0.328052  -0.032599   0.003611  -0.003427   0.000523
     3  C    0.176746  -0.032599   5.548505   0.362419   0.253908   0.249450
     4  H   -0.039830   0.003611   0.362419   0.466659  -0.019231  -0.035065
     5  C   -0.030423  -0.003427   0.253908  -0.019231   4.392948  -0.016442
     6  C   -0.058415   0.000523   0.249450  -0.035065  -0.016442   4.384803
     7  H    0.003972   0.000456  -0.076267  -0.002924   0.402403   0.005598
     8  O   -0.000607   0.000662  -0.083064   0.002023   0.013208   0.578673
     9  N    0.000602  -0.000002  -0.118341   0.003406   0.004415   0.268311
    10  H   -0.006990  -0.000122   0.003507   0.000207   0.000098  -0.012726
    11  C   -0.001169   0.000041   0.009028   0.000088  -0.000104  -0.032895
    12  H   -0.000069  -0.000004   0.001267  -0.000040  -0.000011   0.000297
    13  C    0.000680  -0.000014  -0.000401   0.000003  -0.000001  -0.002784
    14  C   -0.000015   0.000000  -0.000183  -0.000015   0.000001   0.002586
    15  H   -0.000006   0.000001  -0.000011   0.000000   0.000000   0.000383
    16  O    0.000000   0.000000   0.000001   0.000000   0.000000  -0.000040
    17  O    0.000000   0.000000  -0.000019   0.000001   0.000000   0.000213
    18  C    0.000000   0.000000   0.000000   0.000000   0.000000   0.000005
    19  H    0.000000   0.000000   0.000000   0.000000   0.000000  -0.000001
    20  H    0.000000   0.000000   0.000000   0.000000   0.000000   0.000001
    21  H    0.000000   0.000000   0.000000   0.000000   0.000000   0.000000
    22  F   -0.000054   0.000001  -0.000015   0.000000   0.000000   0.000146
    23  F   -0.000422   0.000409  -0.001509  -0.000004   0.000009   0.013596
    24  F   -0.000097   0.010488  -0.041015   0.001891   0.248822  -0.001141
    25  F    0.001636   0.000094  -0.039912   0.000917   0.264590   0.011813
    26  C    0.253386  -0.012188  -0.024514  -0.001274   0.003609  -0.003958
    27  O   -0.108968   0.002398   0.007382   0.010408   0.000452  -0.003872
    28  C   -0.116708  -0.000082   0.006843   0.000640  -0.000092  -0.000446
    29  H   -0.000683   0.000052  -0.000245  -0.000018  -0.000001   0.000099
    30  H    0.004187   0.001357   0.000045  -0.000039  -0.000018   0.000011
    31  H    0.004017   0.000023  -0.000141   0.000007   0.000001  -0.000003
               7          8          9         10         11         12
     1  N    0.003972  -0.000607   0.000602  -0.006990  -0.001169  -0.000069
     2  H    0.000456   0.000662  -0.000002  -0.000122   0.000041  -0.000004
     3  C   -0.076267  -0.083064  -0.118341   0.003507   0.009028   0.001267
     4  H   -0.002924   0.002023   0.003406   0.000207   0.000088  -0.000040
     5  C    0.402403   0.013208   0.004415   0.000098  -0.000104  -0.000011
     6  C    0.005598   0.578673   0.268311  -0.012726  -0.032895   0.000297
     7  H    0.547910  -0.000078  -0.000071   0.000004   0.000002   0.000000
     8  O   -0.000078   8.102306  -0.103919   0.002262   0.000678   0.017545
     9  N   -0.000071  -0.103919   7.288424   0.275245   0.174967  -0.040983
    10  H    0.000004   0.002262   0.275245   0.317793  -0.032241   0.003186
    11  C    0.000002   0.000678   0.174967  -0.032241   5.477740   0.354847
    12  H    0.000000   0.017545  -0.040983   0.003186   0.354847   0.430769
    13  C    0.000000  -0.000415  -0.042918  -0.000562   0.283174  -0.020904
    14  C    0.000000   0.000092  -0.039524  -0.001379   0.292309  -0.015966
    15  H    0.000000  -0.000080   0.005365   0.000198  -0.069085   0.000247
    16  O    0.000000   0.000000   0.002411   0.000019  -0.082414  -0.000776
    17  O    0.000000   0.000002   0.001579   0.003802  -0.098199   0.000096
    18  C    0.000000   0.000000  -0.000333  -0.000144   0.007148  -0.000098
    19  H    0.000000   0.000000  -0.000017  -0.000006   0.000027   0.000002
    20  H    0.000000   0.000000   0.000002   0.000010  -0.000196   0.000033
    21  H    0.000000   0.000000  -0.000016  -0.000014  -0.000210  -0.000013
    22  F    0.000000  -0.000001  -0.002133   0.006663  -0.049595   0.001885
    23  F    0.000000  -0.001237  -0.005677  -0.000065  -0.037414  -0.000113
    24  F   -0.037485  -0.000834   0.000041  -0.000003   0.000002   0.000001
    25  F   -0.034606  -0.003734   0.000097   0.000002   0.000001   0.000000
    26  C   -0.000062  -0.000172   0.007685   0.001521  -0.001948  -0.000028
    27  O    0.000001  -0.000005  -0.016684   0.035312   0.000624  -0.000007
    28  C   -0.000017  -0.000001  -0.000216   0.000911   0.000056   0.000000
    29  H    0.000000   0.000000   0.000074  -0.000112   0.000029   0.000000
    30  H    0.000002   0.000000   0.000001  -0.000017  -0.000001   0.000000
    31  H   -0.000001   0.000000   0.000003  -0.000005  -0.000001   0.000000
              13         14         15         16         17         18
     1  N    0.000680  -0.000015  -0.000006   0.000000   0.000000   0.000000
     2  H   -0.000014   0.000000   0.000001   0.000000   0.000000   0.000000
     3  C   -0.000401  -0.000183  -0.000011   0.000001  -0.000019   0.000000
     4  H    0.000003  -0.000015   0.000000   0.000000   0.000001   0.000000
     5  C   -0.000001   0.000001   0.000000   0.000000   0.000000   0.000000
     6  C   -0.002784   0.002586   0.000383  -0.000040   0.000213   0.000005
     7  H    0.000000   0.000000   0.000000   0.000000   0.000000   0.000000
     8  O   -0.000415   0.000092  -0.000080   0.000000   0.000002   0.000000
     9  N   -0.042918  -0.039524   0.005365   0.002411   0.001579  -0.000333
    10  H   -0.000562  -0.001379   0.000198   0.000019   0.003802  -0.000144
    11  C    0.283174   0.292309  -0.069085  -0.082414  -0.098199   0.007148
    12  H   -0.020904  -0.015966   0.000247  -0.000776   0.000096  -0.000098
    13  C    4.430536  -0.043393   0.386497   0.007540   0.000721  -0.000105
    14  C   -0.043393   4.327084  -0.001663   0.529893   0.298477  -0.028295
    15  H    0.386497  -0.001663   0.537295   0.006928   0.000082  -0.000005
    16  O    0.007540   0.529893   0.006928   8.115976  -0.081889   0.000368
    17  O    0.000721   0.298477   0.000082  -0.081889   8.251763   0.187152
    18  C   -0.000105  -0.028295  -0.000005   0.000368   0.187152   4.949291
    19  H   -0.000001   0.004131   0.000000   0.000583  -0.030198   0.386335
    20  H   -0.000025  -0.004559   0.000000   0.004338  -0.031037   0.381882
    21  H    0.000079  -0.005053  -0.000001   0.004790  -0.030876   0.381824
    22  F    0.251171   0.010863  -0.034883  -0.001384  -0.000129  -0.000006
    23  F    0.266534   0.002294  -0.033902   0.000017  -0.000004   0.000000
    24  F    0.000000   0.000000   0.000000   0.000000   0.000000   0.000000
    25  F    0.000000   0.000000   0.000000   0.000000   0.000000   0.000000
    26  C    0.001628   0.000013   0.000060   0.000000  -0.000002   0.000000
    27  O    0.000205   0.000008  -0.000003   0.000000  -0.000005   0.000000
    28  C   -0.000220   0.000001  -0.000016   0.000000   0.000000   0.000000
    29  H    0.000552  -0.000003   0.000059   0.000000   0.000000   0.000000
    30  H    0.000004   0.000000   0.000000   0.000000   0.000000   0.000000
    31  H    0.000005   0.000000   0.000000   0.000000   0.000000   0.000000
              19         20         21         22         23         24
     1  N    0.000000   0.000000   0.000000  -0.000054  -0.000422  -0.000097
     2  H    0.000000   0.000000   0.000000   0.000001   0.000409   0.010488
     3  C    0.000000   0.000000   0.000000  -0.000015  -0.001509  -0.041015
     4  H    0.000000   0.000000   0.000000   0.000000  -0.000004   0.001891
     5  C    0.000000   0.000000   0.000000   0.000000   0.000009   0.248822
     6  C   -0.000001   0.000001   0.000000   0.000146   0.013596  -0.001141
     7  H    0.000000   0.000000   0.000000   0.000000   0.000000  -0.037485
     8  O    0.000000   0.000000   0.000000  -0.000001  -0.001237  -0.000834
     9  N   -0.000017   0.000002  -0.000016  -0.002133  -0.005677   0.000041
    10  H   -0.000006   0.000010  -0.000014   0.006663  -0.000065  -0.000003
    11  C    0.000027  -0.000196  -0.000210  -0.049595  -0.037414   0.000002
    12  H    0.000002   0.000033  -0.000013   0.001885  -0.000113   0.000001
    13  C   -0.000001  -0.000025   0.000079   0.251171   0.266534   0.000000
    14  C    0.004131  -0.004559  -0.005053   0.010863   0.002294   0.000000
    15  H    0.000000   0.000000  -0.000001  -0.034883  -0.033902   0.000000
    16  O    0.000583   0.004338   0.004790  -0.001384   0.000017   0.000000
    17  O   -0.030198  -0.031037  -0.030876  -0.000129  -0.000004   0.000000
    18  C    0.386335   0.381882   0.381824  -0.000006   0.000000   0.000000
    19  H    0.485902  -0.026328  -0.026117   0.000000   0.000000   0.000000
    20  H   -0.026328   0.510041  -0.032231   0.000000   0.000000   0.000000
    21  H   -0.026117  -0.032231   0.508344  -0.000005   0.000000   0.000000
    22  F    0.000000   0.000000  -0.000005   9.159925  -0.036199   0.000000
    23  F    0.000000   0.000000   0.000000  -0.036199   9.134459   0.000000
    24  F    0.000000   0.000000   0.000000   0.000000   0.000000   9.163268
    25  F    0.000000   0.000000   0.000000   0.000000   0.000000  -0.032739
    26  C    0.000000   0.000000   0.000000   0.002645   0.002846   0.000289
    27  O    0.000000   0.000000   0.000000  -0.000633  -0.000079  -0.000001
    28  C    0.000000   0.000000   0.000000  -0.000969  -0.001333  -0.000006
    29  H    0.000000   0.000000   0.000000   0.002524   0.003457   0.000000
    30  H    0.000000   0.000000   0.000000   0.000004  -0.000006  -0.000002
    31  H    0.000000   0.000000   0.000000   0.000003   0.000012   0.000000
              25         26         27         28         29         30
     1  N    0.001636   0.253386  -0.108968  -0.116708  -0.000683   0.004187
     2  H    0.000094  -0.012188   0.002398  -0.000082   0.000052   0.001357
     3  C   -0.039912  -0.024514   0.007382   0.006843  -0.000245   0.000045
     4  H    0.000917  -0.001274   0.010408   0.000640  -0.000018  -0.000039
     5  C    0.264590   0.003609   0.000452  -0.000092  -0.000001  -0.000018
     6  C    0.011813  -0.003958  -0.003872  -0.000446   0.000099   0.000011
     7  H   -0.034606  -0.000062   0.000001  -0.000017   0.000000   0.000002
     8  O   -0.003734  -0.000172  -0.000005  -0.000001   0.000000   0.000000
     9  N    0.000097   0.007685  -0.016684  -0.000216   0.000074   0.000001
    10  H    0.000002   0.001521   0.035312   0.000911  -0.000112  -0.000017
    11  C    0.000001  -0.001948   0.000624   0.000056   0.000029  -0.000001
    12  H    0.000000  -0.000028  -0.000007   0.000000   0.000000   0.000000
    13  C    0.000000   0.001628   0.000205  -0.000220   0.000552   0.000004
    14  C    0.000000   0.000013   0.000008   0.000001  -0.000003   0.000000
    15  H    0.000000   0.000060  -0.000003  -0.000016   0.000059   0.000000
    16  O    0.000000   0.000000   0.000000   0.000000   0.000000   0.000000
    17  O    0.000000  -0.000002  -0.000005   0.000000   0.000000   0.000000
    18  C    0.000000   0.000000   0.000000   0.000000   0.000000   0.000000
    19  H    0.000000   0.000000   0.000000   0.000000   0.000000   0.000000
    20  H    0.000000   0.000000   0.000000   0.000000   0.000000   0.000000
    21  H    0.000000   0.000000   0.000000   0.000000   0.000000   0.000000
    22  F    0.000000   0.002645  -0.000633  -0.000969   0.002524   0.000004
    23  F    0.000000   0.002846  -0.000079  -0.001333   0.003457  -0.000006
    24  F   -0.032739   0.000289  -0.000001  -0.000006   0.000000  -0.000002
    25  F    9.135480  -0.000005   0.000000   0.000000   0.000000   0.000000
    26  C   -0.000005   4.327043   0.540351   0.375125  -0.020786  -0.027353
    27  O    0.000000   0.540351   8.159203  -0.075834  -0.000944   0.002670
    28  C    0.000000   0.375125  -0.075834   5.302722   0.359460   0.360944
    29  H    0.000000  -0.020786  -0.000944   0.359460   0.476361  -0.020751
    30  H    0.000000  -0.027353   0.002670   0.360944  -0.020751   0.505861
    31  H    0.000000  -0.022695   0.001612   0.366469  -0.017476  -0.021275
              31
     1  N    0.004017
     2  H    0.000023
     3  C   -0.000141
     4  H    0.000007
     5  C    0.000001
     6  C   -0.000003
     7  H   -0.000001
     8  O    0.000000
     9  N    0.000003
    10  H   -0.000005
    11  C   -0.000001
    12  H    0.000000
    13  C    0.000005
    14  C    0.000000
    15  H    0.000000
    16  O    0.000000
    17  O    0.000000
    18  C    0.000000
    19  H    0.000000
    20  H    0.000000
    21  H    0.000000
    22  F    0.000003
    23  F    0.000012
    24  F    0.000000
    25  F    0.000000
    26  C   -0.022695
    27  O    0.001612
    28  C    0.366469
    29  H   -0.017476
    30  H   -0.021275
    31  H    0.477013
 Mulliken charges:
               1
     1  N   -0.641278
     2  H    0.396039
     3  C   -0.200865
     4  H    0.246162
     5  C    0.485287
     6  C    0.651281
     7  H    0.191161
     8  O   -0.523305
     9  N   -0.661792
    10  H    0.403645
    11  C   -0.195286
    12  H    0.268837
    13  C    0.482416
    14  C    0.672294
    15  H    0.202541
    16  O   -0.506362
    17  O   -0.471530
    18  C   -0.265018
    19  H    0.205689
    20  H    0.198067
    21  H    0.199497
    22  F   -0.309825
    23  F   -0.305669
    24  F   -0.311477
    25  F   -0.303633
    26  C    0.598785
    27  O   -0.553591
    28  C   -0.577230
    29  H    0.218352
    30  H    0.194377
    31  H    0.212432
 Sum of Mulliken charges =   0.00000
 Mulliken charges with hydrogens summed into heavy atoms:
               1
     1  N   -0.245239
     3  C    0.045297
     5  C    0.676448
     6  C    0.651281
     8  O   -0.523305
     9  N   -0.258147
    11  C    0.073550
    13  C    0.684956
    14  C    0.672294
    16  O   -0.506362
    17  O   -0.471530
    18  C    0.338234
    22  F   -0.309825
    23  F   -0.305669
    24  F   -0.311477
    25  F   -0.303633
    26  C    0.598785
    27  O   -0.553591
    28  C    0.047932
 Electronic spatial extent (au):  <R**2>=           5169.0287
 Charge=              0.0000 electrons
 Dipole moment (field-independent basis, Debye):
    X=             -0.4525    Y=              2.1008    Z=              1.9303  Tot=              2.8886
 Quadrupole moment (field-independent basis, Debye-Ang):
   XX=            -95.4444   YY=           -105.8733   ZZ=           -108.5366
   XY=            -15.6076   XZ=             -0.2880   YZ=            -10.8463
 Traceless Quadrupole moment (field-independent basis, Debye-Ang):
   XX=              7.8404   YY=             -2.5885   ZZ=             -5.2519
   XY=            -15.6076   XZ=             -0.2880   YZ=            -10.8463
 Octapole moment (field-independent basis, Debye-Ang**2):
  XXX=            -33.9445  YYY=             27.9417  ZZZ=            -17.5922  XYY=              5.3423
  XXY=             -8.8052  XXZ=             52.6204  XZZ=             15.5640  YZZ=             -9.0772
  YYZ=              1.3531  XYZ=             -0.9367
 Hexadecapole moment (field-independent basis, Debye-Ang**3):
 XXXX=          -3599.7280 YYYY=          -1550.3769 ZZZZ=           -744.2933 XXXY=            -77.6969
 XXXZ=            152.6211 YYYX=            -30.0970 YYYZ=            -15.4498 ZZZX=             20.1907
 ZZZY=            -59.2476 XXYY=           -818.4953 XXZZ=           -677.6683 YYZZ=           -388.0628
 XXYZ=            -86.7795 YYXZ=              0.5903 ZZXY=             13.2612
 N-N= 1.674331298638D+03 E-N=-6.076494197012D+03  KE= 1.150898615695D+03
 No NMR shielding tensors so no spin-rotation constants.
 Leave Link  601 at Mon Dec 30 11:34:13 2019, MaxMem=  4294967296 cpu:              36.6 elap:               3.5
 (Enter /n/sw/g16_nehalem/g16/l701.exe)
 ... and contract with generalized density number  0.
 Compute integral first derivatives.
 D1PCM: PCM CHGder 1st derivatives, ID1Alg=3 FixD1E=F DoIter=F DoCFld=F I1PDM=0.
 GePol: Maximum number of non-zero 1st derivatives   =     311
 Leave Link  701 at Mon Dec 30 11:34:15 2019, MaxMem=  4294967296 cpu:              16.2 elap:               1.7
 (Enter /n/sw/g16_nehalem/g16/l702.exe)
 L702 exits ... SP integral derivatives will be done elsewhere.
 Leave Link  702 at Mon Dec 30 11:34:16 2019, MaxMem=  4294967296 cpu:               0.3 elap:               0.0
 (Enter /n/sw/g16_nehalem/g16/l703.exe)
 Integral derivatives from FoFJK, PRISM(SPDF).
 Compute integral first derivatives, UseDBF=F ICtDFT=           0.
 Calling FoFJK, ICntrl=      2127 FMM=F ISym2X=0 I1Cent= 0 IOpClX= 0 NMat=1 NMatS=1 NMatT=0.
 FoFJK:  IHMeth= 1 ICntrl=    2127 DoSepK=F KAlg= 0 I1Cent=           0 FoldK=F
 IRaf=         0 NMat=       1 IRICut=       1 DoRegI=T DoRafI=F ISym2E= 0 IDoP0=0 IntGTp=1.
 FoFCou: FMM=F IPFlag=           0 FMFlag=      100000 FMFlg1=         800
         NFxFlg=           0 DoJE=F BraDBF=F KetDBF=F FulRan=T
         wScrn=  0.000000 ICntrl=      2127 IOpCl=  0 I1Cent=           0 NGrid=           0
         NMat0=    1 NMatS0=      1 NMatT0=    0 NMatD0=    1 NMtDS0=    0 NMtDT0=    0
 Symmetry not used in FoFCou.
 Leave Link  703 at Mon Dec 30 11:34:22 2019, MaxMem=  4294967296 cpu:              88.3 elap:               5.7
 (Enter /n/sw/g16_nehalem/g16/l716.exe)
 Dipole        =-1.78013156D-01 8.26501308D-01 7.59422973D-01
 ***** Axes restored to original set *****
 -------------------------------------------------------------------
 Center     Atomic                   Forces (Hartrees/Bohr)
 Number     Number              X              Y              Z
 -------------------------------------------------------------------
      1        7          -0.000000398    0.000003052   -0.000000303
      2        1           0.000000076    0.000000983   -0.000001968
      3        6          -0.000001234   -0.000006053    0.000003835
      4        1           0.000000658   -0.000002685    0.000000741
      5        6           0.000001526    0.000006548    0.000003627
      6        6          -0.000004029    0.000024545    0.000013807
      7        1           0.000002943   -0.000003213    0.000005930
      8        8           0.000004717   -0.000002545    0.000004452
      9        7           0.000002880   -0.000003488   -0.000001497
     10        1           0.000002681   -0.000000314   -0.000003452
     11        6          -0.000004815   -0.000002723    0.000001895
     12        1          -0.000000901    0.000003606    0.000002744
     13        6           0.000007709   -0.000001896   -0.000003778
     14        6          -0.000002800   -0.000000452    0.000014100
     15        1          -0.000001657    0.000009206   -0.000004188
     16        8           0.000003393    0.000004041   -0.000003563
     17        8           0.000002739   -0.000006457   -0.000007511
     18        6          -0.000000028   -0.000006156    0.000003901
     19        1           0.000003089   -0.000009433    0.000004854
     20        1           0.000000843   -0.000004017    0.000004889
     21        1           0.000001463   -0.000007814   -0.000001138
     22        9          -0.000003187    0.000009135   -0.000011371
     23        9          -0.000005816    0.000009382   -0.000003426
     24        9          -0.000001440    0.000002675    0.000010170
     25        9           0.000001357   -0.000000274    0.000012521
     26        6          -0.000015964   -0.000009382   -0.000000334
     27        8           0.000008733   -0.000004369   -0.000004010
     28        6           0.000003439   -0.000002612   -0.000012413
     29        1          -0.000003438    0.000001698   -0.000008446
     30        1          -0.000001559    0.000001375   -0.000008539
     31        1          -0.000000979   -0.000002362   -0.000011529
 -------------------------------------------------------------------
 Cartesian Forces:  Max     0.000024545 RMS     0.000006149
[...]
 -0.00006703,0.00000087,0.00001857,-0.00003140,0.00012431,-0.00009598,-
 0.00012866,-0.00007165,-0.00013528,0.00000004,-0.00002483,-0.00000202,
 0.00006255,0.00001074,0.00003972,0.00006185,0.00005556,0.00011293,-0.0
 0002600,-0.00001200,-0.00003585,0.00000821,0.00000500,0.00000675,0.000
 00670,0.00000016,0.00000509,0.00000766,0.00000186,0.00000177,0.0000084
 5,-0.00007302,0.00006676,0.00004764,-0.00004154,0.00003238,-0.01641728
 ,-0.05019504,-0.00877247,0.00275212,0.00769654,0.06739681,-0.11699068,
 0.06820106,-0.08838432,-0.01756162,0.00780094,0.00068717,0.00219678,0.
 00614290,0.01506369,0.00083745,-0.00337458,-0.00199488,-0.00492350,0.0
 0286269,-0.00309493,0.01540562,-0.00972716,-0.00277552,0.00002152,0.00
 018985,0.00010426,-0.00492320,0.00137937,0.00191872,-0.00604567,0.0037
 3874,-0.00231572,-0.00758550,-0.01088493,0.00525139,-0.00100532,0.0020
 8420,-0.00107371,0.00079623,-0.00011795,-0.00027122,-0.00046562,-0.002
 92347,0.00486911,-0.00037459,-0.00021086,0.00028352,-0.00003343,0.0004
 1714,-0.00036789,0.00012406,0.00010716,-0.00010877,0.00015799,0.000187
 32,-0.00014502,-0.00015557,-0.00013524,-0.00003918,-0.00000408,-0.0000
 2984,0.00002040,0.00003127,0.00002449,-0.00002972,-0.00003715,0.000012
 83,0.00001926,0.00115601,0.00170906,-0.00289538,-0.00095265,0.00042569
 ,-0.00106121,0.00054560,-0.00091229,0.00029748,0.00154883,-0.00437831,
 0.00073192,0.55124608,0.07270163,-0.25357049,0.07300529,-0.00347579,0.
 01659512,-0.00656891,0.01939586,-0.04074113,0.01052777,0.00091160,0.00
 061023,0.00081952,-0.00041763,-0.00729741,-0.00058840,-0.00395263,-0.0
 0079369,0.00480110,0.00018107,-0.00001206,-0.00003720,0.00177810,0.000
 81797,-0.00353017,0.00363495,0.00074576,0.00006241,-0.00343104,-0.0018
 4988,-0.00216817,-0.00168807,-0.00051948,0.00167462,-0.00019242,0.0000
 2241,-0.00010651,-0.00050102,0.00234756,-0.00098722,-0.00144639,-0.000
 17240,-0.00064982,0.00011263,-0.00049676,-0.00001265,0.00122604,-0.000
 17886,0.00000542,0.00074482,0.00018608,0.00049355,-0.00042286,-0.00007
 684,-0.00026210,0.00002537,0.00002541,0.00002766,0.00007725,0.00000684
 ,0.00002333,0.00008552,-0.00000372,0.00001319,0.00001921,-0.00147115,0
 .00081350,0.00074451,-0.00093396,-0.00031429,-0.00156336,0.00252076,-0
 .00063026,0.00041726,0.00179340,-0.00026914,0.03750036,0.66569807,-0.0
 6687972,0.04149906,-0.14203634,-0.01422427,0.02016932,-0.01114645,0.00
 868420,0.00995660,0.01430929,-0.00021127,-0.00440948,-0.00125659,-0.00
 659538,0.00001180,-0.00345271,0.01213468,-0.00365916,-0.00344479,0.000
 05542,0.00044450,-0.00001823,-0.00405848,0.00059484,0.00162474,-0.0039
 6138,0.00402129,-0.00288994,-0.00495585,-0.00831868,0.00681715,-0.0006
 7524,0.00230699,-0.00157624,0.00079338,-0.00012301,-0.00035885,0.00312
 155,-0.00095020,0.00399849,0.00029622,0.00005658,0.00096967,-0.0002932
 8,0.00023554,-0.00034518,-0.00026149,-0.00002534,-0.00028197,-0.000177
 69,-0.00006148,-0.00069348,0.00003815,-0.00005580,0.00008070,-0.000033
 08,-0.00005334,-0.00000704,-0.00000374,0.00002339,-0.00004227,-0.00007
 828,0.00000665,0.00001554,0.00014099,0.00085976,-0.00267947,-0.0028357
 3,-0.00066182,-0.00030518,0.00035146,-0.00060699,0.00043752,0.00243656
 ,-0.00634844,0.00110904,0.36378463,0.08643005,0.64855755,-0.04644971,0
 .02415394,-0.06259680,0.00576609,0.00672788,-0.00265233,-0.00176401,-0
 .00725564,-0.00197931,-0.00133688,0.00187332,0.00007796,0.00230156,-0.
 00264687,0.00055297,-0.01162985,0.00337193,0.00049945,0.00013099,-0.00
 016990,0.00000901,0.00371459,-0.00118606,0.00099260,0.00240983,-0.0060
 3889,0.00486814,0.00288309,0.00645354,-0.00397884,0.00159328,-0.002218
 94,0.00072974,-0.00075537,0.00010056,0.00045466,-0.00080673,0.00134681
 ,-0.00391923,0.00090589,0.00033677,-0.00009699,0.00006500,-0.00014895,
 0.00038575,-0.00054560,-0.00004864,0.00011942,-0.00010896,-0.00020473,
 0.00025245,0.00030402,0.00018385,0.00013790,-0.00000469,0.00001945,-0.
 00002907,-0.00005695,-0.00003059,0.00002264,0.00001546,-0.00001260,-0.
 00002357,-0.00103487,-0.00101672,0.00249827,0.00119616,0.00016461,0.00
 080426,-0.00057432,0.00123252,-0.00018087,-0.00049831,0.00235106,-0.00
 042334,-0.32321294,-0.10770881,-0.28106806,0.36574386,0.01887504,0.026
 96589,0.02645310,0.00450168,-0.00379508,0.00123500,0.00264404,-0.00171
 084,-0.00226443,0.00128245,0.00080537,0.00303490,-0.00150393,0.0025662
 4,0.00159053,-0.00260404,0.00294886,-0.00205229,0.00021004,-0.00019447
 ,-0.00003970,0.00079296,-0.00112354,0.00186241,-0.00371345,-0.00341394
 ,0.00351387,0.00301356,0.00011761,0.00010549,0.00151577,-0.00194329,0.
 00023509,-0.00056792,0.00017043,0.00042646,-0.00013541,-0.00137030,-0.
 00026999,0.00106054,0.00015399,0.00030967,0.00000095,0.00025154,0.0000
 5183,-0.00084931,0.00012884,0.00004665,-0.00027042,-0.00011901,-0.0000
 5971,0.00030059,0.00006643,0.00014326,-0.00000567,0.00000091,-0.000017
 03,-0.00005325,-0.00000887,-0.00000007,-0.00003968,-0.00000173,-0.0000
 1164,-0.00007751,0.00055087,-0.00015568,0.00021339,0.00051701,0.000201
 59,0.00170187,-0.00075684,0.00129493,-0.00006360,-0.00010988,-0.000156
 01,-0.09003493,-0.15411893,-0.10595917,0.09579984,0.14435554,-0.064782
 15,0.02607398,-0.04207927,-0.00251686,0.00435089,0.00338145,0.00278045
 ,-0.00855547,-0.00510998,-0.00020327,0.00298393,0.00000674,0.00216557,
 -0.00263774,0.00049055,-0.00454090,0.00171309,0.00356090,-0.00004810,-
 0.00012466,0.00000049,0.00144477,0.00003527,-0.00211162,0.00438427,0.0
 0043439,-0.00020544,0.00171389,0.00448663,-0.00553266,-0.00022556,0.00
 004689,0.00059173,-0.00013989,0.00000605,-0.00005474,-0.00078089,0.000
 62942,-0.00091994,-0.00061400,-0.00035973,-0.00105718,0.00006199,-0.00
 017930,0.00001783,0.00044262,0.00005694,0.00026648,0.00024255,0.000170
 35,0.00074974,-0.00011493,0.00000063,-0.00012346,0.00003607,0.00005240
 ,0.00001646,0.00002098,-0.00001366,0.00003863,0.00007081,-0.00000245,-
 0.00001127,0.00022389,-0.00030699,0.00043121,0.00076385,0.00000560,0.0
 0034027,-0.00045136,0.00112786,0.00008949,-0.00060354,0.00236795,-0.00
 027432,-0.28274298,-0.12192912,-0.40349326,0.36718268,0.10958562,0.458
 23990,0.00813704,0.02003186,0.00057430,-0.00043613,0.00132687,0.000238
 37,0.00160609,0.00113591,-0.00438940,-0.00003471,-0.00020595,0.0001296
 9,0.00078342,-0.00021303,0.00004676,-0.00065422,0.00097541,0.00112041,
 -0.00008230,0.00005615,-0.00000313,0.00025066,0.00007150,-0.00072200,0
 .00042322,0.00022061,-0.00028069,-0.00009733,-0.00017647,-0.00021065,-
 0.00012918,-0.00009571,0.00023230,-0.00003979,0.00001105,-0.00002732,-
 0.00038944,0.00025485,-0.00035459,-0.00017054,-0.00002499,-0.00009711,
 0.00003630,-0.00006128,0.00002000,0.00012392,-0.00000902,0.00001326,0.
 00008444,0.00002823,0.00008038,-0.00004463,-0.00000720,-0.00002838,0.0
 0000469,0.00000447,0.00000393,0.00000844,-0.00000008,0.00000386,0.0000
 1108,0.00000014,0.00000092,0.00006911,-0.00021518,0.00015962,0.0004343
 7,0.00017511,0.00006561,-0.00021741,-0.00001002,-0.00018513,-0.0002409
 0,0.00036467,-0.00000536,-0.08959861,-0.01945910,-0.00535881,0.0030239
 9,-0.02932252,-0.02324940,0.59068185,0.00167935,-0.03485102,-0.0055643
 1,-0.00062271,-0.00076106,-0.00050315,0.00287369,0.00188030,0.00092489
 ,-0.00018257,0.00005899,-0.00007447,-0.00126787,0.00003877,-0.00045595
 ,0.00071737,0.00009218,-0.00052972,0.00007574,0.00000136,0.00000431,-0
 .00027805,-0.00012343,0.00044371,-0.00044887,0.00004618,0.00023234,0.0
 0032702,0.00021999,-0.00026948,0.00004595,0.00004163,-0.00007924,0.000
 02036,-0.00000278,0.00002004,0.00040017,-0.00012645,0.00018941,0.00022
 354,0.00001938,0.00005136,-0.00005024,-0.00000107,-0.00001180,-0.00016
 543,0.00001805,0.00001022,-0.00011077,-0.00003173,-0.00005160,0.000063
 38,0.00001386,0.00002981,-0.00000254,-0.00000031,-0.00000392,-0.000010
 24,-0.00000244,-0.00000024,-0.00000728,0.,-0.00000304,-0.00006561,0.00
 007124,-0.00017985,-0.00029535,-0.00030507,0.00005613,0.00023821,-0.00
 005136,0.00023863,0.00034724,-0.00076090,0.00013004,-0.01076922,-0.206
 34011,-0.02824899,-0.01266633,-0.00653905,-0.01617181,-0.00299256,0.51
 925811,-0.00026852,0.01459161,0.01232915,0.00215419,0.00019330,0.00018
 991,-0.00681803,0.00286662,0.00230547,-0.00019695,0.00058738,-0.000147
 83,0.00143387,0.00095413,0.00066975,-0.00110349,-0.00094774,-0.0007218
 3,-0.00005285,-0.00003734,0.00002448,0.00023409,-0.00013092,0.00059637
 ,-0.00003022,-0.00044757,0.00067577,0.00084523,0.00089934,-0.00094318,
 0.00027919,-0.00014590,0.00003266,-0.00004463,-0.00001533,0.00006359,-
 0.00040446,0.00016321,-0.00073841,0.00016819,0.00004782,0.00000312,0.0
 0003771,0.00000260,0.00007298,-0.00011450,0.00000592,0.00002044,-0.000
 07934,-0.00002875,-0.00001113,0.00005516,0.00001835,0.00002756,-0.0000
 0061,0.00000134,-0.00000383,-0.00001035,-0.00000307,0.00000096,-0.0000
 0355,-0.00000051,-0.00000281,-0.00005663,-0.00031310,0.00033750,0.0002
 6439,0.00008005,0.00014367,-0.00000223,-0.00010825,-0.00011402,-0.0005
 1570,0.00093846,-0.00019003,-0.00472614,-0.03092049,-0.09771215,-0.020
 50878,-0.03406683,-0.00951504,0.03245244,-0.03966809,0.58328988,0.0007
 1068,0.00022618,0.00056065,-0.00038011,-0.00009041,0.00028651,0.000014
 82,0.00015442,-0.00002789,-0.00003014,0.00001146,0.00000702,-0.0000412
 2,0.00003832,0.00005879,-0.00000684,0.00004785,0.00002810,0.00000609,-
 0.00000577,-0.00000606,-0.00001985,-0.00002323,0.00001306,-0.00003967,
 -0.00002083,0.00007173,0.00015032,0.00018116,-0.00014739,0.00001260,-0
 .00004383,-0.00005943,0.00000654,0.00002036,0.00002779,0.00034725,-0.0
 0057850,0.00074353,0.00002296,-0.00002173,-0.00001903,-0.00004019,0.00
 005955,-0.00005727,-0.00002733,0.00002244,-0.00000097,-0.00001287,0.00
 000611,0.00000779,0.00000404,-0.00000448,0.00000312,-0.00000010,0.0000
 0047,0.00000026,-0.00000083,0.00000037,-0.00000071,-0.00000177,0.00000
 018,-0.00000061,-0.00018903,0.00027948,-0.00053102,-0.00052272,-0.0002
 3337,0.00007194,0.00002512,-0.00001768,-0.00001375,0.00000548,-0.00000
 752,-0.00000873,0.00389556,0.00110255,-0.00452615,-0.00177833,-0.00106
 471,-0.00018945,-0.19031211,0.04088639,0.13198151,0.20351572,-0.001523
 57,-0.00247201,0.00110320,0.00047426,-0.00028535,-0.00020665,-0.001226
 38,-0.00024834,0.00141981,-0.00002301,0.00017430,-0.00003220,-0.000223
 02,0.00025432,-0.00001704,0.00054760,-0.00049779,-0.00058466,0.0000205
 0,-0.00001096,0.00000443,-0.00016817,-0.00002075,0.00040815,-0.0003174
 3,0.00009002,0.00023051,0.00020596,0.00013587,-0.00022964,0.00023093,-
 0.00012062,-0.00009391,0.00001656,-0.00000887,0.00003575,-0.00135664,-
 0.00081202,-0.00012958,-0.00009744,-0.00000941,-0.00008317,0.00012867,
 0.00013862,0.00001894,0.00000702,0.00003619,0.00003001,0.00004470,0.00
 004150,0.00009084,-0.00002153,-0.00000688,-0.00000458,0.00000493,0.000
 00277,0.00000374,0.00000226,-0.00000049,0.00000103,0.00000380,0.000001
 17,0.00000031,0.00027209,0.00018473,-0.00008103,0.00073213,0.00043555,
 0.00021382,0.00009240,-0.00003917,0.00008756,0.00004677,-0.00010515,0.
 00000240,0.02685445,-0.00666693,-0.02425104,-0.00328736,-0.00063391,0.
 00241637,0.04378224,-0.05766820,-0.04151303,-0.04566053,0.06226166,-0.
 00058989,0.00054806,0.00001381,-0.00009522,-0.00006771,0.00002386,0.00
 014828,-0.00014090,-0.00004372,-0.00003076,0.00004169,-0.00002920,-0.0
 0000456,-0.00000676,0.00004451,-0.00002474,0.00005099,0.00003721,0.000
 00388,-0.00000585,-0.00000349,0.00001155,-0.00001795,-0.00004770,-0.00
 006591,-0.00006015,0.00005528,0.00011400,0.00004135,-0.00009781,-0.000
 00852,-0.00000556,-0.00010544,-0.00000908,0.00003308,0.00002536,0.0006
 3784,-0.00046203,0.00097345,0.00001860,-0.00006175,-0.00000949,-0.0000
 4758,0.00005164,-0.00008618,-0.00001786,0.00002703,-0.00000285,-0.0000
 1076,0.00000983,-0.00000183,0.00000199,-0.00000910,0.00000060,-0.00000
 051,-0.00000002,0.00000053,-0.00000029,0.00000150,-0.00000143,-0.00000
 361,0.00000039,-0.00000026,0.00002263,0.00051574,-0.00046569,-0.000201
 02,0.00029006,-0.00086802,0.00000625,-0.00000640,-0.00000949,0.0000026
 9,-0.00000902,-0.00000603,0.00711385,-0.00206608,-0.00849730,-0.001974
 28,-0.00119808,0.00130753,0.13294630,-0.03940497,-0.16605549,-0.144698
 34,0.04421667,0.17721426,0.00112272,0.00094926,0.00035666,0.00028901,-
 0.00027641,0.00040680,0.00035696,-0.00027920,0.00002619,0.00002259,0.0
 0008366,0.00006049,-0.00009645,-0.00001791,-0.00006192,-0.00012705,0.0
 0013518,-0.00012844,0.00000273,0.00000302,0.00000299,0.00003864,-0.000
 05286,0.00011436,0.00003751,-0.00009016,0.00006168,0.00008985,0.000143
 31,-0.00004995,0.00003195,-0.00003321,0.00000812,-0.00000769,-0.000007
 71,-0.00000057,-0.00004990,0.00018273,-0.00029875,0.00003513,0.0000212
 1,0.00000222,0.00000375,-0.00001038,0.00002543,-0.00002298,-0.00000808
 ,0.00000689,-0.00001816,-0.00001179,-0.00000232,0.00001242,0.00000893,
 0.00000444,0.00000005,0.00000069,-0.00000130,-0.00000222,-0.00000159,0
 .00000139,0.00000098,-0.00000032,-0.00000084,-0.00005503,-0.00015625,0
 .00016710,0.00004996,-0.00005975,0.00012388,0.00003496,0.00000162,0.00
 005918,0.00001797,-0.00003183,0.00001220,-0.00241724,0.00327856,-0.000
 11479,0.00083284,-0.00101351,0.00013730,-0.27303521,-0.03201594,-0.111
 79907,-0.01813484,-0.00312673,-0.01120957,0.29092657,0.00184046,0.0004
 7097,0.00037973,-0.00027187,-0.00174984,0.00033329,0.00009797,0.000530
 97,0.00005467,-0.00007275,0.00024509,-0.00003779,-0.00004770,0.0000168
 4,-0.00009685,-0.00020001,0.00015257,-0.00010164,0.00000287,0.00000580
 ,0.00000056,0.00006029,-0.00006073,0.00010048,0.00000596,-0.00010117,0
 .00011077,0.00021423,0.00021621,-0.00019671,0.00006508,-0.00004220,-0.
 00000762,-0.00001577,0.00000357,0.00001305,-0.00000780,-0.00004471,-0.
 00006328,0.00003804,-0.00000100,-0.00000544,0.00000104,0.00000794,0.00
 000739,-0.00003131,0.00000934,0.00000603,-0.00001767,-0.00000131,0.000
 00333,0.00001229,0.00000130,0.00000597,0.00000005,0.00000063,-0.000000
 52,-0.00000243,-0.00000024,-0.00000006,-0.00000157,-0.00000008,-0.0000
 0070,-0.00004447,0.00003281,0.00003226,0.00004412,0.00004079,0.0000203
 8,0.00005356,0.00001313,0.00007755,0.00000063,0.00002852,0.00000979,-0
 .03042653,0.00411234,-0.01224396,-0.00103207,-0.00785030,-0.00468534,-
 0.02793953,-0.05705953,-0.01047179,0.00631116,0.00026596,0.00447952,0.
 03196062,0.05701010,0.00104854,0.00149093,-0.00012014,-0.00030544,-0.0
 0009869,0.00074436,0.00029568,-0.00018781,-0.00019722,-0.00000432,0.00
 003054,0.00005570,-0.00008851,-0.00000523,0.00009205,-0.00003315,0.000
 13074,0.00002788,0.00001484,-0.00000790,-0.00001143,0.00001593,-0.0000
 3940,-0.00000509,-0.00003066,-0.00006839,0.00004369,0.00012584,0.00009
 295,-0.00012251,0.00002700,-0.00002688,-0.00001517,-0.00000769,0.00000
 823,0.00001017,0.00004966,-0.00009200,0.00012827,0.00002339,0.00000456
 ,0.00000718,-0.00000518,0.00000783,-0.00000769,-0.00001863,0.00000018,
 -0.00000134,-0.00001538,-0.00000956,-0.00000914,0.00000987,0.00000468,
 0.00000618,-0.00000022,0.00000019,-0.00000110,-0.00000184,-0.00000065,
 0.00000041,-0.00000050,-0.00000017,-0.00000066,0.00002431,0.00008920,-
 0.00005678,-0.00006862,0.00002071,-0.00006101,0.00002699,-0.00002441,-
 0.00003613,0.00002107,-0.00002518,-0.00001461,-0.00843901,0.00177216,-
 0.00790325,-0.00111137,-0.00427366,0.00036769,-0.11130195,-0.01300746,
 -0.10190095,0.01973519,0.00380941,0.01171583,0.12140256,0.01581874,0.1
 0589897,0.00096021,-0.00029473,-0.00050100,-0.00008693,-0.00035763,0.0
 0034121,0.00029552,0.00022163,0.00010738,-0.00000075,0.00006195,-0.000
 00185,-0.00005213,-0.00001405,-0.00007335,-0.00003900,0.00004444,-0.00
 006334,-0.00000756,0.00001224,-0.00000074,-0.00000091,-0.00002620,0.00
 005438,-0.00002941,-0.00003967,0.00003742,0.00007626,0.00007249,0.0000
 0123,0.00001390,0.00000578,-0.00003272,0.00000117,0.00000111,0.0000049
 2,0.00022756,-0.00002092,0.00011163,0.00004703,-0.00000807,0.00001622,
 -0.00001739,0.00000581,-0.00000603,-0.00003161,0.00001067,-0.00000426,
 -0.00001916,0.00000281,-0.00001583,0.00001029,-0.00000561,0.00000450,-
 0.00000114,-0.00000078,-0.00000015,-0.00000163,0.00000118,-0.00000173,
 -0.00000434,0.00000013,-0.00000007,-0.00004555,0.00007061,-0.00008789,
 -0.00020180,-0.00012018,0.00004142,0.00002269,0.00000490,0.00004228,0.
 00000728,-0.00005054,0.00001498,-0.00167562,0.00032181,0.00447546,-0.0
 0032909,-0.00059292,-0.00046841,-0.05019610,0.01405315,-0.02316994,0.0
 0282075,-0.01643547,0.01796467,0.00006020,0.01940312,-0.02138840,0.048
 19726,-0.00152768,-0.00564229,-0.00307946,-0.00051092,0.00017301,-0.00
 032224,0.00157461,-0.00048760,0.00025181,-0.00000299,-0.00004484,0.000
 00010,-0.00072614,-0.00006720,-0.00023274,0.00051449,0.00013050,-0.000
 23691,0.00004985,0.00000096,-0.00000546,-0.00014548,-0.00003931,0.0001
 5656,-0.00019095,0.00001590,-0.00005520,-0.00004069,-0.00005723,0.0001
 5876,0.00003684,0.00003642,-0.00007083,0.00001661,-0.00000453,-0.00000
 358,0.00000346,-0.00005387,-0.00000299,0.00004664,0.00001346,0.0000394
 2,-0.00000121,0.00001619,0.00000372,-0.00004155,0.00000221,-0.00000463
 ,-0.00002610,-0.00000867,-0.00002743,0.00001505,0.00000310,0.00001092,
 -0.00000118,-0.00000199,-0.00000119,-0.00000288,0.00000003,-0.00000142
 ,-0.00000401,0.00000033,0.,-0.00001067,0.00002762,-0.00001535,-0.00000
 764,0.00004192,0.00003254,0.00010277,-0.00002080,0.00010507,0.00022020
 ,-0.00042806,0.00005908,0.00428705,-0.02023816,0.02936055,0.00155701,0
 .00409047,-0.00157799,0.01229360,-0.15713550,0.13746855,-0.00157586,0.
 00558416,-0.00678522,0.00042484,0.00374621,-0.00541368,-0.01632707,0.1
 7034756,0.00005150,-0.00191176,-0.00079226,-0.00004350,-0.00028510,0.0
 0000717,0.00060799,-0.00051602,0.00009674,0.00000158,0.00007946,0.0000
 0099,-0.00020666,-0.00008157,-0.00006607,0.00005062,0.00007702,-0.0000
 8509,0.00001205,-0.00000176,-0.00000182,-0.00000352,-0.00001050,0.0000
 5657,-0.00001083,-0.00000779,0.00001156,0.00002469,0.00003231,0.000001
 07,0.00003067,-0.00000865,-0.00000215,-0.00000216,-0.00000369,0.000000
 71,-0.00021700,-0.00002740,-0.00013943,-0.00002036,0.00000533,-0.00000
 955,0.00001659,0.00000359,0.00000963,0.00000766,-0.00000154,0.00000618
 ,0.00000876,0.00000188,0.00001218,-0.00000449,0.00000250,-0.00000105,0
 .00000066,0.00000018,0.00000046,0.00000040,-0.00000049,0.00000039,0.00
 000167,-0.00000016,0.00000029,0.00004086,-0.00002616,0.00007358,0.0001
 6913,0.00010640,0.00002801,0.00003557,0.00001175,0.00004995,0.00007171
 ,-0.00012085,0.00001786,0.00032019,-0.00942904,0.01022101,0.00095496,0
 .00043388,0.00059110,-0.02187421,0.14189719,-0.22272655,-0.00331018,0.
 01313358,-0.01508079,0.00068761,0.00645816,-0.00863417,0.02259800,-0.1
 4981076,0.23635346\\0.00000042,-0.00000302,0.00000034,-0.00000008,-0.0
 0000099,0.00000196,0.00000121,0.00000609,-0.00000374,-0.00000065,0.000
 00268,-0.00000075,-0.00000151,-0.00000653,-0.00000361,0.00000384,-0.00
 002436,-0.00001409,-0.00000294,0.00000321,-0.00000594,-0.00000469,0.00
 000247,-0.00000433,-0.00000271,0.00000344,0.00000158,-0.00000268,0.000
 00028,0.00000348,0.00000489,0.00000264,-0.00000201,0.00000089,-0.00000
 361,-0.00000273,-0.00000772,0.00000190,0.00000377,0.00000238,0.0000007
 4,-0.00001361,0.00000165,-0.00000920,0.00000420,-0.00000308,-0.0000041
 7,0.00000335,-0.00000265,0.00000638,0.00000735,-0.00000010,0.00000614,
 -0.00000395,-0.00000306,0.00000942,-0.00000487,-0.00000082,0.00000402,
 -0.00000488,-0.00000143,0.00000781,0.00000115,0.00000318,-0.00000914,0
 .00001137,0.00000583,-0.00000939,0.00000343,0.00000144,-0.00000267,-0.
 00001018,-0.00000136,0.00000024,-0.00001253,0.00001585,0.00000922,0.00
 000016,-0.00000865,0.00000443,0.00000413,-0.00000344,0.00000264,0.0000
 1243,0.00000345,-0.00000170,0.00000844,0.00000157,-0.00000136,0.000008
 55,0.00000098,0.00000237,0.00001153\\\@


    THE DOUGHNUT CREED
 AS YOU RAMBLE ON THROUGH LIFE, BROTHER
 WHATEVER BE YOUR GOAL
 KEEP YOUR EYE UPON THE DOUGHNUT
 AND NOT UPON THE HOLE.
 Job cpu time:       0 days  1 hours 55 minutes 59.7 seconds.
 Elapsed time:       0 days  0 hours  7 minutes 19.4 seconds.
 File lengths (MBytes):  RWF=    473 Int=      0 D2E=      0 Chk=     17 Scr=      1
 Normal termination of Gaussian 16 at Mon Dec 30 11:41:50 2019.
