 Entering Gaussian System, Link 0=g16
 Input=conformer_final_00.gjf
 Output=conformer_final_00.out
 Initial command:
 /n/sw/g16_nehalem/g16/l1.exe "/scratch/cwagen_conformer_final_00/Gau-197555.inp" -scrdir="/scratch/cwagen_conformer_final_00/"
 Entering Link 1 = /n/sw/g16_nehalem/g16/l1.exe PID=    197559.
  
 Copyright (c) 1988,1990,1992,1993,1995,1998,2003,2009,2016,
            Gaussian, Inc.  All Rights Reserved.
  
 This is part of the Gaussian(R) 16 program.  It is based on
 the Gaussian(R) 09 system (copyright 2009, Gaussian, Inc.),
 the Gaussian(R) 03 system (copyright 2003, Gaussian, Inc.),
 the Gaussian(R) 98 system (copyright 1998, Gaussian, Inc.),
 the Gaussian(R) 94 system (copyright 1995, Gaussian, Inc.),
 the Gaussian 92(TM) system (copyright 1992, Gaussian, Inc.),
 the Gaussian 90(TM) system (copyright 1990, Gaussian, Inc.),
 the Gaussian 88(TM) system (copyright 1988, Gaussian, Inc.),
 the Gaussian 86(TM) system (copyright 1986, Carnegie Mellon
 University), and the Gaussian 82(TM) system (copyright 1983,
 Carnegie Mellon University). Gaussian is a federally registered
 trademark of Gaussian, Inc.
  
 This software contains proprietary and confidential information,
 including trade secrets, belonging to Gaussian, Inc.
  
 This software is provided under written license and may be
 used, copied, transmitted, or stored only in accord with that
 written license.
  
 The following legend is applicable only to US Government
 contracts under FAR:
  
                    RESTRICTED RIGHTS LEGEND
  
 Use, reproduction and disclosure by the US Government is
 subject to restrictions as set forth in subparagraphs (a)
 and (c) of the Commercial Computer Software - Restricted
 Rights clause in FAR 52.227-19.
  
 Gaussian, Inc.
 340 Quinnipiac St., Bldg. 40, Wallingford CT 06492
  
  
 ---------------------------------------------------------------
 Warning -- This program may not be used in any manner that
 competes with the business of Gaussian, Inc. or will provide
 assistance to any competitor of Gaussian, Inc.  The licensee
 of this program is prohibited from giving any competitor of
 Gaussian, Inc. access to this program.  By using this program,
 the user acknowledges that Gaussian, Inc. is engaged in the
 business of creating and licensing software in the field of
 computational chemistry and represents and warrants to the
 licensee that it is not a competitor of Gaussian, Inc. and that
 it will not use this program in any manner prohibited above.
 ---------------------------------------------------------------
  

 Cite this work as:
 Gaussian 16, Revision A.03,
 M. J. Frisch, G. W. Trucks, H. B. Schlegel, G. E. Scuseria, 
 M. A. Robb, J. R. Cheeseman, G. Scalmani, V. Barone, 
 G. A. Petersson, H. Nakatsuji, X. Li, M. Caricato, A. V. Marenich, 
 J. Bloino, B. G. Janesko, R. Gomperts, B. Mennucci, H. P. Hratchian, 
 J. V. Ortiz, A. F. Izmaylov, J. L. Sonnenberg, D. Williams-Young, 
 F. Ding, F. Lipparini, F. Egidi, J. Goings, B. Peng, A. Petrone, 
 T. Henderson, D. Ranasinghe, V. G. Zakrzewski, J. Gao, N. Rega, 
 G. Zheng, W. Liang, M. Hada, M. Ehara, K. Toyota, R. Fukuda, 
 J. Hasegawa, M. Ishida, T. Nakajima, Y. Honda, O. Kitao, H. Nakai, 
 T. Vreven, K. Throssell, J. A. Montgomery, Jr., J. E. Peralta, 
 F. Ogliaro, M. J. Bearpark, J. J. Heyd, E. N. Brothers, K. N. Kudin, 
 V. N. Staroverov, T. A. Keith, R. Kobayashi, J. Normand, 
 K. Raghavachari, A. P. Rendell, J. C. Burant, S. S. Iyengar, 
 J. Tomasi, M. Cossi, J. M. Millam, M. Klene, C. Adamo, R. Cammi, 
 J. W. Ochterski, R. L. Martin, K. Morokuma, O. Farkas, 
 J. B. Foresman, and D. J. Fox, Gaussian, Inc., Wallingford CT, 2016.
 
 ******************************************
 Gaussian 16:  ES64L-G16RevA.03 25-Dec-2016
                30-Dec-2019 
 ******************************************
 %nprocshared=16
 Will use up to   16 processors via shared memory.
 %mem=32GB
 ------------------------------------------------------------------
 #p opt freq=noraman m062x/6-31g(d) scrf=(smd,solvent=diethylether)
 ------------------------------------------------------------------
 1/18=20,19=15,26=3,38=1/1,3;
 2/9=110,12=2,17=6,18=5,40=1/2;
 3/5=1,6=6,7=1,11=2,25=1,30=1,70=32201,71=1,72=8,74=-55/1,2,3;
 4//1;
 5/5=2,38=5,53=8/2;
 6/7=2,8=2,9=2,10=2,28=1/1;
 7//1,2,3,16;
 1/18=20,19=15,26=3/3(2);
 2/9=110/2;
 99//99;
 2/9=110/2;
 3/5=1,6=6,7=1,11=2,25=1,30=1,70=32205,71=1,72=8,74=-55/1,2,3;
 4/5=5,16=3,69=1/1;
 5/5=2,38=5,53=8/2;
 7//1,2,3,16;
 1/18=20,19=15,26=3/3(-5);
 2/9=110/2;
 6/7=2,8=2,9=2,10=2,19=2,28=1/1;
 99/9=1/99;
 Leave Link    1 at Mon Dec 30 11:32:55 2019, MaxMem=  4294967296 cpu:               1.6 elap:               0.1
 (Enter /n/sw/g16_nehalem/g16/l101.exe)
 -----
 title
 -----
 Symbolic Z-matrix:
 Charge =  0 Multiplicity = 1
 7                     2.02288   0.91339  -0.03889 
 1                     2.38285   1.15696   0.87731 
 6                     1.88292  -0.4921   -0.36643 
 1                     1.81696  -0.58218  -1.45489 
 6                     3.09414  -1.27279   0.10165 
 6                     0.61335  -1.02707   0.30548 
 1                     3.21968  -1.28479   1.18642 
 8                     0.64764  -1.69005   1.32773 
 7                    -0.52776  -0.61007  -0.30616 
 1                    -0.43374   0.01722  -1.10401 
 6                    -1.76622  -0.57986   0.41892 
 1                    -1.75592  -1.37032   1.17519 
 6                    -1.91033   0.77015   1.12286 
 6                    -2.94455  -0.78471  -0.52414 
 1                    -2.77177   0.84298   1.7881 
 8                    -2.85102  -0.98184  -1.70681 
 8                    -4.09334  -0.68915   0.14711 
 6                    -5.28109  -0.83156  -0.64562 
 1                    -6.11278  -0.71943   0.04782 
 1                    -5.31506  -0.05741  -1.41471 
 1                    -5.30392  -1.81693  -1.11512 
 9                    -2.00044   1.74005   0.16808 
 9                    -0.77812   1.02419   1.82916 
 9                     2.97142  -2.54999  -0.33904 
 9                     4.21164  -0.74564  -0.46368 
 6                     1.35953   1.86658  -0.75361 
 8                     0.72684   1.58937  -1.76672 
 6                     1.42755   3.26395  -0.19427 
 1                     0.50518   3.44381   0.36814 
 1                     2.28248   3.41209   0.46867 
 1                     1.46791   3.97619  -1.01972 
 
 ITRead=  0  0  0  0  0  0  0  0  0  0  0  0  0  0  0  0  0  0  0  0
 ITRead=  0  0  0  0  0  0  0  0  0  0  0
 MicOpt= -1 -1 -1 -1 -1 -1 -1 -1 -1 -1 -1 -1 -1 -1 -1 -1 -1 -1 -1 -1
 MicOpt= -1 -1 -1 -1 -1 -1 -1 -1 -1 -1 -1
 NAtoms=     31 NQM=       31 NQMF=       0 NMMI=      0 NMMIF=      0
                NMic=       0 NMicF=      0.
                    Isotopes and Nuclear Properties:
 (Nuclear quadrupole moments (NQMom) in fm**2, nuclear magnetic moments (NMagM)
  in nuclear magnetons)

  Atom         1           2           3           4           5           6           7           8           9          10
 IAtWgt=          14           1          12           1          12          12           1          16          14           1
 AtmWgt=  14.0030740   1.0078250  12.0000000   1.0078250  12.0000000  12.0000000   1.0078250  15.9949146  14.0030740   1.0078250
 NucSpn=           2           1           0           1           0           0           1           0           2           1
 AtZEff=   0.0000000   0.0000000   0.0000000   0.0000000   0.0000000   0.0000000   0.0000000   0.0000000   0.0000000   0.0000000
 NQMom=    2.0440000   0.0000000   0.0000000   0.0000000   0.0000000   0.0000000   0.0000000   0.0000000   2.0440000   0.0000000
 NMagM=    0.4037610   2.7928460   0.0000000   2.7928460   0.0000000   0.0000000   2.7928460   0.0000000   0.4037610   2.7928460
 AtZNuc=   7.0000000   1.0000000   6.0000000   1.0000000   6.0000000   6.0000000   1.0000000   8.0000000   7.0000000   1.0000000

  Atom        11          12          13          14          15          16          17          18          19          20
 IAtWgt=          12           1          12          12           1          16          16          12           1           1
 AtmWgt=  12.0000000   1.0078250  12.0000000  12.0000000   1.0078250  15.9949146  15.9949146  12.0000000   1.0078250   1.0078250
 NucSpn=           0           1           0           0           1           0           0           0           1           1
 AtZEff=   0.0000000   0.0000000   0.0000000   0.0000000   0.0000000   0.0000000   0.0000000   0.0000000   0.0000000   0.0000000
 NQMom=    0.0000000   0.0000000   0.0000000   0.0000000   0.0000000   0.0000000   0.0000000   0.0000000   0.0000000   0.0000000
 NMagM=    0.0000000   2.7928460   0.0000000   0.0000000   2.7928460   0.0000000   0.0000000   0.0000000   2.7928460   2.7928460
 AtZNuc=   6.0000000   1.0000000   6.0000000   6.0000000   1.0000000   8.0000000   8.0000000   6.0000000   1.0000000   1.0000000

  Atom        21          22          23          24          25          26          27          28          29          30
 IAtWgt=           1          19          19          19          19          12          16          12           1           1
 AtmWgt=   1.0078250  18.9984033  18.9984033  18.9984033  18.9984033  12.0000000  15.9949146  12.0000000   1.0078250   1.0078250
 NucSpn=           1           1           1           1           1           0           0           0           1           1
 AtZEff=   0.0000000   0.0000000   0.0000000   0.0000000   0.0000000   0.0000000   0.0000000   0.0000000   0.0000000   0.0000000
 NQMom=    0.0000000   0.0000000   0.0000000   0.0000000   0.0000000   0.0000000   0.0000000   0.0000000   0.0000000   0.0000000
 NMagM=    2.7928460   2.6288670   2.6288670   2.6288670   2.6288670   0.0000000   0.0000000   0.0000000   2.7928460   2.7928460
 AtZNuc=   1.0000000   9.0000000   9.0000000   9.0000000   9.0000000   6.0000000   8.0000000   6.0000000   1.0000000   1.0000000

  Atom        31
 IAtWgt=           1
 AtmWgt=   1.0078250
 NucSpn=           1
 AtZEff=   0.0000000
 NQMom=    0.0000000
 NMagM=    2.7928460
 AtZNuc=   1.0000000
 Leave Link  101 at Mon Dec 30 11:33:01 2019, MaxMem=  4294967296 cpu:              21.3 elap:               1.6
 (Enter /n/sw/g16_nehalem/g16/l103.exe)

 GradGradGradGradGradGradGradGradGradGradGradGradGradGradGradGradGradGrad
 Berny optimization.
 Initialization pass.
                           ----------------------------
                           !    Initial Parameters    !
                           ! (Angstroms and Degrees)  !
 --------------------------                            --------------------------
 ! Name  Definition              Value          Derivative Info.                !
 --------------------------------------------------------------------------------
 ! R1    R(1,2)                  1.0141         estimate D2E/DX2                !
 ! R2    R(1,3)                  1.4499         estimate D2E/DX2                !
 ! R3    R(1,26)                 1.3636         estimate D2E/DX2                !
 ! R4    R(3,4)                  1.0942         estimate D2E/DX2                !
 ! R5    R(3,5)                  1.5151         estimate D2E/DX2                !
 ! R6    R(3,6)                  1.5328         estimate D2E/DX2                !
 ! R7    R(5,7)                  1.0921         estimate D2E/DX2                !
 ! R8    R(5,24)                 1.3566         estimate D2E/DX2                !
 ! R9    R(5,25)                 1.3588         estimate D2E/DX2                !
 ! R10   R(6,8)                  1.2189         estimate D2E/DX2                !
 ! R11   R(6,9)                  1.3602         estimate D2E/DX2                !
 ! R12   R(9,10)                 1.0193         estimate D2E/DX2                !
 ! R13   R(9,11)                 1.4354         estimate D2E/DX2                !
 ! R14   R(11,12)                1.094          estimate D2E/DX2                !
 ! R15   R(11,13)                1.5293         estimate D2E/DX2                !
 ! R16   R(11,14)                1.5231         estimate D2E/DX2                !
 ! R17   R(13,15)                1.0908         estimate D2E/DX2                !
 ! R18   R(13,22)                1.364          estimate D2E/DX2                !
 ! R19   R(13,23)                1.3584         estimate D2E/DX2                !
 ! R20   R(14,16)                1.2026         estimate D2E/DX2                !
 ! R21   R(14,17)                1.334          estimate D2E/DX2                !
 ! R22   R(17,18)                1.4351         estimate D2E/DX2                !
 ! R23   R(18,19)                1.0886         estimate D2E/DX2                !
 ! R24   R(18,20)                1.0918         estimate D2E/DX2                !
 ! R25   R(18,21)                1.0917         estimate D2E/DX2                !
 ! R26   R(26,27)                1.2262         estimate D2E/DX2                !
 ! R27   R(26,28)                1.5067         estimate D2E/DX2                !
 ! R28   R(28,29)                1.0952         estimate D2E/DX2                !
 ! R29   R(28,30)                1.0919         estimate D2E/DX2                !
 ! R30   R(28,31)                1.091          estimate D2E/DX2                !
 ! A1    A(2,1,3)              118.1121         estimate D2E/DX2                !
 ! A2    A(2,1,26)             118.5772         estimate D2E/DX2                !
 ! A3    A(3,1,26)             120.8126         estimate D2E/DX2                !
 ! A4    A(1,3,4)              108.0803         estimate D2E/DX2                !
 ! A5    A(1,3,5)              110.6409         estimate D2E/DX2                !
 ! A6    A(1,3,6)              108.6178         estimate D2E/DX2                !
 ! A7    A(4,3,5)              108.2457         estimate D2E/DX2                !
 ! A8    A(4,3,6)              110.9409         estimate D2E/DX2                !
 ! A9    A(5,3,6)              110.2961         estimate D2E/DX2                !
 ! A10   A(3,5,7)              113.8549         estimate D2E/DX2                !
 ! A11   A(3,5,24)             108.2048         estimate D2E/DX2                !
 ! A12   A(3,5,25)             109.2099         estimate D2E/DX2                !
 ! A13   A(7,5,24)             108.8272         estimate D2E/DX2                !
 ! A14   A(7,5,25)             108.8442         estimate D2E/DX2                !
 ! A15   A(24,5,25)            107.7273         estimate D2E/DX2                !
 ! A16   A(3,6,8)              122.2877         estimate D2E/DX2                !
 ! A17   A(3,6,9)              113.0008         estimate D2E/DX2                !
 ! A18   A(8,6,9)              124.5746         estimate D2E/DX2                !
 ! A19   A(6,9,10)             117.5994         estimate D2E/DX2                !
 ! A20   A(6,9,11)             120.2071         estimate D2E/DX2                !
 ! A21   A(10,9,11)            117.5182         estimate D2E/DX2                !
 ! A22   A(9,11,12)            109.0172         estimate D2E/DX2                !
 ! A23   A(9,11,13)            109.4141         estimate D2E/DX2                !
 ! A24   A(9,11,14)            110.6029         estimate D2E/DX2                !
 ! A25   A(12,11,13)           108.6942         estimate D2E/DX2                !
 ! A26   A(12,11,14)           109.7626         estimate D2E/DX2                !
 ! A27   A(13,11,14)           109.3193         estimate D2E/DX2                !
 ! A28   A(11,13,15)           114.4602         estimate D2E/DX2                !
 ! A29   A(11,13,22)           108.1636         estimate D2E/DX2                !
 ! A30   A(11,13,23)           109.0184         estimate D2E/DX2                !
 ! A31   A(15,13,22)           109.1018         estimate D2E/DX2                !
 ! A32   A(15,13,23)           109.1856         estimate D2E/DX2                !
 ! A33   A(22,13,23)           106.6207         estimate D2E/DX2                !
 ! A34   A(11,14,16)           124.8049         estimate D2E/DX2                !
 ! A35   A(11,14,17)           110.1848         estimate D2E/DX2                !
 ! A36   A(16,14,17)           124.9996         estimate D2E/DX2                !
 ! A37   A(14,17,18)           115.3213         estimate D2E/DX2                !
 ! A38   A(17,18,19)           105.6773         estimate D2E/DX2                !
 ! A39   A(17,18,20)           110.1524         estimate D2E/DX2                !
 ! A40   A(17,18,21)           110.147          estimate D2E/DX2                !
 ! A41   A(19,18,20)           110.604          estimate D2E/DX2                !
 ! A42   A(19,18,21)           110.5432         estimate D2E/DX2                !
 ! A43   A(20,18,21)           109.6577         estimate D2E/DX2                !
 ! A44   A(1,26,27)            121.7382         estimate D2E/DX2                !
 ! A45   A(1,26,28)            115.5793         estimate D2E/DX2                !
 ! A46   A(27,26,28)           122.6623         estimate D2E/DX2                !
 ! A47   A(26,28,29)           107.7538         estimate D2E/DX2                !
 ! A48   A(26,28,30)           112.7401         estimate D2E/DX2                !
 ! A49   A(26,28,31)           109.0418         estimate D2E/DX2                !
 ! A50   A(29,28,30)           108.9864         estimate D2E/DX2                !
 ! A51   A(29,28,31)           108.2089         estimate D2E/DX2                !
 ! A52   A(30,28,31)           109.9876         estimate D2E/DX2                !
 ! D1    D(2,1,3,4)           -161.1946         estimate D2E/DX2                !
 ! D2    D(2,1,3,5)            -42.8401         estimate D2E/DX2                !
 ! D3    D(2,1,3,6)             78.3604         estimate D2E/DX2                !
 ! D4    D(26,1,3,4)            36.9872         estimate D2E/DX2                !
 ! D5    D(26,1,3,5)           155.3417         estimate D2E/DX2                !
 ! D6    D(26,1,3,6)           -83.4578         estimate D2E/DX2                !
 ! D7    D(2,1,26,27)         -168.6817         estimate D2E/DX2                !
 ! D8    D(2,1,26,28)            9.7238         estimate D2E/DX2                !
 ! D9    D(3,1,26,27)           -6.9461         estimate D2E/DX2                !
 ! D10   D(3,1,26,28)          171.4594         estimate D2E/DX2                !
 ! D11   D(1,3,5,7)             64.5785         estimate D2E/DX2                !
 ! D12   D(1,3,5,24)          -174.2983         estimate D2E/DX2                !
 ! D13   D(1,3,5,25)           -57.2963         estimate D2E/DX2                !
 ! D14   D(4,3,5,7)           -177.1678         estimate D2E/DX2                !
 ! D15   D(4,3,5,24)           -56.0446         estimate D2E/DX2                !
 ! D16   D(4,3,5,25)            60.9574         estimate D2E/DX2                !
 ! D17   D(6,3,5,7)            -55.6234         estimate D2E/DX2                !
 ! D18   D(6,3,5,24)            65.4998         estimate D2E/DX2                !
 ! D19   D(6,3,5,25)          -177.4982         estimate D2E/DX2                !
 ! D20   D(1,3,6,8)           -101.8519         estimate D2E/DX2                !
 ! D21   D(1,3,6,9)             74.0744         estimate D2E/DX2                !
 ! D22   D(4,3,6,8)            139.4911         estimate D2E/DX2                !
 ! D23   D(4,3,6,9)            -44.5826         estimate D2E/DX2                !
 ! D24   D(5,3,6,8)             19.5602         estimate D2E/DX2                !
 ! D25   D(5,3,6,9)           -164.5135         estimate D2E/DX2                !
 ! D26   D(3,6,9,10)            -1.7913         estimate D2E/DX2                !
 ! D27   D(3,6,9,11)          -156.9701         estimate D2E/DX2                !
 ! D28   D(8,6,9,10)           174.026          estimate D2E/DX2                !
 ! D29   D(8,6,9,11)            18.8472         estimate D2E/DX2                !
 ! D30   D(6,9,11,12)          -30.4709         estimate D2E/DX2                !
 ! D31   D(6,9,11,13)           88.2752         estimate D2E/DX2                !
 ! D32   D(6,9,11,14)         -151.2448         estimate D2E/DX2                !
 ! D33   D(10,9,11,12)         174.3307         estimate D2E/DX2                !
 ! D34   D(10,9,11,13)         -66.9231         estimate D2E/DX2                !
 ! D35   D(10,9,11,14)          53.5568         estimate D2E/DX2                !
 ! D36   D(9,11,13,15)        -173.6167         estimate D2E/DX2                !
 ! D37   D(9,11,13,22)          64.5393         estimate D2E/DX2                !
 ! D38   D(9,11,13,23)         -51.0236         estimate D2E/DX2                !
 ! D39   D(12,11,13,15)        -54.6703         estimate D2E/DX2                !
 ! D40   D(12,11,13,22)       -176.5143         estimate D2E/DX2                !
 ! D41   D(12,11,13,23)         67.9229         estimate D2E/DX2                !
 ! D42   D(14,11,13,15)         65.1234         estimate D2E/DX2                !
 ! D43   D(14,11,13,22)        -56.7206         estimate D2E/DX2                !
 ! D44   D(14,11,13,23)       -172.2835         estimate D2E/DX2                !
 ! D45   D(9,11,14,16)           1.9207         estimate D2E/DX2                !
 ! D46   D(9,11,14,17)        -176.936          estimate D2E/DX2                !
 ! D47   D(12,11,14,16)       -118.4088         estimate D2E/DX2                !
 ! D48   D(12,11,14,17)         62.7346         estimate D2E/DX2                !
 ! D49   D(13,11,14,16)        122.4572         estimate D2E/DX2                !
 ! D50   D(13,11,14,17)        -56.3995         estimate D2E/DX2                !
 ! D51   D(11,14,17,18)        178.49           estimate D2E/DX2                !
 ! D52   D(16,14,17,18)         -0.3639         estimate D2E/DX2                !
 ! D53   D(14,17,18,19)       -179.499          estimate D2E/DX2                !
 ! D54   D(14,17,18,20)        -60.0047         estimate D2E/DX2                !
 ! D55   D(14,17,18,21)         61.0818         estimate D2E/DX2                !
 ! D56   D(1,26,28,29)         -98.2789         estimate D2E/DX2                !
 ! D57   D(1,26,28,30)          22.026          estimate D2E/DX2                !
 ! D58   D(1,26,28,31)         144.4882         estimate D2E/DX2                !
 ! D59   D(27,26,28,29)         80.1104         estimate D2E/DX2                !
 ! D60   D(27,26,28,30)       -159.5847         estimate D2E/DX2                !
 ! D61   D(27,26,28,31)        -37.1225         estimate D2E/DX2                !
 --------------------------------------------------------------------------------
 Trust Radius=3.00D-01 FncErr=1.00D-07 GrdErr=1.00D-06 EigMax=2.50D+02 EigMin=1.00D-04
 Number of steps in this run=    153 maximum allowed number of steps=    186.
 GradGradGradGradGradGradGradGradGradGradGradGradGradGradGradGradGradGrad

 Leave Link  103 at Mon Dec 30 11:33:03 2019, MaxMem=  4294967296 cpu:               1.0 elap:               0.4
 (Enter /n/sw/g16_nehalem/g16/l202.exe)
                          Input orientation:                          
 ---------------------------------------------------------------------
 Center     Atomic      Atomic             Coordinates (Angstroms)
 Number     Number       Type             X           Y           Z
 ---------------------------------------------------------------------
      1          7           0        2.022884    0.913390   -0.038892
      2          1           0        2.382849    1.156957    0.877307
      3          6           0        1.882916   -0.492096   -0.366433
      4          1           0        1.816956   -0.582177   -1.454885
      5          6           0        3.094144   -1.272789    0.101646
      6          6           0        0.613346   -1.027071    0.305481
      7          1           0        3.219678   -1.284789    1.186417
      8          8           0        0.647637   -1.690047    1.327725
      9          7           0       -0.527757   -0.610072   -0.306157
     10          1           0       -0.433743    0.017216   -1.104007
     11          6           0       -1.766220   -0.579856    0.418923
     12          1           0       -1.755921   -1.370323    1.175190
     13          6           0       -1.910332    0.770150    1.122856
     14          6           0       -2.944549   -0.784713   -0.524143
     15          1           0       -2.771769    0.842979    1.788100
     16          8           0       -2.851020   -0.981842   -1.706809
     17          8           0       -4.093341   -0.689154    0.147107
     18          6           0       -5.281090   -0.831564   -0.645624
     19          1           0       -6.112784   -0.719435    0.047820
     20          1           0       -5.315062   -0.057411   -1.414712
     21          1           0       -5.303923   -1.816929   -1.115120
     22          9           0       -2.000436    1.740051    0.168077
     23          9           0       -0.778119    1.024193    1.829155
     24          9           0        2.971416   -2.549986   -0.339040
     25          9           0        4.211637   -0.745645   -0.463677
     26          6           0        1.359527    1.866576   -0.753607
     27          8           0        0.726839    1.589370   -1.766718
     28          6           0        1.427552    3.263954   -0.194273
     29          1           0        0.505181    3.443814    0.368139
     30          1           0        2.282478    3.412092    0.468667
     31          1           0        1.467913    3.976185   -1.019717
 ---------------------------------------------------------------------
                    Distance matrix (angstroms):
                    1          2          3          4          5
     1  N    0.000000
     2  H    1.014061   0.000000
     3  C    1.449919   2.125135   0.000000
     4  H    2.069822   2.963771   1.094163   0.000000
     5  C    2.438591   2.647878   1.515141   2.128601   0.000000
     6  C    2.422969   2.868467   1.532800   2.178416   2.501257
     7  H    2.786699   2.599607   2.196961   3.072095   1.092076
     8  O    3.246048   3.364412   2.414782   3.215214   2.768171
     9  N    2.982974   3.604803   2.414311   2.611136   3.704546
    10  H    2.823582   3.627369   2.484013   2.355426   3.945085
    11  C    4.098376   4.521218   3.733722   4.043552   4.919752
    12  H    4.579160   4.858528   4.048335   4.505987   4.968414
    13  C    4.103701   4.317559   4.266143   4.729293   5.501023
    14  C    5.272041   5.840832   4.838896   4.855845   6.090619
    15  H    5.131428   5.243874   5.300050   5.796932   6.459840
    16  O    5.488970   6.216551   4.944351   4.691822   6.220943
    17  O    6.325421   6.773652   6.001517   6.124495   7.211285
    18  C    7.533991   8.062847   7.177476   7.148381   8.420073
    19  H    8.298357   8.739833   8.009651   8.072034   9.223699
    20  H    7.528664   8.123169   7.286887   7.151411   8.630830
    21  H    7.892719   8.479400   7.346181   7.235121   8.503184
    22  F    4.112579   4.478414   4.510943   4.753865   5.919152
    23  F    3.368604   3.303840   3.768401   4.483275   4.822327
    24  F    3.603439   3.945547   2.328195   2.539717   1.356650
    25  F    2.779115   2.960169   2.344501   2.596866   1.358772
    26  C    1.363607   2.051981   2.446870   2.587938   3.687271
    27  O    2.263198   3.149638   2.762212   2.449737   4.157748
    28  C    2.429756   2.549571   3.787467   4.066141   4.842224
    29  H    2.978614   3.002433   4.234281   4.610073   5.387030
    30  H    2.562912   2.294056   4.012446   4.457684   4.768817
    31  H    3.263545   3.519070   4.534815   4.592370   5.608370
                    6          7          8          9         10
     6  C    0.000000
     7  H    2.763229   0.000000
     8  O    1.218891   2.607604   0.000000
     9  N    1.360186   4.089779   2.284178   0.000000
    10  H    2.042936   4.504303   3.161874   1.019261   0.000000
    11  C    2.423882   5.093639   2.808051   1.435425   2.109812
    12  H    2.547085   4.976347   2.429523   2.068999   2.977945
    13  C    3.204225   5.526646   3.554961   2.420455   2.775994
    14  C    3.661370   6.416680   4.141599   2.432879   2.698792
    15  H    4.141769   6.386459   4.280246   3.396006   3.809532
    16  O    4.006643   6.731709   4.685142   2.738173   2.684160
    17  O    4.721459   7.410479   4.987236   3.595148   3.931527
    18  C    5.973876   8.707746   6.307210   4.770584   4.942400
    19  H    6.738090   9.418645   6.948636   5.597302   5.841307
    20  H    6.248626   9.006338   6.763153   4.944959   4.891767
    21  H    6.136453   8.844887   6.434645   4.992263   5.204120
    22  F    3.808898   6.118518   4.485827   2.813674   2.653467
    23  F    2.909543   4.661211   3.106656   2.700567   3.120262
    24  F    2.880134   1.997342   2.986227   4.001070   4.332529
    25  F    3.690326   1.999367   4.099160   4.743949   4.750951
    26  C    3.170433   4.141854   4.181901   3.145765   2.599756
    27  O    3.339559   4.816227   4.509593   2.923148   2.063445
    28  C    4.396087   5.080264   5.240885   4.340948   3.851408
    29  H    4.472632   5.513416   5.224713   4.237408   3.845824
    30  H    4.745398   4.842954   5.426095   4.967452   4.623456
    31  H    5.245856   5.967709   6.187853   5.052289   4.392816
                   11         12         13         14         15
    11  C    0.000000
    12  H    1.094022   0.000000
    13  C    1.529316   2.146673   0.000000
    14  C    1.523089   2.154880   2.489942   0.000000
    15  H    2.215905   2.511237   1.090838   2.832967   0.000000
    16  O    2.420149   3.107423   3.458522   1.202625   3.943430
    17  O    2.345490   2.642816   2.801282   1.333953   2.605157
    18  C    3.681159   4.004053   4.129772   2.340166   3.876055
    19  H    4.364610   4.547183   4.586411   3.220111   4.078246
    20  H    4.028579   4.593345   4.326233   2.634656   4.187726
    21  H    4.049565   4.246563   4.818503   2.642228   4.681410
    22  F    2.345154   3.278489   1.363976   2.782975   2.006033
    23  F    2.353311   2.667859   1.358419   3.674721   2.002290
    24  F    5.186628   5.102177   6.082097   6.176495   7.001508
    25  F    6.044935   6.219956   6.503324   7.156548   7.507475
    26  C    4.138859   4.889150   3.926225   5.060342   4.957382
    27  O    3.962059   4.855791   3.996928   4.545256   5.043222
    28  C    5.034984   5.786748   4.369823   5.967896   5.236909
    29  H    4.620797   5.379575   3.681410   5.529670   4.418035
    30  H    5.685955   6.299153   4.998747   6.776478   5.821225
    31  H    5.769472   6.617845   5.126580   6.510112   5.972916
                   16         17         18         19         20
    16  O    0.000000
    17  O    2.250785   0.000000
    18  C    2.655925   1.435079   0.000000
    19  H    3.713043   2.022109   1.088647   0.000000
    20  H    2.647904   2.081101   1.091771   1.792662   0.000000
    21  H    2.657856   2.081010   1.091738   1.791976   1.784876
    22  F    3.412828   3.206513   4.247117   4.793218   4.089356
    23  F    4.563347   4.093353   5.463068   5.888297   5.681232
    24  F    6.183092   7.321873   8.435095   9.274873   8.719846
    25  F    7.175116   8.327599   9.494859  10.337117   9.598757
    26  C    5.172116   6.089073   7.168641   7.947652   6.977745
    27  O    4.406336   5.664674   6.573658   7.443358   6.272190
    28  C    6.214558   6.798813   7.872920   8.531276   7.614708
    29  H    5.929243   6.186815   7.265501   7.825133   7.022276
    30  H    7.098743   7.587799   8.744016   9.366272   8.561961
    31  H    6.611150   7.352171   8.294784   8.980838   7.901561
                   21         22         23         24         25
    21  H    0.000000
    22  F    5.021128   0.000000
    23  F    6.101117   2.183046   0.000000
    24  F    8.343914   6.586418   5.615589   0.000000
    25  F    9.597808   6.720688   5.769495   2.193018   0.000000
    26  C    7.622366   3.486382   3.456848   4.719753   3.878439
    27  O    6.956834   3.347262   3.938861   4.920433   4.392497
    28  C    8.483872   3.768910   3.738419   6.017173   4.888823
    29  H    7.976288   3.036602   3.104189   6.519820   5.655201
    30  H    9.349039   4.607540   4.113422   6.055857   4.677360
    31  H    8.912185   4.294251   4.677070   6.731623   5.489342
                   26         27         28         29         30
    26  C    0.000000
    27  O    1.226186   0.000000
    28  C    1.506701   2.401627   0.000000
    29  H    2.115633   2.836496   1.095183   0.000000
    30  H    2.175870   3.277083   1.091940   1.780420   0.000000
    31  H    2.129087   2.608464   1.090990   1.770993   1.788017
                   31
    31  H    0.000000
 Stoichiometry    C9H12F4N2O4
 Framework group  C1[X(C9H12F4N2O4)]
 Deg. of freedom    87
 Full point group                 C1      NOp   1
 Largest Abelian subgroup         C1      NOp   1
 Largest concise Abelian subgroup C1      NOp   1
                         Standard orientation:                         
 ---------------------------------------------------------------------
 Center     Atomic      Atomic             Coordinates (Angstroms)
 Number     Number       Type             X           Y           Z
 ---------------------------------------------------------------------
      1          7           0        2.195986    0.942707    0.035852
      2          1           0        2.555951    1.186274    0.952051
      3          6           0        2.056018   -0.462779   -0.291689
      4          1           0        1.990058   -0.552860   -1.380141
      5          6           0        3.267246   -1.243472    0.176390
      6          6           0        0.786448   -0.997754    0.380225
      7          1           0        3.392780   -1.255472    1.261161
      8          8           0        0.820739   -1.660730    1.402469
      9          7           0       -0.354655   -0.580755   -0.231413
     10          1           0       -0.260641    0.046533   -1.029263
     11          6           0       -1.593118   -0.550539    0.493667
     12          1           0       -1.582819   -1.341006    1.249934
     13          6           0       -1.737230    0.799467    1.197600
     14          6           0       -2.771447   -0.755396   -0.449399
     15          1           0       -2.598667    0.872296    1.862844
     16          8           0       -2.677918   -0.952525   -1.632065
     17          8           0       -3.920239   -0.659837    0.221851
     18          6           0       -5.107988   -0.802247   -0.570880
     19          1           0       -5.939682   -0.690118    0.122564
     20          1           0       -5.141960   -0.028094   -1.339968
     21          1           0       -5.130821   -1.787612   -1.040376
     22          9           0       -1.827334    1.769368    0.242821
     23          9           0       -0.605017    1.053510    1.903899
     24          9           0        3.144518   -2.520669   -0.264296
     25          9           0        4.384739   -0.716328   -0.388933
     26          6           0        1.532629    1.895893   -0.678863
     27          8           0        0.899941    1.618687   -1.691974
     28          6           0        1.600654    3.293271   -0.119529
     29          1           0        0.678283    3.473131    0.442883
     30          1           0        2.455580    3.441409    0.543411
     31          1           0        1.641015    4.005502   -0.944973
 ---------------------------------------------------------------------
 Rotational constants (GHZ):           0.5863824           0.2328596           0.1989034
 Leave Link  202 at Mon Dec 30 11:33:04 2019, MaxMem=  4294967296 cpu:               7.5 elap:               0.5
 (Enter /n/sw/g16_nehalem/g16/l301.exe)
 Standard basis: 6-31G(d) (6D, 7F)
 Ernie: Thresh=  0.10000D-02 Tol=  0.10000D-05 Strict=F.
 There are   309 symmetry adapted cartesian basis functions of A   symmetry.
 There are   309 symmetry adapted basis functions of A   symmetry.
   309 basis functions,   580 primitive gaussians,   309 cartesian basis functions
    74 alpha electrons       74 beta electrons
       nuclear repulsion energy      1659.8622402278 Hartrees.
 IExCor= 4336 DFT=T Ex+Corr=M062X ExCW=0 ScaHFX=  0.540000
 ScaDFX=  1.000000  1.000000  1.000000  1.000000 ScalE2=  1.000000  1.000000
 IRadAn=      5 IRanWt=     -1 IRanGd=            0 ICorTp=0 IEmpDi=  4
 NAtoms=   31 NActive=   31 NUniq=   31 SFac= 1.00D+00 NAtFMM=   60 NAOKFM=F Big=F
 Integral buffers will be    131072 words long.
 Raffenetti 2 integral format.
 Two-electron integral symmetry is turned on.
 ------------------------------------------------------------------------------
 Polarizable Continuum Model (PCM)
 =================================
 Model                : PCM.
 Atomic radii         : SMD-Coulomb.
 Polarization charges : Total charges.
 Charge compensation  : None.
 Solution method      : On-the-fly selection.
 Cavity type          : VdW (van der Waals Surface) (Alpha=1.000).
 Cavity algorithm     : GePol (No added spheres)
                        Default sphere list used, NSphG=   31.
                        Lebedev-Laikov grids with approx.  5.0 points / Ang**2.
                        Smoothing algorithm: York/Karplus (Gamma=1.0000).
                        Polarization charges: spherical gaussians, with
                                              point-specific exponents (IZeta= 3).
                        Self-potential: point-specific (ISelfS= 7).
                        Self-field    : sphere-specific E.n sum rule (ISelfD= 2).
 1st derivatives      : Analytical E(r).r(x)/FMM algorithm (CHGder, D1EAlg=3).
                        Cavity 1st derivative terms included.
 Solvent              : DiethylEther, Eps=   4.240000 Eps(inf)=   1.829527
 ------------------------------------------------------------------------------
 GePol: Number of generator spheres                  =      31
 GePol: Total number of spheres                      =      31
 GePol: Number of exposed spheres                    =      31 (100.00%)
 GePol: Number of points                             =    2377
 GePol: Average weight of points                     =       0.13
 GePol: Minimum weight of points                     =   0.18D-10
 GePol: Maximum weight of points                     =    0.21501
 GePol: Number of points with low weight             =     108
 GePol: Fraction of low-weight points (<1% of avg)   =       4.54%
 GePol: Cavity surface area                          =    307.982 Ang**2
 GePol: Cavity volume                                =    320.215 Ang**3
 ------------------------------------------------------------------------------
 Atomic radii for non-electrostatic terms: SMD-CDS.
 ------------------------------------------------------------------------------
 PCM non-electrostatic energy =        -0.0044161581 Hartrees.
 Nuclear repulsion after PCM non-electrostatic terms =     1659.8578240697 Hartrees.
 Leave Link  301 at Mon Dec 30 11:33:06 2019, MaxMem=  4294967296 cpu:               9.1 elap:               0.8
 (Enter /n/sw/g16_nehalem/g16/l302.exe)
 NPDir=0 NMtPBC=     1 NCelOv=     1 NCel=       1 NClECP=     1 NCelD=      1
         NCelK=      1 NCelE2=     1 NClLst=     1 CellRange=     0.0.
 One-electron integrals computed using PRISM.
 One-electron integral symmetry used in STVInt
 NBasis=   309 RedAO= T EigKep=  1.75D-03  NBF=   309
 NBsUse=   309 1.00D-06 EigRej= -1.00D+00 NBFU=   309
 Precomputing XC quadrature grid using
 IXCGrd= 4 IRadAn=           5 IRanWt=          -1 IRanGd=           0 AccXCQ= 0.00D+00.
 Generated NRdTot=       0 NPtTot=           0 NUsed=           0 NTot=          32
 NSgBfM=   307   307   307   307   307 MxSgAt=    31 MxSgA2=    31.
 Leave Link  302 at Mon Dec 30 11:33:08 2019, MaxMem=  4294967296 cpu:              18.4 elap:               1.5
 (Enter /n/sw/g16_nehalem/g16/l303.exe)
 DipDrv:  MaxL=1.
 Leave Link  303 at Mon Dec 30 11:33:10 2019, MaxMem=  4294967296 cpu:               5.0 elap:               0.7
 (Enter /n/sw/g16_nehalem/g16/l401.exe)
 ExpMin= 1.61D-01 ExpMax= 7.00D+03 ExpMxC= 1.05D+03 IAcc=3 IRadAn=         5 AccDes= 0.00D+00
 Harris functional with IExCor= 1009 and IRadAn=       5 diagonalized for initial guess.
 HarFok:  IExCor= 1009 AccDes= 0.00D+00 IRadAn=         5 IDoV= 1 UseB2=F ITyADJ=14
 ICtDFT=  3500011 ScaDFX=  1.000000  1.000000  1.000000  1.000000
 FoFCou: FMM=F IPFlag=           0 FMFlag=      100000 FMFlg1=           0
         NFxFlg=           0 DoJE=T BraDBF=F KetDBF=T FulRan=T
         wScrn=  0.000000 ICntrl=       500 IOpCl=  0 I1Cent=   200000004 NGrid=           0
         NMat0=    1 NMatS0=      1 NMatT0=    0 NMatD0=    1 NMtDS0=    0 NMtDT0=    0
 Petite list used in FoFCou.
 Harris En= -1158.87854547576    
 JPrj=0 DoOrth=F DoCkMO=F.
 Leave Link  401 at Mon Dec 30 11:33:13 2019, MaxMem=  4294967296 cpu:              29.5 elap:               2.4
 (Enter /n/sw/g16_nehalem/g16/l502.exe)
 Integral symmetry usage will be decided dynamically.
 Closed shell SCF:
 Using DIIS extrapolation, IDIIS=  1040.
 NGot=  4294967296 LenX=  4294767994 LenY=  4294672072
 Requested convergence on RMS density matrix=1.00D-08 within 128 cycles.
 Requested convergence on MAX density matrix=1.00D-06.
 Requested convergence on             energy=1.00D-06.
 No special actions if energy rises.
 Fock matrices will be formed incrementally for  20 cycles.

 Cycle   1  Pass 1  IDiag  1:
 FoFJK:  IHMeth= 1 ICntrl=       0 DoSepK=F KAlg= 0 I1Cent=           0 FoldK=F
 IRaf= 800000000 NMat=       1 IRICut=       1 DoRegI=T DoRafI=F ISym2E= 0 IDoP0=0 IntGTp=1.
 FoFCou: FMM=F IPFlag=           0 FMFlag=      100000 FMFlg1=           0
         NFxFlg=           0 DoJE=F BraDBF=F KetDBF=F FulRan=T
         wScrn=  0.000000 ICntrl=         0 IOpCl=  0 I1Cent=           0 NGrid=           0
         NMat0=    1 NMatS0=      1 NMatT0=    0 NMatD0=    1 NMtDS0=    0 NMtDT0=    0
 Symmetry not used in FoFCou.
 Inv3:  Mode=1 IEnd=    16950387.
 Iteration    1 A*A^-1 deviation from unit magnitude is 1.27D-14 for    717.
 Iteration    1 A*A^-1 deviation from orthogonality  is 5.89D-15 for   2376    420.
 Iteration    1 A^-1*A deviation from unit magnitude is 1.04D-14 for    717.
 Iteration    1 A^-1*A deviation from orthogonality  is 2.09D-15 for   1475    260.
 E= -1159.22863966073    
 DIIS: error= 1.93D-02 at cycle   1 NSaved=   1.
 NSaved= 1 IEnMin= 1 EnMin= -1159.22863966073     IErMin= 1 ErrMin= 1.93D-02
 ErrMax= 1.93D-02  0.00D+00 EMaxC= 1.00D-01 BMatC= 4.98D-01 BMatP= 4.98D-01
 IDIUse=3 WtCom= 8.07D-01 WtEn= 1.93D-01
 Coeff-Com:  0.100D+01
 Coeff-En:   0.100D+01
 Coeff:      0.100D+01
 Gap=     0.343 Goal=   None    Shift=    0.000
 GapD=    0.343 DampG=1.000 DampE=0.500 DampFc=0.5000 IDamp=-1.
 Damping current iteration by 5.00D-01
 RMSDP=3.65D-03 MaxDP=1.58D-01              OVMax= 1.87D-01

 Cycle   2  Pass 1  IDiag  1:
 RMSU=  1.82D-03    CP:  9.95D-01
 E= -1159.38033052984     Delta-E=       -0.151690869110 Rises=F Damp=T
 DIIS: error= 7.15D-03 at cycle   2 NSaved=   2.
 NSaved= 2 IEnMin= 2 EnMin= -1159.38033052984     IErMin= 2 ErrMin= 7.15D-03
 ErrMax= 7.15D-03  0.00D+00 EMaxC= 1.00D-01 BMatC= 5.37D-02 BMatP= 4.98D-01
 IDIUse=3 WtCom= 9.28D-01 WtEn= 7.15D-02
 Coeff-Com:  0.133D-01 0.987D+00
 Coeff-En:   0.531D-01 0.947D+00
 Coeff:      0.161D-01 0.984D+00
 Gap=     0.386 Goal=   None    Shift=    0.000
 RMSDP=1.05D-03 MaxDP=3.59D-02 DE=-1.52D-01 OVMax= 9.85D-02

 Cycle   3  Pass 1  IDiag  1:
 RMSU=  1.01D-03    CP:  9.89D-01  8.56D-01
 E= -1159.54781096310     Delta-E=       -0.167480433258 Rises=F Damp=F
 DIIS: error= 5.18D-03 at cycle   3 NSaved=   3.
 NSaved= 3 IEnMin= 3 EnMin= -1159.54781096310     IErMin= 3 ErrMin= 5.18D-03
 ErrMax= 5.18D-03  0.00D+00 EMaxC= 1.00D-01 BMatC= 2.67D-02 BMatP= 5.37D-02
 IDIUse=3 WtCom= 9.48D-01 WtEn= 5.18D-02
 Coeff-Com: -0.872D-01 0.425D+00 0.663D+00
 Coeff-En:   0.000D+00 0.000D+00 0.100D+01
 Coeff:     -0.827D-01 0.403D+00 0.680D+00
 Gap=     0.361 Goal=   None    Shift=    0.000
 RMSDP=5.63D-04 MaxDP=2.68D-02 DE=-1.67D-01 OVMax= 3.77D-02

 Cycle   4  Pass 1  IDiag  1:
 RMSU=  3.41D-04    CP:  9.92D-01  9.96D-01  6.41D-01
 E= -1159.56574261710     Delta-E=       -0.017931654005 Rises=F Damp=F
 DIIS: error= 1.75D-03 at cycle   4 NSaved=   4.
 NSaved= 4 IEnMin= 4 EnMin= -1159.56574261710     IErMin= 4 ErrMin= 1.75D-03
 ErrMax= 1.75D-03  0.00D+00 EMaxC= 1.00D-01 BMatC= 4.16D-03 BMatP= 2.67D-02
 IDIUse=3 WtCom= 9.82D-01 WtEn= 1.75D-02
 Coeff-Com: -0.326D-01 0.749D-01 0.329D+00 0.629D+00
 Coeff-En:   0.000D+00 0.000D+00 0.984D-01 0.902D+00
 Coeff:     -0.320D-01 0.736D-01 0.325D+00 0.633D+00
 Gap=     0.358 Goal=   None    Shift=    0.000
 RMSDP=1.83D-04 MaxDP=7.69D-03 DE=-1.79D-02 OVMax= 1.01D-02

 Cycle   5  Pass 1  IDiag  1:
 RMSU=  8.29D-05    CP:  9.91D-01  9.66D-01  7.52D-01  6.99D-01
 E= -1159.56894410353     Delta-E=       -0.003201486424 Rises=F Damp=F
 DIIS: error= 3.54D-04 at cycle   5 NSaved=   5.
 NSaved= 5 IEnMin= 5 EnMin= -1159.56894410353     IErMin= 5 ErrMin= 3.54D-04
 ErrMax= 3.54D-04  0.00D+00 EMaxC= 1.00D-01 BMatC= 1.28D-04 BMatP= 4.16D-03
 IDIUse=3 WtCom= 9.96D-01 WtEn= 3.54D-03
 Coeff-Com: -0.937D-02 0.156D-01 0.114D+00 0.266D+00 0.613D+00
 Coeff-En:   0.000D+00 0.000D+00 0.000D+00 0.000D+00 0.100D+01
 Coeff:     -0.933D-02 0.155D-01 0.114D+00 0.265D+00 0.614D+00
 Gap=     0.358 Goal=   None    Shift=    0.000
 RMSDP=3.37D-05 MaxDP=1.65D-03 DE=-3.20D-03 OVMax= 2.50D-03

 Cycle   6  Pass 1  IDiag  1:
 RMSU=  2.43D-05    CP:  9.91D-01  9.69D-01  7.61D-01  7.35D-01  7.94D-01
 E= -1159.56905113067     Delta-E=       -0.000107027138 Rises=F Damp=F
 DIIS: error= 8.23D-05 at cycle   6 NSaved=   6.
 NSaved= 6 IEnMin= 6 EnMin= -1159.56905113067     IErMin= 6 ErrMin= 8.23D-05
 ErrMax= 8.23D-05  0.00D+00 EMaxC= 1.00D-01 BMatC= 9.22D-06 BMatP= 1.28D-04
 IDIUse=1 WtCom= 1.00D+00 WtEn= 0.00D+00
 Coeff-Com:  0.311D-03-0.254D-02 0.655D-02 0.193D-01 0.207D+00 0.769D+00
 Coeff:      0.311D-03-0.254D-02 0.655D-02 0.193D-01 0.207D+00 0.769D+00
 Gap=     0.359 Goal=   None    Shift=    0.000
 RMSDP=1.17D-05 MaxDP=4.34D-04 DE=-1.07D-04 OVMax= 8.41D-04

 Cycle   7  Pass 1  IDiag  1:
 RMSU=  8.32D-06    CP:  9.91D-01  9.67D-01  7.63D-01  7.42D-01  8.73D-01
                    CP:  1.03D+00
 E= -1159.56905997546     Delta-E=       -0.000008844797 Rises=F Damp=F
 DIIS: error= 4.57D-05 at cycle   7 NSaved=   7.
 NSaved= 7 IEnMin= 7 EnMin= -1159.56905997546     IErMin= 7 ErrMin= 4.57D-05
 ErrMax= 4.57D-05  0.00D+00 EMaxC= 1.00D-01 BMatC= 9.63D-07 BMatP= 9.22D-06
 IDIUse=1 WtCom= 1.00D+00 WtEn= 0.00D+00
 Coeff-Com:  0.146D-02-0.314D-02-0.121D-01-0.309D-01-0.280D-02 0.205D+00
 Coeff-Com:  0.842D+00
 Coeff:      0.146D-02-0.314D-02-0.121D-01-0.309D-01-0.280D-02 0.205D+00
 Coeff:      0.842D+00
 Gap=     0.359 Goal=   None    Shift=    0.000
 RMSDP=6.26D-06 MaxDP=2.78D-04 DE=-8.84D-06 OVMax= 4.04D-04

 Cycle   8  Pass 1  IDiag  1:
 RMSU=  2.97D-06    CP:  9.91D-01  9.66D-01  7.66D-01  7.45D-01  9.14D-01
                    CP:  1.15D+00  1.03D+00
 E= -1159.56906119786     Delta-E=       -0.000001222397 Rises=F Damp=F
 DIIS: error= 1.64D-05 at cycle   8 NSaved=   8.
 NSaved= 8 IEnMin= 8 EnMin= -1159.56906119786     IErMin= 8 ErrMin= 1.64D-05
 ErrMax= 1.64D-05  0.00D+00 EMaxC= 1.00D-01 BMatC= 2.18D-07 BMatP= 9.63D-07
 IDIUse=1 WtCom= 1.00D+00 WtEn= 0.00D+00
 Coeff-Com:  0.643D-03-0.115D-02-0.535D-02-0.156D-01-0.198D-01 0.404D-02
 Coeff-Com:  0.373D+00 0.664D+00
 Coeff:      0.643D-03-0.115D-02-0.535D-02-0.156D-01-0.198D-01 0.404D-02
 Coeff:      0.373D+00 0.664D+00
 Gap=     0.359 Goal=   None    Shift=    0.000
 RMSDP=1.99D-06 MaxDP=8.99D-05 DE=-1.22D-06 OVMax= 1.93D-04

 Cycle   9  Pass 1  IDiag  1:
 RMSU=  1.19D-06    CP:  9.91D-01  9.66D-01  7.66D-01  7.46D-01  9.22D-01
                    CP:  1.18D+00  1.15D+00  8.32D-01
 E= -1159.56906139413     Delta-E=       -0.000000196270 Rises=F Damp=F
 DIIS: error= 1.31D-05 at cycle   9 NSaved=   9.
 NSaved= 9 IEnMin= 9 EnMin= -1159.56906139413     IErMin= 9 ErrMin= 1.31D-05
 ErrMax= 1.31D-05  0.00D+00 EMaxC= 1.00D-01 BMatC= 3.73D-08 BMatP= 2.18D-07
 IDIUse=1 WtCom= 1.00D+00 WtEn= 0.00D+00
 Coeff-Com:  0.926D-04-0.792D-04-0.422D-03-0.258D-02-0.910D-02-0.343D-01
 Coeff-Com:  0.361D-01 0.317D+00 0.694D+00
 Coeff:      0.926D-04-0.792D-04-0.422D-03-0.258D-02-0.910D-02-0.343D-01
 Coeff:      0.361D-01 0.317D+00 0.694D+00
 Gap=     0.359 Goal=   None    Shift=    0.000
 RMSDP=9.06D-07 MaxDP=5.11D-05 DE=-1.96D-07 OVMax= 5.35D-05

 Cycle  10  Pass 1  IDiag  1:
 RMSU=  4.19D-07    CP:  9.91D-01  9.66D-01  7.66D-01  7.46D-01  9.25D-01
                    CP:  1.19D+00  1.18D+00  9.79D-01  8.67D-01
 E= -1159.56906142852     Delta-E=       -0.000000034386 Rises=F Damp=F
 DIIS: error= 1.95D-06 at cycle  10 NSaved=  10.
 NSaved=10 IEnMin=10 EnMin= -1159.56906142852     IErMin=10 ErrMin= 1.95D-06
 ErrMax= 1.95D-06  0.00D+00 EMaxC= 1.00D-01 BMatC= 2.47D-09 BMatP= 3.73D-08
 IDIUse=1 WtCom= 1.00D+00 WtEn= 0.00D+00
 Coeff-Com: -0.402D-04 0.982D-04 0.572D-03 0.104D-02-0.583D-03-0.120D-01
 Coeff-Com: -0.364D-01 0.257D-01 0.231D+00 0.791D+00
 Coeff:     -0.402D-04 0.982D-04 0.572D-03 0.104D-02-0.583D-03-0.120D-01
 Coeff:     -0.364D-01 0.257D-01 0.231D+00 0.791D+00
 Gap=     0.359 Goal=   None    Shift=    0.000
 RMSDP=2.64D-07 MaxDP=1.17D-05 DE=-3.44D-08 OVMax= 1.88D-05

 Cycle  11  Pass 1  IDiag  1:
 RMSU=  1.30D-07    CP:  9.91D-01  9.66D-01  7.66D-01  7.46D-01  9.25D-01
                    CP:  1.20D+00  1.20D+00  1.01D+00  9.63D-01  9.42D-01
 E= -1159.56906143100     Delta-E=       -0.000000002481 Rises=F Damp=F
 DIIS: error= 7.98D-07 at cycle  11 NSaved=  11.
 NSaved=11 IEnMin=11 EnMin= -1159.56906143100     IErMin=11 ErrMin= 7.98D-07
 ErrMax= 7.98D-07  0.00D+00 EMaxC= 1.00D-01 BMatC= 4.48D-10 BMatP= 2.47D-09
 IDIUse=1 WtCom= 1.00D+00 WtEn= 0.00D+00
 Coeff-Com: -0.255D-04 0.492D-04 0.315D-03 0.728D-03 0.647D-03-0.203D-02
 Coeff-Com: -0.203D-01-0.173D-01 0.374D-01 0.378D+00 0.622D+00
 Coeff:     -0.255D-04 0.492D-04 0.315D-03 0.728D-03 0.647D-03-0.203D-02
 Coeff:     -0.203D-01-0.173D-01 0.374D-01 0.378D+00 0.622D+00
 Gap=     0.359 Goal=   None    Shift=    0.000
 RMSDP=7.20D-08 MaxDP=2.84D-06 DE=-2.48D-09 OVMax= 4.20D-06

 Cycle  12  Pass 1  IDiag  1:
 RMSU=  4.19D-08    CP:  9.91D-01  9.66D-01  7.66D-01  7.46D-01  9.26D-01
                    CP:  1.20D+00  1.20D+00  1.01D+00  9.75D-01  1.02D+00
                    CP:  8.03D-01
 E= -1159.56906143134     Delta-E=       -0.000000000344 Rises=F Damp=F
 DIIS: error= 1.99D-07 at cycle  12 NSaved=  12.
 NSaved=12 IEnMin=12 EnMin= -1159.56906143134     IErMin=12 ErrMin= 1.99D-07
 ErrMax= 1.99D-07  0.00D+00 EMaxC= 1.00D-01 BMatC= 1.89D-11 BMatP= 4.48D-10
 IDIUse=1 WtCom= 1.00D+00 WtEn= 0.00D+00
 Coeff-Com: -0.338D-05 0.479D-05 0.451D-04 0.125D-03 0.262D-03 0.550D-03
 Coeff-Com: -0.299D-02-0.749D-02-0.123D-01 0.420D-01 0.185D+00 0.795D+00
 Coeff:     -0.338D-05 0.479D-05 0.451D-04 0.125D-03 0.262D-03 0.550D-03
 Coeff:     -0.299D-02-0.749D-02-0.123D-01 0.420D-01 0.185D+00 0.795D+00
 Gap=     0.359 Goal=   None    Shift=    0.000
 RMSDP=2.12D-08 MaxDP=6.56D-07 DE=-3.44D-10 OVMax= 1.53D-06

 Cycle  13  Pass 1  IDiag  1:
 RMSU=  1.30D-08    CP:  9.91D-01  9.66D-01  7.66D-01  7.46D-01  9.26D-01
                    CP:  1.20D+00  1.20D+00  1.01D+00  9.80D-01  1.05D+00
                    CP:  8.66D-01  9.45D-01
 E= -1159.56906143138     Delta-E=       -0.000000000043 Rises=F Damp=F
 DIIS: error= 5.67D-08 at cycle  13 NSaved=  13.
 NSaved=13 IEnMin=13 EnMin= -1159.56906143138     IErMin=13 ErrMin= 5.67D-08
 ErrMax= 5.67D-08  0.00D+00 EMaxC= 1.00D-01 BMatC= 2.76D-12 BMatP= 1.89D-11
 IDIUse=1 WtCom= 1.00D+00 WtEn= 0.00D+00
 Coeff-Com:  0.905D-06-0.232D-05-0.803D-05-0.128D-04 0.480D-04 0.355D-03
 Coeff-Com:  0.450D-03-0.131D-02-0.807D-02-0.158D-01 0.147D-01 0.311D+00
 Coeff-Com:  0.698D+00
 Coeff:      0.905D-06-0.232D-05-0.803D-05-0.128D-04 0.480D-04 0.355D-03
 Coeff:      0.450D-03-0.131D-02-0.807D-02-0.158D-01 0.147D-01 0.311D+00
 Coeff:      0.698D+00
 Gap=     0.359 Goal=   None    Shift=    0.000
 RMSDP=7.46D-09 MaxDP=3.13D-07 DE=-4.32D-11 OVMax= 4.00D-07

 Error on total polarization charges =  0.01860
 SCF Done:  E(RM062X) =  -1159.56906143     A.U. after   13 cycles
            NFock= 13  Conv=0.75D-08     -V/T= 2.0075
 KE= 1.150904860961D+03 PE=-6.047436277724D+03 EE= 2.077104531262D+03
 SMD-CDS (non-electrostatic) energy       (kcal/mol) =      -2.77
 (included in total energy above)
 Leave Link  502 at Mon Dec 30 11:34:04 2019, MaxMem=  4294967296 cpu:             789.6 elap:              51.1
 (Enter /n/sw/g16_nehalem/g16/l601.exe)
 Copying SCF densities to generalized density rwf, IOpCl= 0 IROHF=0.

 **********************************************************************

            Population analysis using the SCF density.

 **********************************************************************

 Orbital symmetries:
       Occupied  (A) (A) (A) (A) (A) (A) (A) (A) (A) (A) (A) (A)
                 (A) (A) (A) (A) (A) (A) (A) (A) (A) (A) (A) (A)
                 (A) (A) (A) (A) (A) (A) (A) (A) (A) (A) (A) (A)
                 (A) (A) (A) (A) (A) (A) (A) (A) (A) (A) (A) (A)
                 (A) (A) (A) (A) (A) (A) (A) (A) (A) (A) (A) (A)
                 (A) (A) (A) (A) (A) (A) (A) (A) (A) (A) (A) (A)
                 (A) (A)
       Virtual   (A) (A) (A) (A) (A) (A) (A) (A) (A) (A) (A) (A)
                 (A) (A) (A) (A) (A) (A) (A) (A) (A) (A) (A) (A)
                 (A) (A) (A) (A) (A) (A) (A) (A) (A) (A) (A) (A)
                 (A) (A) (A) (A) (A) (A) (A) (A) (A) (A) (A) (A)
                 (A) (A) (A) (A) (A) (A) (A) (A) (A) (A) (A) (A)
                 (A) (A) (A) (A) (A) (A) (A) (A) (A) (A) (A) (A)
                 (A) (A) (A) (A) (A) (A) (A) (A) (A) (A) (A) (A)
                 (A) (A) (A) (A) (A) (A) (A) (A) (A) (A) (A) (A)
                 (A) (A) (A) (A) (A) (A) (A) (A) (A) (A) (A) (A)
                 (A) (A) (A) (A) (A) (A) (A) (A) (A) (A) (A) (A)
                 (A) (A) (A) (A) (A) (A) (A) (A) (A) (A) (A) (A)
                 (A) (A) (A) (A) (A) (A) (A) (A) (A) (A) (A) (A)
                 (A) (A) (A) (A) (A) (A) (A) (A) (A) (A) (A) (A)
                 (A) (A) (A) (A) (A) (A) (A) (A) (A) (A) (A) (A)
                 (A) (A) (A) (A) (A) (A) (A) (A) (A) (A) (A) (A)
                 (A) (A) (A) (A) (A) (A) (A) (A) (A) (A) (A) (A)
                 (A) (A) (A) (A) (A) (A) (A) (A) (A) (A) (A) (A)
                 (A) (A) (A) (A) (A) (A) (A) (A) (A) (A) (A) (A)
                 (A) (A) (A) (A) (A) (A) (A) (A) (A) (A) (A) (A)
                 (A) (A) (A) (A) (A) (A) (A)
 The electronic state is 1-A.
 Alpha  occ. eigenvalues --  -25.27110 -25.26935 -25.26108 -25.26090 -19.69826
 Alpha  occ. eigenvalues --  -19.64498 -19.62299 -19.61686 -14.79791 -14.78956
 Alpha  occ. eigenvalues --  -10.71569 -10.70893 -10.69481 -10.66492 -10.66290
 Alpha  occ. eigenvalues --  -10.61231 -10.60507 -10.59838 -10.54552  -1.40184
 Alpha  occ. eigenvalues --   -1.39393  -1.33989  -1.33308  -1.24690  -1.17629
 Alpha  occ. eigenvalues --   -1.16521  -1.15242  -1.05264  -1.04259  -0.90382
 Alpha  occ. eigenvalues --   -0.87933  -0.82400  -0.82137  -0.77729  -0.74426
 Alpha  occ. eigenvalues --   -0.68772  -0.67918  -0.67111  -0.65226  -0.64612
 Alpha  occ. eigenvalues --   -0.63679  -0.63410  -0.62986  -0.61788  -0.60672
 Alpha  occ. eigenvalues --   -0.57655  -0.57112  -0.56220  -0.55456  -0.54183
 Alpha  occ. eigenvalues --   -0.53818  -0.52530  -0.51774  -0.50973  -0.50120
 Alpha  occ. eigenvalues --   -0.50108  -0.49730  -0.49062  -0.48735  -0.48167
 Alpha  occ. eigenvalues --   -0.47928  -0.46486  -0.45989  -0.45394  -0.43937
 Alpha  occ. eigenvalues --   -0.43342  -0.42549  -0.41061  -0.38110  -0.36439
 Alpha  occ. eigenvalues --   -0.36073  -0.33715  -0.32854  -0.31405
 Alpha virt. eigenvalues --    0.04457   0.04985   0.07321   0.12765   0.15321
 Alpha virt. eigenvalues --    0.15912   0.16691   0.17383   0.17714   0.17887
 Alpha virt. eigenvalues --    0.18417   0.18826   0.20248   0.20865   0.21483
 Alpha virt. eigenvalues --    0.21980   0.22588   0.22891   0.23836   0.24907
 Alpha virt. eigenvalues --    0.27137   0.28495   0.29274   0.30231   0.31521
 Alpha virt. eigenvalues --    0.32394   0.34215   0.36251   0.37246   0.41518
 Alpha virt. eigenvalues --    0.42599   0.45146   0.47742   0.50943   0.54985
 Alpha virt. eigenvalues --    0.55350   0.56132   0.57512   0.58215   0.58308
 Alpha virt. eigenvalues --    0.59469   0.59524   0.61319   0.62139   0.62432
 Alpha virt. eigenvalues --    0.63934   0.65871   0.67060   0.67539   0.68215
 Alpha virt. eigenvalues --    0.69651   0.71203   0.72543   0.73423   0.73969
 Alpha virt. eigenvalues --    0.75150   0.77609   0.80112   0.80769   0.82058
 Alpha virt. eigenvalues --    0.82960   0.84844   0.87387   0.89037   0.89354
 Alpha virt. eigenvalues --    0.89501   0.90341   0.91703   0.91965   0.92337
 Alpha virt. eigenvalues --    0.93820   0.95478   0.96155   0.96233   0.97043
 Alpha virt. eigenvalues --    0.98623   0.98998   1.00628   1.01159   1.02323
 Alpha virt. eigenvalues --    1.02776   1.05032   1.06099   1.07950   1.11481
 Alpha virt. eigenvalues --    1.12324   1.14267   1.14821   1.17575   1.18033
 Alpha virt. eigenvalues --    1.18633   1.20813   1.21670   1.24525   1.25545
 Alpha virt. eigenvalues --    1.25762   1.27015   1.30097   1.30552   1.34393
 Alpha virt. eigenvalues --    1.35096   1.36717   1.39463   1.41045   1.41978
 Alpha virt. eigenvalues --    1.42266   1.43513   1.45320   1.45699   1.45979
 Alpha virt. eigenvalues --    1.46792   1.48374   1.48766   1.49195   1.51082
 Alpha virt. eigenvalues --    1.51619   1.54015   1.55201   1.56182   1.58918
 Alpha virt. eigenvalues --    1.61716   1.63814   1.64960   1.67768   1.69586
 Alpha virt. eigenvalues --    1.69740   1.73148   1.74848   1.76547   1.77580
 Alpha virt. eigenvalues --    1.79252   1.80053   1.80895   1.81516   1.82300
 Alpha virt. eigenvalues --    1.84658   1.85365   1.86165   1.87227   1.87865
 Alpha virt. eigenvalues --    1.89280   1.90141   1.92234   1.93199   1.93868
 Alpha virt. eigenvalues --    1.95107   1.96279   1.96904   1.97453   1.99362
 Alpha virt. eigenvalues --    1.99477   2.00299   2.02510   2.02895   2.05372
 Alpha virt. eigenvalues --    2.06773   2.07911   2.09388   2.10729   2.12613
 Alpha virt. eigenvalues --    2.13200   2.13485   2.15940   2.16360   2.16816
 Alpha virt. eigenvalues --    2.18168   2.19282   2.21386   2.22228   2.23019
 Alpha virt. eigenvalues --    2.24375   2.25119   2.25930   2.28654   2.31294
 Alpha virt. eigenvalues --    2.32845   2.35186   2.37130   2.37719   2.39067
 Alpha virt. eigenvalues --    2.39857   2.40772   2.41956   2.44306   2.49124
 Alpha virt. eigenvalues --    2.49312   2.52271   2.53955   2.55534   2.60343
 Alpha virt. eigenvalues --    2.64266   2.65230   2.66693   2.69522   2.72097
 Alpha virt. eigenvalues --    2.73572   2.73945   2.76465   2.78520   2.80113
 Alpha virt. eigenvalues --    2.82557   2.87293   2.90107   2.93082   2.99733
 Alpha virt. eigenvalues --    3.00868   3.04088   3.05619   3.06329   3.08288
 Alpha virt. eigenvalues --    3.10589   3.11964   3.14251   3.18833   3.21673
 Alpha virt. eigenvalues --    3.22953   3.95317   4.02694   4.06583   4.12215
 Alpha virt. eigenvalues --    4.18642   4.21056   4.24636   4.27646   4.34341
 Alpha virt. eigenvalues --    4.37486   4.40537   4.43280   4.50110   4.55215
 Alpha virt. eigenvalues --    4.62518   4.66075   4.72529   4.95471   5.24669
          Condensed to atoms (all electrons):
               1          2          3          4          5          6
     1  N    7.251950   0.309207   0.165165  -0.039885  -0.029262  -0.052139
     2  H    0.309207   0.329245  -0.031558   0.003419  -0.000597   0.000959
     3  C    0.165165  -0.031558   5.555575   0.348808   0.270971   0.242244
     4  H   -0.039885   0.003419   0.348808   0.463413  -0.010201  -0.029914
     5  C   -0.029262  -0.000597   0.270971  -0.010201   4.362842  -0.029256
     6  C   -0.052139   0.000959   0.242244  -0.029914  -0.029256   4.403021
     7  H   -0.000450   0.002960  -0.076060   0.004889   0.390199  -0.000823
     8  O   -0.000794   0.000565  -0.088275   0.002022   0.008976   0.569120
     9  N   -0.001364  -0.000064  -0.109910   0.002163   0.004225   0.269243
    10  H   -0.006343  -0.000088   0.003419   0.000353  -0.000004  -0.013689
    11  C   -0.001180   0.000027   0.009077  -0.000001  -0.000127  -0.035023
    12  H   -0.000053  -0.000003   0.000963  -0.000034  -0.000010   0.000536
    13  C    0.000732  -0.000006  -0.000489   0.000012   0.000002  -0.003088
    14  C   -0.000014   0.000000  -0.000220  -0.000014   0.000002   0.003610
    15  H   -0.000005   0.000001  -0.000012   0.000000   0.000000   0.000447
    16  O    0.000000   0.000000  -0.000027   0.000000   0.000000   0.000347
    17  O    0.000000   0.000000   0.000000   0.000000   0.000000  -0.000029
    18  C    0.000000   0.000000   0.000000   0.000000   0.000000   0.000002
    19  H    0.000000   0.000000   0.000000   0.000000   0.000000   0.000000
    20  H    0.000000   0.000000   0.000000   0.000000   0.000000   0.000000
    21  H    0.000000   0.000000   0.000000   0.000000   0.000000   0.000000
    22  F   -0.000055   0.000000   0.000001   0.000000   0.000000   0.000079
    23  F   -0.000236   0.000361  -0.001678  -0.000005   0.000013   0.015222
    24  F    0.001783  -0.000004  -0.040017   0.000022   0.267209   0.010487
    25  F    0.003298   0.000237  -0.038259  -0.000417   0.268070   0.002504
    26  C    0.258461  -0.013943  -0.022465  -0.002886   0.003438  -0.004293
    27  O   -0.109636   0.002591   0.009019   0.009889   0.000628  -0.005090
    28  C   -0.116981   0.000162   0.006950   0.000565  -0.000050  -0.000465
    29  H   -0.000492   0.000004  -0.000233  -0.000017  -0.000002   0.000086
    30  H    0.004225   0.001634   0.000049  -0.000037  -0.000029   0.000016
    31  H    0.003763   0.000035  -0.000140   0.000009   0.000002  -0.000004
               7          8          9         10         11         12
     1  N   -0.000450  -0.000794  -0.001364  -0.006343  -0.001180  -0.000053
     2  H    0.002960   0.000565  -0.000064  -0.000088   0.000027  -0.000003
     3  C   -0.076060  -0.088275  -0.109910   0.003419   0.009077   0.000963
     4  H    0.004889   0.002022   0.002163   0.000353  -0.000001  -0.000034
     5  C    0.390199   0.008976   0.004225  -0.000004  -0.000127  -0.000010
     6  C   -0.000823   0.569120   0.269243  -0.013689  -0.035023   0.000536
     7  H    0.568244   0.007230   0.000155  -0.000018   0.000000  -0.000004
     8  O    0.007230   8.130526  -0.102682   0.002158   0.003337   0.014581
     9  N    0.000155  -0.102682   7.255726   0.274252   0.199830  -0.038487
    10  H   -0.000018   0.002158   0.274252   0.313295  -0.031595   0.003156
    11  C    0.000000   0.003337   0.199830  -0.031595   5.456004   0.354157
    12  H   -0.000004   0.014581  -0.038487   0.003156   0.354157   0.437311
    13  C    0.000001  -0.000663  -0.045677  -0.000109   0.285193  -0.024805
    14  C    0.000000   0.000169  -0.045019  -0.000755   0.289502  -0.014112
    15  H    0.000000  -0.000105   0.005276   0.000117  -0.067815   0.000325
    16  O    0.000000   0.000000   0.000285   0.007389  -0.079510   0.000492
    17  O    0.000000   0.000000   0.002416   0.000165  -0.105188   0.000865
    18  C    0.000000   0.000000  -0.000120  -0.000016   0.006781  -0.000146
    19  H    0.000000   0.000000   0.000000   0.000000  -0.000045  -0.000004
    20  H    0.000000   0.000000   0.000012   0.000002   0.000245   0.000002
    21  H    0.000000   0.000000   0.000002  -0.000001  -0.000273  -0.000004
    22  F    0.000000  -0.000001  -0.001155   0.004844  -0.050974   0.001965
    23  F   -0.000004  -0.001641  -0.006053  -0.000147  -0.039054  -0.000261
    24  F   -0.037503  -0.002224   0.000020   0.000004   0.000001   0.000000
    25  F   -0.039302   0.000022  -0.000016   0.000000   0.000000   0.000000
    26  C   -0.000250  -0.000170   0.007860   0.001117  -0.001733  -0.000017
    27  O   -0.000007  -0.000005  -0.016284   0.035182   0.000667  -0.000007
    28  C   -0.000001  -0.000001  -0.000202   0.000866   0.000048   0.000000
    29  H    0.000000   0.000000   0.000072  -0.000088   0.000015   0.000000
    30  H    0.000002   0.000000   0.000001  -0.000018  -0.000001   0.000000
    31  H    0.000000   0.000000   0.000002  -0.000005  -0.000001   0.000000
              13         14         15         16         17         18
     1  N    0.000732  -0.000014  -0.000005   0.000000   0.000000   0.000000
     2  H   -0.000006   0.000000   0.000001   0.000000   0.000000   0.000000
     3  C   -0.000489  -0.000220  -0.000012  -0.000027   0.000000   0.000000
     4  H    0.000012  -0.000014   0.000000   0.000000   0.000000   0.000000
     5  C    0.000002   0.000002   0.000000   0.000000   0.000000   0.000000
     6  C   -0.003088   0.003610   0.000447   0.000347  -0.000029   0.000002
     7  H    0.000001   0.000000   0.000000   0.000000   0.000000   0.000000
     8  O   -0.000663   0.000169  -0.000105   0.000000   0.000000   0.000000
     9  N   -0.045677  -0.045019   0.005276   0.000285   0.002416  -0.000120
    10  H   -0.000109  -0.000755   0.000117   0.007389   0.000165  -0.000016
    11  C    0.285193   0.289502  -0.067815  -0.079510  -0.105188   0.006781
    12  H   -0.024805  -0.014112   0.000325   0.000492   0.000865  -0.000146
    13  C    4.434665  -0.048861   0.385854  -0.001117   0.009860  -0.000139
    14  C   -0.048861   4.336480  -0.003267   0.582211   0.249456  -0.024766
    15  H    0.385854  -0.003267   0.543218  -0.000015   0.005234   0.000011
    16  O   -0.001117   0.582211  -0.000015   8.043968  -0.083443   0.001865
    17  O    0.009860   0.249456   0.005234  -0.083443   8.323379   0.183906
    18  C   -0.000139  -0.024766   0.000011   0.001865   0.183906   4.945094
    19  H   -0.000008   0.004341  -0.000025   0.000574  -0.030350   0.385776
    20  H   -0.000140  -0.004443   0.000028   0.004259  -0.031034   0.382237
    21  H    0.000050  -0.005376   0.000009   0.003900  -0.030591   0.383515
    22  F    0.251071   0.014062  -0.035618  -0.000401  -0.001269  -0.000034
    23  F    0.272230   0.002030  -0.034390  -0.000006   0.000004   0.000000
    24  F    0.000000   0.000000   0.000000   0.000000   0.000000   0.000000
    25  F    0.000000   0.000000   0.000000   0.000000   0.000000   0.000000
    26  C    0.001346   0.000010   0.000048  -0.000007   0.000000   0.000000
    27  O    0.000120   0.000010  -0.000003  -0.000018   0.000000   0.000000
    28  C   -0.000165   0.000001  -0.000012   0.000000   0.000000   0.000000
    29  H    0.000395  -0.000002   0.000042   0.000000   0.000000   0.000000
    30  H    0.000002   0.000000   0.000000   0.000000   0.000000   0.000000
    31  H    0.000004   0.000000   0.000000   0.000000   0.000000   0.000000
              19         20         21         22         23         24
     1  N    0.000000   0.000000   0.000000  -0.000055  -0.000236   0.001783
     2  H    0.000000   0.000000   0.000000   0.000000   0.000361  -0.000004
     3  C    0.000000   0.000000   0.000000   0.000001  -0.001678  -0.040017
     4  H    0.000000   0.000000   0.000000   0.000000  -0.000005   0.000022
     5  C    0.000000   0.000000   0.000000   0.000000   0.000013   0.267209
     6  C    0.000000   0.000000   0.000000   0.000079   0.015222   0.010487
     7  H    0.000000   0.000000   0.000000   0.000000  -0.000004  -0.037503
     8  O    0.000000   0.000000   0.000000  -0.000001  -0.001641  -0.002224
     9  N    0.000000   0.000012   0.000002  -0.001155  -0.006053   0.000020
    10  H    0.000000   0.000002  -0.000001   0.004844  -0.000147   0.000004
    11  C   -0.000045   0.000245  -0.000273  -0.050974  -0.039054   0.000001
    12  H   -0.000004   0.000002  -0.000004   0.001965  -0.000261   0.000000
    13  C   -0.000008  -0.000140   0.000050   0.251071   0.272230   0.000000
    14  C    0.004341  -0.004443  -0.005376   0.014062   0.002030   0.000000
    15  H   -0.000025   0.000028   0.000009  -0.035618  -0.034390   0.000000
    16  O    0.000574   0.004259   0.003900  -0.000401  -0.000006   0.000000
    17  O   -0.030350  -0.031034  -0.030591  -0.001269   0.000004   0.000000
    18  C    0.385776   0.382237   0.383515  -0.000034   0.000000   0.000000
    19  H    0.487152  -0.026062  -0.026247   0.000000   0.000000   0.000000
    20  H   -0.026062   0.505928  -0.032143   0.000016   0.000000   0.000000
    21  H   -0.026247  -0.032143   0.506933   0.000000   0.000000   0.000000
    22  F    0.000000   0.000016   0.000000   9.158939  -0.036252   0.000000
    23  F    0.000000   0.000000   0.000000  -0.036252   9.129207   0.000000
    24  F    0.000000   0.000000   0.000000   0.000000   0.000000   9.138748
    25  F    0.000000   0.000000   0.000000   0.000000   0.000000  -0.033321
    26  C    0.000000   0.000000   0.000000   0.002272   0.002057  -0.000015
    27  O    0.000000   0.000000   0.000000  -0.000468  -0.000045   0.000000
    28  C    0.000000   0.000000   0.000000  -0.000919  -0.000657   0.000000
    29  H    0.000000   0.000000   0.000000   0.002495   0.001673   0.000000
    30  H    0.000000   0.000000   0.000000   0.000002  -0.000005   0.000000
    31  H    0.000000   0.000000   0.000000   0.000004   0.000005   0.000000
              25         26         27         28         29         30
     1  N    0.003298   0.258461  -0.109636  -0.116981  -0.000492   0.004225
     2  H    0.000237  -0.013943   0.002591   0.000162   0.000004   0.001634
     3  C   -0.038259  -0.022465   0.009019   0.006950  -0.000233   0.000049
     4  H   -0.000417  -0.002886   0.009889   0.000565  -0.000017  -0.000037
     5  C    0.268070   0.003438   0.000628  -0.000050  -0.000002  -0.000029
     6  C    0.002504  -0.004293  -0.005090  -0.000465   0.000086   0.000016
     7  H   -0.039302  -0.000250  -0.000007  -0.000001   0.000000   0.000002
     8  O    0.000022  -0.000170  -0.000005  -0.000001   0.000000   0.000000
     9  N   -0.000016   0.007860  -0.016284  -0.000202   0.000072   0.000001
    10  H    0.000000   0.001117   0.035182   0.000866  -0.000088  -0.000018
    11  C    0.000000  -0.001733   0.000667   0.000048   0.000015  -0.000001
    12  H    0.000000  -0.000017  -0.000007   0.000000   0.000000   0.000000
    13  C    0.000000   0.001346   0.000120  -0.000165   0.000395   0.000002
    14  C    0.000000   0.000010   0.000010   0.000001  -0.000002   0.000000
    15  H    0.000000   0.000048  -0.000003  -0.000012   0.000042   0.000000
    16  O    0.000000  -0.000007  -0.000018   0.000000   0.000000   0.000000
    17  O    0.000000   0.000000   0.000000   0.000000   0.000000   0.000000
    18  C    0.000000   0.000000   0.000000   0.000000   0.000000   0.000000
    19  H    0.000000   0.000000   0.000000   0.000000   0.000000   0.000000
    20  H    0.000000   0.000000   0.000000   0.000000   0.000000   0.000000
    21  H    0.000000   0.000000   0.000000   0.000000   0.000000   0.000000
    22  F    0.000000   0.002272  -0.000468  -0.000919   0.002495   0.000002
    23  F    0.000000   0.002057  -0.000045  -0.000657   0.001673  -0.000005
    24  F   -0.033321  -0.000015   0.000000   0.000000   0.000000   0.000000
    25  F    9.146558   0.000049  -0.000001  -0.000005   0.000000   0.000000
    26  C    0.000049   4.315674   0.543634   0.375781  -0.021047  -0.027728
    27  O   -0.000001   0.543634   8.156196  -0.075864  -0.000934   0.002713
    28  C   -0.000005   0.375781  -0.075864   5.300076   0.360974   0.360840
    29  H    0.000000  -0.021047  -0.000934   0.360974   0.479208  -0.021122
    30  H    0.000000  -0.027728   0.002713   0.360840  -0.021122   0.507829
    31  H    0.000000  -0.022352   0.001512   0.366981  -0.017918  -0.021140
              31
     1  N    0.003763
     2  H    0.000035
     3  C   -0.000140
     4  H    0.000009
     5  C    0.000002
     6  C   -0.000004
     7  H    0.000000
     8  O    0.000000
     9  N    0.000002
    10  H   -0.000005
    11  C   -0.000001
    12  H    0.000000
    13  C    0.000004
    14  C    0.000000
    15  H    0.000000
    16  O    0.000000
    17  O    0.000000
    18  C    0.000000
    19  H    0.000000
    20  H    0.000000
    21  H    0.000000
    22  F    0.000004
    23  F    0.000005
    24  F    0.000000
    25  F    0.000000
    26  C   -0.022352
    27  O    0.001512
    28  C    0.366981
    29  H   -0.017918
    30  H   -0.021140
    31  H    0.475065
 Mulliken charges:
               1
     1  N   -0.639695
     2  H    0.394854
     3  C   -0.202899
     4  H    0.247847
     5  C    0.492962
     6  C    0.655891
     7  H    0.180742
     8  O   -0.542145
     9  N   -0.654508
    10  H    0.406557
    11  C   -0.192367
    12  H    0.263596
    13  C    0.483728
    14  C    0.664965
    15  H    0.200657
    16  O   -0.480747
    17  O   -0.493382
    18  C   -0.263966
    19  H    0.204899
    20  H    0.201092
    21  H    0.200226
    22  F   -0.308603
    23  F   -0.302368
    24  F   -0.305190
    25  F   -0.309418
    26  C    0.605158
    27  O   -0.553798
    28  C   -0.577923
    29  H    0.216892
    30  H    0.192768
    31  H    0.214176
 Sum of Mulliken charges =   0.00000
 Mulliken charges with hydrogens summed into heavy atoms:
               1
     1  N   -0.244841
     3  C    0.044948
     5  C    0.673703
     6  C    0.655891
     8  O   -0.542145
     9  N   -0.247951
    11  C    0.071228
    13  C    0.684386
    14  C    0.664965
    16  O   -0.480747
    17  O   -0.493382
    18  C    0.342250
    22  F   -0.308603
    23  F   -0.302368
    24  F   -0.305190
    25  F   -0.309418
    26  C    0.605158
    27  O   -0.553798
    28  C    0.045912
 Electronic spatial extent (au):  <R**2>=           5460.8098
 Charge=              0.0000 electrons
 Dipole moment (field-independent basis, Debye):
    X=             -3.1018    Y=              3.0744    Z=              3.7002  Tot=              5.7240
 Quadrupole moment (field-independent basis, Debye-Ang):
   XX=            -84.7830   YY=           -107.4937   ZZ=           -113.5785
   XY=             11.5971   XZ=              1.6554   YZ=              5.6373
 Traceless Quadrupole moment (field-independent basis, Debye-Ang):
   XX=             17.1687   YY=             -5.5420   ZZ=            -11.6268
   XY=             11.5971   XZ=              1.6554   YZ=              5.6373
 Octapole moment (field-independent basis, Debye-Ang**2):
  XXX=           -137.6269  YYY=             31.2182  ZZZ=             19.7446  XYY=              4.8939
  XXY=              5.3212  XXZ=             26.0865  XZZ=             10.5900  YZZ=              0.9765
  YYZ=              4.5038  XYZ=              5.6316
 Hexadecapole moment (field-independent basis, Debye-Ang**3):
 XXXX=          -3710.3035 YYYY=          -1410.6259 ZZZZ=           -630.6989 XXXY=             77.9361
 XXXZ=            127.5184 YYYX=             20.1625 YYYZ=             23.1242 ZZZX=            -41.4195
 ZZZY=             33.3904 XXYY=           -938.9691 XXZZ=           -787.8268 YYZZ=           -362.1485
 XXYZ=              9.3363 YYXZ=             -2.8038 ZZXY=            -43.2409
 N-N= 1.659857824070D+03 E-N=-6.047436274307D+03  KE= 1.150904860961D+03
 No NMR shielding tensors so no spin-rotation constants.
 Leave Link  601 at Mon Dec 30 11:34:13 2019, MaxMem=  4294967296 cpu:              43.9 elap:               4.5
 (Enter /n/sw/g16_nehalem/g16/l701.exe)
 ... and contract with generalized density number  0.
 Compute integral first derivatives.
 D1PCM: PCM CHGder 1st derivatives, ID1Alg=3 FixD1E=F DoIter=F DoCFld=F I1PDM=0.
 GePol: Maximum number of non-zero 1st derivatives   =     315
 Leave Link  701 at Mon Dec 30 11:34:16 2019, MaxMem=  4294967296 cpu:              23.5 elap:               2.2
 (Enter /n/sw/g16_nehalem/g16/l702.exe)
 L702 exits ... SP integral derivatives will be done elsewhere.
 Leave Link  702 at Mon Dec 30 11:34:17 2019, MaxMem=  4294967296 cpu:               0.6 elap:               0.0
 (Enter /n/sw/g16_nehalem/g16/l703.exe)
 Integral derivatives from FoFJK, PRISM(SPDF).
 Compute integral first derivatives, UseDBF=F ICtDFT=           0.
 Calling FoFJK, ICntrl=      2127 FMM=F ISym2X=0 I1Cent= 0 IOpClX= 0 NMat=1 NMatS=1 NMatT=0.
 FoFJK:  IHMeth= 1 ICntrl=    2127 DoSepK=F KAlg= 0 I1Cent=           0 FoldK=F
 IRaf=         0 NMat=       1 IRICut=       1 DoRegI=T DoRafI=F ISym2E= 0 IDoP0=0 IntGTp=1.
 FoFCou: FMM=F IPFlag=           0 FMFlag=      100000 FMFlg1=         800
         NFxFlg=           0 DoJE=F BraDBF=F KetDBF=F FulRan=T
         wScrn=  0.000000 ICntrl=      2127 IOpCl=  0 I1Cent=           0 NGrid=           0
         NMat0=    1 NMatS0=      1 NMatT0=    0 NMatD0=    1 NMtDS0=    0 NMtDT0=    0
 Symmetry not used in FoFCou.
 Leave Link  703 at Mon Dec 30 11:34:23 2019, MaxMem=  4294967296 cpu:              86.1 elap:               5.7
 (Enter /n/sw/g16_nehalem/g16/l716.exe)
 Dipole        =-1.22034851D+00 1.20954252D+00 1.45577509D+00
 ***** Axes restored to original set *****
 -------------------------------------------------------------------
 Center     Atomic                   Forces (Hartrees/Bohr)
 Number     Number              X              Y              Z
 -------------------------------------------------------------------
      1        7           0.000003349    0.000000075   -0.000001099
      2        1          -0.000000599    0.000003000   -0.000002463
      3        6           0.000001975    0.000002891    0.000002812
      4        1          -0.000000133   -0.000003666    0.000004992
      5        6           0.000000065    0.000000208    0.000007181
      6        6          -0.000007626   -0.000000089   -0.000000615
      7        1          -0.000001258    0.000005989    0.000005740
      8        8          -0.000000735    0.000004666    0.000008034
      9        7           0.000007160    0.000001946    0.000011314
     10        1          -0.000002201   -0.000005975   -0.000000150
     11        6          -0.000000591    0.000006090   -0.000003225
     12        1          -0.000002248    0.000003858    0.000003068
     13        6           0.000004244    0.000008798   -0.000000416
     14        6           0.000008401   -0.000004257    0.000003915
     15        1           0.000000734    0.000005763   -0.000005257
     16        8          -0.000001253   -0.000006752    0.000001149
     17        8          -0.000004317   -0.000000957    0.000004999
     18        6          -0.000000568   -0.000002373    0.000001040
     19        1           0.000000272   -0.000000664    0.000000376
     20        1           0.000000767   -0.000005821   -0.000001053
     21        1           0.000000155   -0.000003354    0.000005211
     22        9          -0.000001253   -0.000001852   -0.000004730
     23        9          -0.000001740    0.000004032   -0.000003996
     24        9           0.000001786   -0.000000665    0.000009895
     25        9          -0.000001318   -0.000001198    0.000005616
     26        6          -0.000005468   -0.000005588   -0.000014220
     27        8           0.000002729   -0.000006074    0.000004012
     28        6           0.000000212   -0.000002158   -0.000005048
     29        1          -0.000002230    0.000001465   -0.000013448
     30        1          -0.000000335    0.000003824   -0.000012329
     31        1           0.000002025   -0.000001163   -0.000011304
 -------------------------------------------------------------------
 Cartesian Forces:  Max     0.000014220 RMS     0.000004787
 Leave Link  716 at Mon Dec 30 11:34:24 2019, MaxMem=  4294967296 cpu:               1.2 elap:               0.3
 (Enter /n/sw/g16_nehalem/g16/l103.exe)

[...]
 847,-0.00019832,-0.00008326,0.00016386,-0.00005315,-0.00000718,-0.0000
 0481,-0.00008857,0.00018520,-0.00011056,-0.00024294,-0.00005465,-0.000
 17325,0.00001522,-0.00004457,-0.00001429,0.00010708,0.00001904,0.00012
 659,0.00018853,0.00000730,0.00004398,-0.00006516,-0.00000448,-0.000047
 39,0.00001037,0.00000125,0.00000342,0.00000734,-0.00000103,0.00000752,
 0.00000732,0.00000224,0.00000533,0.00003637,-0.00011120,0.00007012,0.0
 0011446,-0.00004162,0.00003340,-0.00584450,0.00551930,0.01693372,-0.12
 223842,-0.05415897,0.11990659,-0.10503640,0.07434583,-0.08236210,-0.01
 469503,0.00372505,0.00017709,-0.00202486,0.00691526,0.01157013,0.00120
 485,-0.00267514,-0.00171686,-0.00388314,0.00316251,-0.00313486,0.01432
 493,-0.00769960,-0.00030440,-0.00025039,0.00004628,-0.00009544,-0.0047
 3666,0.00084555,0.00117883,-0.00526560,0.00267574,-0.00257974,-0.00618
 234,-0.00982859,0.00247873,-0.00072002,0.00177966,-0.00082768,0.000652
 09,-0.00002432,-0.00012092,-0.00075400,-0.00298355,0.00346100,-0.00059
 013,-0.00017878,0.00057942,-0.00000693,0.00039967,-0.00023135,0.000094
 19,0.00018312,-0.00034847,0.00034104,0.00002802,-0.00020420,-0.0001747
 0,-0.00008323,-0.00002416,0.00001876,-0.00000079,-0.00001031,-0.000000
 10,0.00001069,0.00000103,0.00000842,0.00001409,0.00002121,0.00133156,0
 .00182592,-0.00197031,-0.00059725,0.00046962,-0.00084259,0.00164281,-0
 .00358231,-0.00028440,0.00112783,-0.00105799,0.00014063,0.44573298,0.0
 7634409,-0.25299219,0.07474093,-0.00456067,0.01620265,-0.00676284,0.01
 953029,-0.04082844,0.01153532,0.00075249,0.00067054,0.00093181,-0.0004
 6354,-0.00657238,-0.00115513,-0.00421452,-0.00169642,0.00410617,0.0000
 2797,0.00024970,0.00024396,0.00205854,0.00118834,-0.00321627,0.0032199
 3,0.00083861,0.00081528,-0.00269378,-0.00181969,-0.00299931,-0.0019045
 4,-0.00080855,0.00134322,-0.00009355,-0.00001459,-0.00014145,-0.000851
 15,0.00223113,-0.00087908,-0.00147685,-0.00006570,-0.00062926,0.000178
 22,-0.00045460,-0.00004906,0.00071570,-0.00001693,0.00036174,0.0013760
 9,-0.00003845,0.00009772,-0.00035686,-0.00000037,-0.00026902,0.0000774
 8,0.00001234,0.00001774,0.00004491,0.00001245,0.00006423,0.00004357,-0
 .00000827,0.00004369,-0.00000816,-0.00152825,0.00074476,0.00108813,-0.
 00060205,-0.00012781,0.00003007,0.00170539,0.00065255,-0.00147928,0.00
 171527,0.00022012,-0.00471841,0.65971153,-0.06355615,0.04494268,-0.157
 99364,-0.01551739,0.02139617,-0.01318154,0.00608419,0.00840575,0.02034
 322,0.00068158,-0.00497854,-0.00154810,-0.00624281,0.00056496,-0.00501
 888,0.01504372,-0.00409037,-0.00123125,-0.00024852,0.00033327,-0.00001
 122,-0.00498907,0.00042062,0.00110357,-0.00448738,0.00465545,-0.003722
 22,-0.00687987,-0.01100650,0.00566389,-0.00075788,0.00266711,-0.001554
 39,0.00090826,-0.00005837,-0.00028266,0.00211029,-0.00128850,0.0041139
 1,-0.00023440,-0.00017109,0.00150313,-0.00023121,0.00025605,-0.0003101
 2,-0.00003978,0.00018371,-0.00096333,0.00010155,-0.00003501,-0.0004470
 4,-0.00005787,-0.00007044,0.00007164,0.00000173,0.00000190,-0.00002314
 ,-0.00002281,0.00001586,-0.00000580,-0.00000961,0.00000462,0.00000797,
 0.00036286,0.00115444,-0.00238533,-0.00254315,-0.00061273,-0.00087480,
 0.00323263,-0.00679150,-0.00045185,0.00187509,-0.00142050,-0.00048590,
 0.32995062,0.10406819,0.76125804,-0.02838185,0.01993024,-0.06175619,0.
 00553353,0.00662752,-0.00245678,-0.00191195,-0.00625713,-0.00173920,-0
 .00111325,0.00138410,-0.00014770,0.00174604,-0.00212982,0.00055955,-0.
 01055204,0.00215933,-0.00149688,-0.00009909,0.00011939,0.00007786,0.00
 328479,-0.00094474,0.00157588,0.00113149,-0.00627166,0.00472748,0.0031
 2203,0.00609324,-0.00233681,0.00148691,-0.00203659,0.00069415,-0.00075
 307,0.00001797,0.00033844,-0.00030759,0.00141539,-0.00308096,0.0010697
 5,0.00029095,-0.00022200,0.00001472,-0.00015125,0.00029655,0.00000152,
 -0.00014467,0.00021299,-0.00073388,-0.00004143,0.00012250,0.00026164,0
 .00008118,0.00010183,-0.00004189,-0.00000364,0.00000349,-0.00000953,-0
 .00001083,-0.00001729,-0.00002204,-0.00001342,-0.00002992,-0.00061611,
 -0.00088042,0.00144184,0.00090132,0.00011542,0.00071214,-0.00061664,0.
 00195745,0.00022835,-0.00031322,0.00064942,0.00002772,-0.23328572,-0.0
 8160762,-0.25292508,0.24987359,0.01464118,0.02655749,0.02902536,0.0049
 5943,-0.00353470,0.00173529,0.00254113,-0.00118176,-0.00170052,0.00082
 355,0.00076326,0.00282060,-0.00149607,0.00175290,0.00307197,-0.0031105
 7,0.00315069,-0.00283326,0.00074065,-0.00062752,0.00001538,0.00084315,
 -0.00129605,0.00218000,-0.00410394,-0.00426588,0.00323825,0.00280796,0
 .00046126,0.00072984,0.00175566,-0.00199260,0.00035041,-0.00072001,0.0
 0011680,0.00039354,0.00000113,-0.00127296,-0.00054060,0.00129263,0.000
 15730,0.00023471,-0.00002903,0.00023670,0.00009584,-0.00051628,-0.0001
 1499,-0.00007909,-0.00105109,0.00001611,0.00001328,0.00027711,0.000021
 35,0.00018007,-0.00005756,-0.00000733,-0.00000813,-0.00002996,-0.00001
 279,-0.00004467,-0.00003106,0.00000355,-0.00003499,0.00010590,0.000532
 45,0.00001616,0.00014552,0.00047918,0.00026675,-0.00020425,0.00013528,
 -0.00024391,0.00078176,0.00021674,-0.00038771,-0.06694766,-0.15121516,
 -0.11761296,0.07010799,0.14096339,-0.06258456,0.02981633,-0.05976020,-
 0.00253146,0.00500649,0.00280052,0.00397012,-0.00935239,-0.00555217,-0
 .00054368,0.00312100,0.00025458,0.00229788,-0.00261903,0.00123299,-0.0
 0698074,0.00167581,0.00236003,0.00018648,-0.00008010,0.00019580,0.0022
 8572,-0.00001406,-0.00149696,0.00460317,-0.00033745,0.00104217,0.00269
 326,0.00604551,-0.00607900,0.00003360,-0.00044140,0.00067789,-0.000243
 90,0.00000933,0.00000031,-0.00063885,0.00062588,-0.00139388,-0.0000861
 3,-0.00006864,-0.00133348,0.00007811,-0.00015125,0.00004678,0.00017360
 ,-0.00014308,0.00098627,0.00006936,0.00006169,0.00038747,-0.00000599,0
 .00003486,-0.00008404,0.00000790,-0.00000135,0.00002041,0.00002222,-0.
 00001347,0.00000604,0.00001391,0.00000178,-0.00000164,-0.00035513,-0.0
 0036219,0.00099720,0.00083619,0.00007932,0.00060744,-0.00102885,0.0026
 2043,0.00048468,-0.00098752,0.00092683,0.00033942,-0.25362934,-0.13653
 313,-0.49517858,0.33338242,0.12348082,0.57530092,0.00690869,0.02072943
 ,0.00094373,-0.00099187,0.00105872,0.00034060,0.00326482,0.00115411,-0
 .00445932,-0.00000978,-0.00035233,0.00015527,0.00081224,-0.00032202,-0
 .00005651,-0.00081888,0.00101059,0.00116561,-0.00004282,0.00003827,-0.
 00001567,0.00037219,0.00017417,-0.00080982,0.00047072,0.00037798,-0.00
 028388,-0.00017872,-0.00034730,-0.00015641,-0.00022562,-0.00009553,0.0
 0016953,-0.00001694,0.00001495,-0.00003841,-0.00020254,0.00011896,-0.0
 0005443,-0.00020732,-0.00002144,-0.00009517,0.00002359,-0.00004900,-0.
 00000624,0.00009239,0.00000232,0.00006375,0.00016849,0.00000296,0.0000
 1675,-0.00005029,-0.00000185,-0.00003525,0.00000960,0.00000050,0.00000
 231,0.00000607,0.00000138,0.00000698,0.00000583,0.00000005,0.00000630,
 0.00015811,-0.00006849,0.00001324,0.00022890,0.00020206,-0.00001344,-0
 .00020718,0.00026221,0.00005954,-0.00025931,-0.00000491,0.00002904,-0.
 08763384,-0.00828919,-0.00281932,0.01043000,-0.02202567,-0.02001698,0.
 58024127,0.00523687,-0.03497753,-0.00720375,-0.00065386,-0.00034323,-0
 .00053335,0.00286004,0.00197936,0.00138879,-0.00014197,-0.00005024,-0.
 00008383,-0.00121915,-0.00002915,-0.00049143,0.00075874,0.00029594,-0.
 00032767,0.00007309,-0.00001933,0.00003849,-0.00031294,-0.00016913,0.0
 0035515,-0.00046410,0.00001441,0.00012494,0.00031515,0.00021772,-0.000
 17021,0.00007158,0.00003066,-0.00005949,0.00000940,-0.00000239,0.00001
 850,0.00030449,-0.00006399,0.00011455,0.00023179,0.00001469,0.00003284
 ,-0.00003994,-0.00000059,-0.00001076,-0.00010096,-0.00000647,-0.000021
 25,-0.00019459,0.00000465,0.00000447,0.00005960,0.00000236,0.00003457,
 -0.00001109,-0.00000241,-0.00000077,-0.00000490,-0.00000279,-0.0000093
 7,-0.00000669,0.00000107,-0.00000710,-0.00008179,-0.00000989,-0.000136
 29,-0.00014427,-0.00013921,-0.00002472,0.00041334,-0.00076320,0.000002
 34,0.00034758,-0.00003300,-0.00006795,0.00031321,-0.20379639,-0.033659
 36,-0.00871130,-0.00593280,-0.01872275,0.00470313,0.52068627,-0.002257
 94,0.01598712,0.01250478,0.00209983,0.00029490,0.00047505,-0.00652434,
 0.00251039,0.00047039,-0.00022544,0.00059602,-0.00013486,0.00137097,0.
 00087705,0.00082613,-0.00102588,-0.00086198,-0.00071671,-0.00002648,-0
 .00005049,-0.00006218,0.00020310,-0.00011131,0.00047677,-0.00004511,-0
 .00045348,0.00059604,0.00092341,0.00098706,-0.00077518,0.00025515,-0.0
 0017328,0.00010375,-0.00006444,-0.00001400,0.00005102,-0.00041694,0.00
 012928,-0.00067852,0.00017181,0.00004476,-0.00006957,0.00003367,-0.000
 00987,0.00006790,-0.00006090,-0.00001578,0.00005037,-0.00013399,0.0000
 0148,0.00002974,0.00004355,0.00000648,0.00002052,-0.00000724,-0.000001
 12,0.00000043,-0.00000214,-0.00000206,-0.00000497,-0.00000368,-0.00000
 016,-0.00000500,-0.00008049,-0.00035847,0.00028973,0.00024023,0.000069
 92,0.00020229,-0.00058179,0.00094262,-0.00005180,-0.00020332,-0.000131
 38,0.00008391,-0.00101388,-0.03881851,-0.10212695,-0.01577218,-0.03849
 408,-0.01799762,0.03359794,-0.03872335,0.59065360,0.00073145,0.0002407
 5,0.00061781,-0.00039617,-0.00012132,0.00026837,0.00003974,0.00017040,
 -0.00007015,-0.00002299,-0.00000736,0.00001621,-0.00005434,0.00000690,
 0.00004772,-0.00005271,0.00006366,0.00003306,0.00000071,-0.00000078,-0
 .00000128,-0.00000637,-0.00002800,0.00001168,-0.00000900,-0.00003262,0
 .00004912,0.00011574,0.00018280,-0.00007608,0.00000987,-0.00001600,-0.
 00003402,-0.00000119,0.00001062,0.00002298,0.00029681,-0.00037464,0.00
 046498,0.00003217,-0.00001056,-0.00000953,-0.00003176,0.00004502,-0.00
 003890,-0.00001664,0.00000253,-0.00000190,-0.00002613,0.00000712,0.000
 00100,0.00000330,-0.00000190,0.00000483,-0.00000086,-0.00000053,-0.000
 00022,-0.00000082,-0.00000079,-0.00000203,-0.00000043,0.00000086,-0.00
 000065,-0.00062794,0.00007014,-0.00025750,-0.00035031,-0.00016443,-0.0
 0007759,0.00000350,0.00000283,-0.00000751,0.00004062,0.00001290,-0.000
 01878,0.00166499,0.00181303,-0.00172052,-0.00090043,-0.00079832,-0.000
 71291,-0.24320172,0.03646036,0.11994375,0.26134873,-0.00153032,-0.0027
 7309,0.00065523,0.00057288,-0.00022534,-0.00020445,-0.00137407,-0.0004
 5278,0.00121796,-0.00001974,0.00016795,-0.00001781,-0.00028604,0.00021
 568,0.00000765,0.00065497,-0.00040535,-0.00049410,0.00002539,-0.000024
 38,0.00000606,-0.00022944,-0.00005843,0.00037594,-0.00033927,0.0000406
 7,0.00017304,0.00021927,0.00017147,-0.00016145,0.00021274,-0.00006368,
 -0.00007660,0.00000166,0.00000291,0.00004031,-0.00088005,-0.00093997,-
 0.00005604,-0.00009317,0.00000457,-0.00009194,0.00007989,0.00014401,0.
 00001968,0.00001758,0.00000663,0.00008547,0.00001774,0.00001329,0.0000
 2094,-0.00003225,-0.00000273,-0.00001229,0.00000207,0.00000033,-0.0000
 0005,0.00000246,0.00000011,0.00000186,0.00000429,0.00000125,0.00000363
 ,0.00020831,0.00042612,-0.00010673,0.00043207,0.00045282,0.00015683,0.
 00006931,-0.00011058,-0.00002211,0.00009925,-0.00002233,-0.00000799,0.
 03094247,-0.00482190,-0.01860581,-0.00339138,-0.00060705,0.00187891,0.
 03940365,-0.05176639,-0.02564865,-0.04126097,0.05593245,-0.00047437,0.
 00033656,0.00000672,-0.00020266,-0.00010800,0.00006249,0.00012387,-0.0
 0010046,0.00003112,-0.00003189,0.00004433,-0.00002622,-0.00006594,-0.0
 0000710,0.00004584,-0.00002666,0.00006043,0.00000322,0.00000361,-0.000
 00206,0.00000095,0.00000973,-0.00003356,-0.00000777,-0.00007984,-0.000
 09843,0.00006460,0.00016012,0.00011934,-0.00008447,0.00003064,0.000010
 81,-0.00009668,-0.00001683,0.00002637,0.00002961,0.00055881,-0.0004600
 5,0.00088220,0.00003426,-0.00004869,0.00001117,-0.00004187,0.00006371,
 -0.00008022,-0.00002067,0.00001687,-0.00002352,-0.00002650,0.00001325,
 -0.00000702,0.00000156,-0.00000765,0.00000993,-0.00000066,-0.00000037,
 -0.00000062,-0.00000193,-0.00000066,-0.00000399,-0.00000066,0.00000237
 ,-0.00000102,0.00008816,0.00057191,-0.00050197,-0.00028061,0.00006269,
 -0.00042404,0.00001292,-0.00002351,-0.00000978,0.00002106,0.00001607,-
 0.00001043,0.01032660,-0.00104901,-0.00792477,-0.00244906,-0.00148933,
 0.00078574,0.12078434,-0.02422267,-0.11877023,-0.13147102,0.02731573,0
 .12516751,-0.00031167,0.00052242,0.00058752,0.00021076,-0.00050210,0.0
 0029931,0.00028629,-0.00024590,0.00010431,0.00001463,0.00005881,0.0000
 6049,-0.00003705,0.00001300,-0.00004311,-0.00007859,0.00010017,-0.0001
 4074,0.00001259,-0.00001359,0.00000634,0.00001480,-0.00005040,0.000113
 07,0.00002903,-0.00007249,0.00004745,0.00005043,0.00011614,-0.00000096
 ,0.00002839,-0.00002496,0.00001049,-0.00000379,-0.00000869,-0.00000397
 ,-0.00006701,0.00020603,-0.00030385,0.00003858,0.00001860,-0.00001810,
 0.00000309,-0.00001524,0.00002643,-0.00001285,-0.00001036,0.00001662,-
 0.00003155,-0.00000533,0.00001041,0.00001278,0.00000565,0.00000183,-0.
 00000220,0.00000008,0.00000044,-0.00000004,-0.00000033,0.00000018,-0.0
 0000082,-0.00000122,-0.00000133,-0.00007509,-0.00019104,0.00015774,0.0
 0007327,-0.00003038,0.00011508,0.00001164,-0.00003503,0.00000623,-0.00
 000677,-0.00002225,0.00001505,-0.00020193,0.00257199,0.00199377,0.0011
 5642,0.00012083,0.00036721,-0.22218631,-0.03069572,-0.13599946,-0.0186
 3508,-0.00394543,-0.01746350,0.23682892,0.00130245,-0.00000180,0.00041
 602,-0.00009584,-0.00183861,0.00034626,0.00000904,0.00058432,0.0000853
 5,-0.00008185,0.00023171,-0.00003062,-0.00000051,0.00004993,-0.0000130
 4,-0.00017830,0.00015692,-0.00015201,0.00001241,-0.00002354,0.00000291
 ,0.00004799,-0.00007587,0.00012591,-0.00001667,-0.00012560,0.00011437,
 0.00024920,0.00026748,-0.00015908,0.00007637,-0.00003820,-0.00000252,-
 0.00001909,0.00000223,0.00001238,0.00000642,-0.00002326,-0.00007264,0.
 00006296,0.00000546,-0.00001459,-0.00000058,0.00000794,0.00000945,-0.0
 0002566,-0.00000141,0.00001026,-0.00005374,0.00000276,0.00000698,0.000
 01508,0.00000060,0.00000977,-0.00000275,-0.00000027,-0.00000007,-0.000
 00136,-0.00000090,-0.00000261,-0.00000137,0.00000044,-0.00000214,-0.00
 004312,0.00001820,0.00003273,0.00002304,0.00002506,0.00003040,-0.00000
 993,0.00001074,0.00000220,0.00003298,-0.00000217,0.00000438,-0.0272696
 1,0.00377976,-0.01714995,-0.00000967,-0.00772817,-0.00517445,-0.027361
 31,-0.05721863,-0.01835479,0.00410658,-0.00000266,0.00453090,0.0308382
 6,0.05758322,0.00086717,0.00089036,0.00057891,0.00000795,0.00017482,0.
 00072631,0.00039064,-0.00020273,-0.00009837,-0.00001314,0.00005431,0.0
 0007054,-0.00012856,-0.00006599,0.00006112,-0.00010544,0.00015686,-0.0
 0002095,0.00001271,-0.00000449,-0.00000025,0.00003805,-0.00004828,0.00
 003220,-0.00001311,-0.00009256,0.00006401,0.00016642,0.00015312,-0.000
 11382,0.00003897,-0.00003307,-0.00000743,-0.00001428,0.00000512,0.0000
 1031,0.00002701,-0.00006406,0.00005404,0.00003230,0.00000290,-0.000012
 42,-0.00000357,0.00000700,-0.00000291,-0.00001306,-0.00000504,0.000006
 68,-0.00002849,-0.00000014,0.00000445,0.00000919,0.00000262,0.00000447
 ,-0.00000152,-0.00000007,0.00000011,-0.00000053,-0.00000031,-0.0000009
 4,-0.00000062,-0.00000048,-0.00000104,0.00002291,0.00006336,-0.0000210
 6,-0.00003673,0.00000192,-0.00001800,0.00001922,-0.00000408,-0.0000055
 9,0.00006845,0.00004231,-0.00003597,-0.00836802,0.00291740,-0.00985735
 ,-0.00084288,-0.00472562,-0.00001373,-0.13507609,-0.02166949,-0.150972
 11,0.01379155,0.00325440,0.01246441,0.14730601,0.02461325,0.15916084,0
 .00081470,0.00039746,-0.00004644,-0.00000537,-0.00030538,0.00033724,0.
 00001467,0.00032970,0.00013971,-0.00000327,0.00005896,0.00000030,0.000
 07551,0.00004524,-0.00003155,-0.00007131,0.00001598,-0.00005560,0.0000
 0062,-0.00000547,0.00000336,0.00000520,-0.00002990,0.00004337,-0.00001
 252,-0.00004825,0.00003328,0.00006476,0.00007899,0.00000891,0.00001459
 ,0.00000137,-0.00002109,-0.00000065,-0.00000074,0.00000387,0.00020083,
 0.00003683,0.00008978,0.00005280,-0.00000470,0.00002922,-0.00001512,0.
 00000242,-0.00000371,-0.00002077,0.00000992,-0.00002347,-0.00003489,0.
 00000433,-0.00000690,0.00001124,-0.00000526,0.00001075,-0.00000191,-0.
 00000061,-0.00000056,-0.00000202,-0.00000080,-0.00000351,-0.00000196,0
 .00000169,-0.00000194,-0.00007145,0.00002136,-0.00005502,-0.00015333,-
 0.00009946,-0.00001257,-0.00002358,-0.00000521,0.00000004,-0.00002857,
 -0.00003262,0.00002607,-0.00210539,0.00284562,0.00093653,-0.00035543,-
 0.00082410,-0.00067511,-0.04695978,-0.00937509,0.00556224,0.00004726,-
 0.01958389,0.02049897,0.00287912,0.01838857,-0.01815252,0.04568601,-0.
 00060959,-0.00530478,-0.00345573,-0.00047958,0.00014199,-0.00033650,0.
 00147370,-0.00038459,0.00054492,0.00000997,-0.00007308,0.00000233,-0.0
 0068311,-0.00009972,-0.00026738,0.00051916,0.00020226,-0.00012865,0.00
 003182,-0.00000218,0.00002149,-0.00015516,-0.00005932,0.00012109,-0.00
 017067,0.00001332,-0.00008828,-0.00006853,-0.00008004,0.00014372,0.000
 04090,0.00004503,-0.00006079,0.00001415,-0.00000137,-0.00000091,0.0000
 1152,-0.00005769,0.00000636,0.00003790,0.00000390,0.00004137,-0.000003
 96,0.00001439,0.00000465,-0.00002145,0.00000302,-0.00002398,-0.0000389
 4,-0.00000045,-0.00000990,0.00000956,-0.00000082,0.00000952,-0.0000023
 7,-0.00000006,-0.00000104,-0.00000186,0.00000020,-0.00000179,-0.000001
 34,0.00000007,-0.00000117,-0.00000789,0.00003557,-0.00001913,-0.000025
 97,0.00002564,0.00002346,0.00023840,-0.00040665,-0.00000449,0.00017324
 ,0.00002838,-0.00005293,-0.00063270,-0.02103737,0.02848086,0.00165597,
 0.00422531,-0.00137024,-0.01031640,-0.16792038,0.13977569,-0.00037829,
 0.00469642,-0.00553979,0.00129847,0.00435432,-0.00542333,0.00808305,0.
 18163868,0.00050049,-0.00202381,-0.00103600,-0.00006847,-0.00034090,0.
 00005022,0.00070629,-0.00042077,0.00023505,-0.00000481,0.00007935,0.00
 000044,-0.00021734,-0.00008110,-0.00008130,0.00007070,0.00011794,-0.00
 009067,0.00002043,-0.00000799,0.00001122,-0.00001707,-0.00002757,0.000
 07120,-0.00002693,-0.00002338,0.00001413,0.00003490,0.00005210,0.00001
 557,0.00003834,-0.00000247,-0.00000737,-0.00000244,-0.00000201,0.00000
 207,-0.00013966,-0.00005052,-0.00011450,-0.00000899,0.00000607,-0.0000
 1227,0.00001042,0.00000585,0.00000905,0.00000103,-0.00000303,0.0000130
 3,-0.00000142,-0.00000076,0.00000433,-0.00000332,0.00000183,-0.0000024
 2,0.00000004,0.00000023,-0.00000016,0.00000049,-0.00000004,0.00000121,
 0.00000062,-0.00000038,0.00000052,0.00003292,0.00000216,0.00004547,0.0
 0009245,0.00006170,0.00005914,0.00008163,-0.00013967,0.00000265,0.0000
 4126,0.00001662,-0.00000837,-0.00181625,-0.01027493,0.01151350,0.00076
 977,0.00034660,0.00036465,0.00658202,0.14403093,-0.21453672,-0.0007724
 8,0.01029239,-0.01159276,0.00272904,0.01077500,-0.01205644,-0.00863365
 ,-0.15238943,0.22712553\\-0.00000329,-0.00000012,0.00000119,0.00000060
 ,-0.00000299,0.00000247,-0.00000201,-0.00000296,-0.00000275,0.00000014
 ,0.00000368,-0.00000497,-0.00000010,-0.00000025,-0.00000719,0.00000743
 ,0.00000036,0.00000025,0.00000127,-0.00000598,-0.00000574,0.00000075,-
 0.00000476,-0.00000791,-0.00000699,-0.00000200,-0.00001117,0.00000219,
 0.00000593,0.00000020,0.00000065,-0.00000612,0.00000319,0.00000223,-0.
 00000387,-0.00000304,-0.00000419,-0.00000874,0.00000042,-0.00000815,0.
 00000417,-0.00000444,-0.00000077,-0.00000576,0.00000528,0.00000120,0.0
 0000681,-0.00000081,0.00000416,0.00000099,-0.00000488,0.00000051,0.000
 00237,-0.00000110,-0.00000028,0.00000067,-0.00000035,-0.00000075,0.000
 00581,0.00000108,-0.00000014,0.00000336,-0.00000519,0.00000124,0.00000
 183,0.00000473,0.00000173,-0.00000405,0.00000399,-0.00000178,0.0000007
 0,-0.00000988,0.00000134,0.00000121,-0.00000562,0.00000534,0.00000550,
 0.00001398,-0.00000268,0.00000611,-0.00000391,-0.00000020,0.00000223,0
 .00000509,0.00000223,-0.00000147,0.00001345,0.00000035,-0.00000382,0.0
 0001234,-0.00000202,0.00000116,0.00001130\\\@


 IF YOU'RE NOT PART OF THE SOLUTION,
 THEN YOU'RE PART OF THE PRECIPITATE.
 Job cpu time:       0 days  1 hours 53 minutes 41.9 seconds.
 Elapsed time:       0 days  0 hours  7 minutes 11.2 seconds.
 File lengths (MBytes):  RWF=    472 Int=      0 D2E=      0 Chk=     17 Scr=      1
 Normal termination of Gaussian 16 at Mon Dec 30 11:41:43 2019.
