 Entering Gaussian System, Link 0=g16
 Input=conformer_final_06.gjf
 Output=conformer_final_06.out
 Initial command:
 /n/sw/g16_nehalem/g16/l1.exe "/scratch/cwagen_conformer_final_06/Gau-325682.inp" -scrdir="/scratch/cwagen_conformer_final_06/"
 Entering Link 1 = /n/sw/g16_nehalem/g16/l1.exe PID=    325683.
  
 Copyright (c) 1988,1990,1992,1993,1995,1998,2003,2009,2016,
            Gaussian, Inc.  All Rights Reserved.
  
 This is part of the Gaussian(R) 16 program.  It is based on
 the Gaussian(R) 09 system (copyright 2009, Gaussian, Inc.),
 the Gaussian(R) 03 system (copyright 2003, Gaussian, Inc.),
 the Gaussian(R) 98 system (copyright 1998, Gaussian, Inc.),
 the Gaussian(R) 94 system (copyright 1995, Gaussian, Inc.),
 the Gaussian 92(TM) system (copyright 1992, Gaussian, Inc.),
 the Gaussian 90(TM) system (copyright 1990, Gaussian, Inc.),
 the Gaussian 88(TM) system (copyright 1988, Gaussian, Inc.),
 the Gaussian 86(TM) system (copyright 1986, Carnegie Mellon
 University), and the Gaussian 82(TM) system (copyright 1983,
 Carnegie Mellon University). Gaussian is a federally registered
 trademark of Gaussian, Inc.
  
 This software contains proprietary and confidential information,
 including trade secrets, belonging to Gaussian, Inc.
  
 This software is provided under written license and may be
 used, copied, transmitted, or stored only in accord with that
 written license.
  
 The following legend is applicable only to US Government
 contracts under FAR:
  
                    RESTRICTED RIGHTS LEGEND
  
 Use, reproduction and disclosure by the US Government is
 subject to restrictions as set forth in subparagraphs (a)
 and (c) of the Commercial Computer Software - Restricted
 Rights clause in FAR 52.227-19.
  
 Gaussian, Inc.
 340 Quinnipiac St., Bldg. 40, Wallingford CT 06492
  
  
 ---------------------------------------------------------------
 Warning -- This program may not be used in any manner that
 competes with the business of Gaussian, Inc. or will provide
 assistance to any competitor of Gaussian, Inc.  The licensee
 of this program is prohibited from giving any competitor of
 Gaussian, Inc. access to this program.  By using this program,
 the user acknowledges that Gaussian, Inc. is engaged in the
 business of creating and licensing software in the field of
 computational chemistry and represents and warrants to the
 licensee that it is not a competitor of Gaussian, Inc. and that
 it will not use this program in any manner prohibited above.
 ---------------------------------------------------------------
  

 Cite this work as:
 Gaussian 16, Revision A.03,
 M. J. Frisch, G. W. Trucks, H. B. Schlegel, G. E. Scuseria, 
 M. A. Robb, J. R. Cheeseman, G. Scalmani, V. Barone, 
 G. A. Petersson, H. Nakatsuji, X. Li, M. Caricato, A. V. Marenich, 
 J. Bloino, B. G. Janesko, R. Gomperts, B. Mennucci, H. P. Hratchian, 
 J. V. Ortiz, A. F. Izmaylov, J. L. Sonnenberg, D. Williams-Young, 
 F. Ding, F. Lipparini, F. Egidi, J. Goings, B. Peng, A. Petrone, 
 T. Henderson, D. Ranasinghe, V. G. Zakrzewski, J. Gao, N. Rega, 
 G. Zheng, W. Liang, M. Hada, M. Ehara, K. Toyota, R. Fukuda, 
 J. Hasegawa, M. Ishida, T. Nakajima, Y. Honda, O. Kitao, H. Nakai, 
 T. Vreven, K. Throssell, J. A. Montgomery, Jr., J. E. Peralta, 
 F. Ogliaro, M. J. Bearpark, J. J. Heyd, E. N. Brothers, K. N. Kudin, 
 V. N. Staroverov, T. A. Keith, R. Kobayashi, J. Normand, 
 K. Raghavachari, A. P. Rendell, J. C. Burant, S. S. Iyengar, 
 J. Tomasi, M. Cossi, J. M. Millam, M. Klene, C. Adamo, R. Cammi, 
 J. W. Ochterski, R. L. Martin, K. Morokuma, O. Farkas, 
 J. B. Foresman, and D. J. Fox, Gaussian, Inc., Wallingford CT, 2016.
 
 ******************************************
 Gaussian 16:  ES64L-G16RevA.03 25-Dec-2016
                30-Dec-2019 
 ******************************************
 %nprocshared=16
 Will use up to   16 processors via shared memory.
 %mem=32GB
 ------------------------------------------------------------------
 #p opt freq=noraman m062x/6-31g(d) scrf=(smd,solvent=diethylether)
 ------------------------------------------------------------------
 1/18=20,19=15,26=3,38=1/1,3;
 2/9=110,12=2,17=6,18=5,40=1/2;
 3/5=1,6=6,7=1,11=2,25=1,30=1,70=32201,71=1,72=8,74=-55/1,2,3;
 4//1;
 5/5=2,38=5,53=8/2;
 6/7=2,8=2,9=2,10=2,28=1/1;
 7//1,2,3,16;
 1/18=20,19=15,26=3/3(2);
 2/9=110/2;
 99//99;
 2/9=110/2;
 3/5=1,6=6,7=1,11=2,25=1,30=1,70=32205,71=1,72=8,74=-55/1,2,3;
 4/5=5,16=3,69=1/1;
 5/5=2,38=5,53=8/2;
 7//1,2,3,16;
 1/18=20,19=15,26=3/3(-5);
 2/9=110/2;
 6/7=2,8=2,9=2,10=2,19=2,28=1/1;
 99/9=1/99;
 Leave Link    1 at Mon Dec 30 11:32:50 2019, MaxMem=  4294967296 cpu:               1.0 elap:               0.1
 (Enter /n/sw/g16_nehalem/g16/l101.exe)
 -----
 title
 -----
 Symbolic Z-matrix:
 Charge =  0 Multiplicity = 1
 7                     1.53593   1.23746   0.49623 
 1                     1.92378   1.42235   1.41481 
 6                     1.59443  -0.11967   0.00733 
 1                     1.13588  -0.13234  -0.9826 
 6                     3.03735  -0.56356  -0.16593 
 6                     0.91352  -1.05411   1.01214 
 1                     3.61766  -0.5528    0.75839 
 8                     1.53412  -1.4306    1.99213 
 7                    -0.37641  -1.43222   0.78594 
 1                    -0.79684  -1.88558   1.59436 
 6                    -1.30951  -0.82357  -0.13108 
 1                    -0.83591  -0.6002   -1.09062 
 6                    -2.41234  -1.84415  -0.38732 
 6                    -1.85741   0.49647   0.42791 
 1                    -2.00342  -2.81755  -0.66847 
 8                    -1.49631   0.97159   1.4772 
 8                    -2.73979   1.04006  -0.39633 
 6                    -3.17384   2.35871  -0.04442 
 1                    -3.91625   2.6343   -0.79165 
 1                    -3.61428   2.36472   0.95433 
 1                    -2.32162   3.04138  -0.0846 
 9                    -3.25956  -1.42075  -1.34795 
 9                    -3.12993  -1.99121   0.7644 
 9                     3.03233  -1.82751  -0.66927 
 9                     3.64005   0.23956  -1.07847 
 6                     0.69686   2.16256  -0.05803 
 8                     0.04553   1.92755  -1.0674 
 6                     0.6078    3.46758   0.69131 
 1                    -0.17975   3.36875   1.44642 
 1                     1.54363   3.72268   1.19439 
 1                     0.33216   4.26123  -0.00429 
 
 ITRead=  0  0  0  0  0  0  0  0  0  0  0  0  0  0  0  0  0  0  0  0
 ITRead=  0  0  0  0  0  0  0  0  0  0  0
 MicOpt= -1 -1 -1 -1 -1 -1 -1 -1 -1 -1 -1 -1 -1 -1 -1 -1 -1 -1 -1 -1
 MicOpt= -1 -1 -1 -1 -1 -1 -1 -1 -1 -1 -1
 NAtoms=     31 NQM=       31 NQMF=       0 NMMI=      0 NMMIF=      0
                NMic=       0 NMicF=      0.
                    Isotopes and Nuclear Properties:
 (Nuclear quadrupole moments (NQMom) in fm**2, nuclear magnetic moments (NMagM)
  in nuclear magnetons)

  Atom         1           2           3           4           5           6           7           8           9          10
 IAtWgt=          14           1          12           1          12          12           1          16          14           1
 AtmWgt=  14.0030740   1.0078250  12.0000000   1.0078250  12.0000000  12.0000000   1.0078250  15.9949146  14.0030740   1.0078250
 NucSpn=           2           1           0           1           0           0           1           0           2           1
 AtZEff=   0.0000000   0.0000000   0.0000000   0.0000000   0.0000000   0.0000000   0.0000000   0.0000000   0.0000000   0.0000000
 NQMom=    2.0440000   0.0000000   0.0000000   0.0000000   0.0000000   0.0000000   0.0000000   0.0000000   2.0440000   0.0000000
 NMagM=    0.4037610   2.7928460   0.0000000   2.7928460   0.0000000   0.0000000   2.7928460   0.0000000   0.4037610   2.7928460
 AtZNuc=   7.0000000   1.0000000   6.0000000   1.0000000   6.0000000   6.0000000   1.0000000   8.0000000   7.0000000   1.0000000

  Atom        11          12          13          14          15          16          17          18          19          20
 IAtWgt=          12           1          12          12           1          16          16          12           1           1
 AtmWgt=  12.0000000   1.0078250  12.0000000  12.0000000   1.0078250  15.9949146  15.9949146  12.0000000   1.0078250   1.0078250
 NucSpn=           0           1           0           0           1           0           0           0           1           1
 AtZEff=   0.0000000   0.0000000   0.0000000   0.0000000   0.0000000   0.0000000   0.0000000   0.0000000   0.0000000   0.0000000
 NQMom=    0.0000000   0.0000000   0.0000000   0.0000000   0.0000000   0.0000000   0.0000000   0.0000000   0.0000000   0.0000000
 NMagM=    0.0000000   2.7928460   0.0000000   0.0000000   2.7928460   0.0000000   0.0000000   0.0000000   2.7928460   2.7928460
 AtZNuc=   6.0000000   1.0000000   6.0000000   6.0000000   1.0000000   8.0000000   8.0000000   6.0000000   1.0000000   1.0000000

  Atom        21          22          23          24          25          26          27          28          29          30
 IAtWgt=           1          19          19          19          19          12          16          12           1           1
 AtmWgt=   1.0078250  18.9984033  18.9984033  18.9984033  18.9984033  12.0000000  15.9949146  12.0000000   1.0078250   1.0078250
 NucSpn=           1           1           1           1           1           0           0           0           1           1
 AtZEff=   0.0000000   0.0000000   0.0000000   0.0000000   0.0000000   0.0000000   0.0000000   0.0000000   0.0000000   0.0000000
 NQMom=    0.0000000   0.0000000   0.0000000   0.0000000   0.0000000   0.0000000   0.0000000   0.0000000   0.0000000   0.0000000
 NMagM=    2.7928460   2.6288670   2.6288670   2.6288670   2.6288670   0.0000000   0.0000000   0.0000000   2.7928460   2.7928460
 AtZNuc=   1.0000000   9.0000000   9.0000000   9.0000000   9.0000000   6.0000000   8.0000000   6.0000000   1.0000000   1.0000000

  Atom        31
 IAtWgt=           1
 AtmWgt=   1.0078250
 NucSpn=           1
 AtZEff=   0.0000000
 NQMom=    0.0000000
 NMagM=    2.7928460
 AtZNuc=   1.0000000
 Leave Link  101 at Mon Dec 30 11:32:51 2019, MaxMem=  4294967296 cpu:               5.1 elap:               0.4
 (Enter /n/sw/g16_nehalem/g16/l103.exe)

 GradGradGradGradGradGradGradGradGradGradGradGradGradGradGradGradGradGrad
 Berny optimization.
 Initialization pass.
                           ----------------------------
                           !    Initial Parameters    !
                           ! (Angstroms and Degrees)  !
 --------------------------                            --------------------------
 ! Name  Definition              Value          Derivative Info.                !
 --------------------------------------------------------------------------------
 ! R1    R(1,2)                  1.0141         estimate D2E/DX2                !
 ! R2    R(1,3)                  1.4437         estimate D2E/DX2                !
 ! R3    R(1,26)                 1.3664         estimate D2E/DX2                !
 ! R4    R(3,4)                  1.091          estimate D2E/DX2                !
 ! R5    R(3,5)                  1.5196         estimate D2E/DX2                !
 ! R6    R(3,6)                  1.5318         estimate D2E/DX2                !
 ! R7    R(5,7)                  1.0914         estimate D2E/DX2                !
 ! R8    R(5,24)                 1.3605         estimate D2E/DX2                !
 ! R9    R(5,25)                 1.3568         estimate D2E/DX2                !
 ! R10   R(6,8)                  1.2195         estimate D2E/DX2                !
 ! R11   R(6,9)                  1.3631         estimate D2E/DX2                !
 ! R12   R(9,10)                 1.0178         estimate D2E/DX2                !
 ! R13   R(9,11)                 1.4429         estimate D2E/DX2                !
 ! R14   R(11,12)                1.0931         estimate D2E/DX2                !
 ! R15   R(11,13)                1.5243         estimate D2E/DX2                !
 ! R16   R(11,14)                1.5347         estimate D2E/DX2                !
 ! R17   R(13,15)                1.0926         estimate D2E/DX2                !
 ! R18   R(13,22)                1.349          estimate D2E/DX2                !
 ! R19   R(13,23)                1.3649         estimate D2E/DX2                !
 ! R20   R(14,16)                1.2071         estimate D2E/DX2                !
 ! R21   R(14,17)                1.3242         estimate D2E/DX2                !
 ! R22   R(17,18)                1.4322         estimate D2E/DX2                !
 ! R23   R(18,19)                1.0888         estimate D2E/DX2                !
 ! R24   R(18,20)                1.0916         estimate D2E/DX2                !
 ! R25   R(18,21)                1.0927         estimate D2E/DX2                !
 ! R26   R(26,27)                1.2241         estimate D2E/DX2                !
 ! R27   R(26,28)                1.5075         estimate D2E/DX2                !
 ! R28   R(28,29)                1.0955         estimate D2E/DX2                !
 ! R29   R(28,30)                1.0927         estimate D2E/DX2                !
 ! R30   R(28,31)                1.0907         estimate D2E/DX2                !
 ! A1    A(2,1,3)              117.5573         estimate D2E/DX2                !
 ! A2    A(2,1,26)             118.6104         estimate D2E/DX2                !
 ! A3    A(3,1,26)             121.5978         estimate D2E/DX2                !
 ! A4    A(1,3,4)              107.5263         estimate D2E/DX2                !
 ! A5    A(1,3,5)              110.5907         estimate D2E/DX2                !
 ! A6    A(1,3,6)              109.4686         estimate D2E/DX2                !
 ! A7    A(4,3,5)              106.9929         estimate D2E/DX2                !
 ! A8    A(4,3,6)              113.6567         estimate D2E/DX2                !
 ! A9    A(5,3,6)              108.5835         estimate D2E/DX2                !
 ! A10   A(3,5,7)              113.9191         estimate D2E/DX2                !
 ! A11   A(3,5,24)             108.0634         estimate D2E/DX2                !
 ! A12   A(3,5,25)             109.0004         estimate D2E/DX2                !
 ! A13   A(7,5,24)             108.9314         estimate D2E/DX2                !
 ! A14   A(7,5,25)             109.1206         estimate D2E/DX2                !
 ! A15   A(24,5,25)            107.6204         estimate D2E/DX2                !
 ! A16   A(3,6,8)              119.2901         estimate D2E/DX2                !
 ! A17   A(3,6,9)              118.7514         estimate D2E/DX2                !
 ! A18   A(8,6,9)              121.9567         estimate D2E/DX2                !
 ! A19   A(6,9,10)             112.4988         estimate D2E/DX2                !
 ! A20   A(6,9,11)             126.899          estimate D2E/DX2                !
 ! A21   A(10,9,11)            115.187          estimate D2E/DX2                !
 ! A22   A(9,11,12)            111.3392         estimate D2E/DX2                !
 ! A23   A(9,11,13)            106.9941         estimate D2E/DX2                !
 ! A24   A(9,11,14)            111.2361         estimate D2E/DX2                !
 ! A25   A(12,11,13)           107.621          estimate D2E/DX2                !
 ! A26   A(12,11,14)           107.3766         estimate D2E/DX2                !
 ! A27   A(13,11,14)           112.2613         estimate D2E/DX2                !
 ! A28   A(11,13,15)           111.6522         estimate D2E/DX2                !
 ! A29   A(11,13,22)           111.3424         estimate D2E/DX2                !
 ! A30   A(11,13,23)           108.0996         estimate D2E/DX2                !
 ! A31   A(15,13,22)           109.3553         estimate D2E/DX2                !
 ! A32   A(15,13,23)           108.5364         estimate D2E/DX2                !
 ! A33   A(22,13,23)           107.728          estimate D2E/DX2                !
 ! A34   A(11,14,16)           123.2554         estimate D2E/DX2                !
 ! A35   A(11,14,17)           111.3633         estimate D2E/DX2                !
 ! A36   A(16,14,17)           125.3682         estimate D2E/DX2                !
 ! A37   A(14,17,18)           115.276          estimate D2E/DX2                !
 ! A38   A(17,18,19)           105.7279         estimate D2E/DX2                !
 ! A39   A(17,18,20)           110.6208         estimate D2E/DX2                !
 ! A40   A(17,18,21)           109.2591         estimate D2E/DX2                !
 ! A41   A(19,18,20)           110.5737         estimate D2E/DX2                !
 ! A42   A(19,18,21)           110.3916         estimate D2E/DX2                !
 ! A43   A(20,18,21)           110.1765         estimate D2E/DX2                !
 ! A44   A(1,26,27)            122.0908         estimate D2E/DX2                !
 ! A45   A(1,26,28)            114.8818         estimate D2E/DX2                !
 ! A46   A(27,26,28)           123.0023         estimate D2E/DX2                !
 ! A47   A(26,28,29)           107.8781         estimate D2E/DX2                !
 ! A48   A(26,28,30)           112.3559         estimate D2E/DX2                !
 ! A49   A(26,28,31)           109.1367         estimate D2E/DX2                !
 ! A50   A(29,28,30)           108.6266         estimate D2E/DX2                !
 ! A51   A(29,28,31)           108.8778         estimate D2E/DX2                !
 ! A52   A(30,28,31)           109.8879         estimate D2E/DX2                !
 ! D1    D(2,1,3,4)            179.9351         estimate D2E/DX2                !
 ! D2    D(2,1,3,5)            -63.575          estimate D2E/DX2                !
 ! D3    D(2,1,3,6)             56.0214         estimate D2E/DX2                !
 ! D4    D(26,1,3,4)            17.1594         estimate D2E/DX2                !
 ! D5    D(26,1,3,5)           133.6493         estimate D2E/DX2                !
 ! D6    D(26,1,3,6)          -106.7543         estimate D2E/DX2                !
 ! D7    D(2,1,26,27)         -169.3972         estimate D2E/DX2                !
 ! D8    D(2,1,26,28)            8.8308         estimate D2E/DX2                !
 ! D9    D(3,1,26,27)           -6.7967         estimate D2E/DX2                !
 ! D10   D(3,1,26,28)          171.4313         estimate D2E/DX2                !
 ! D11   D(1,3,5,7)             60.8284         estimate D2E/DX2                !
 ! D12   D(1,3,5,24)          -177.9753         estimate D2E/DX2                !
 ! D13   D(1,3,5,25)           -61.2923         estimate D2E/DX2                !
 ! D14   D(4,3,5,7)            177.6485         estimate D2E/DX2                !
 ! D15   D(4,3,5,24)           -61.1552         estimate D2E/DX2                !
 ! D16   D(4,3,5,25)            55.5277         estimate D2E/DX2                !
 ! D17   D(6,3,5,7)            -59.2995         estimate D2E/DX2                !
 ! D18   D(6,3,5,24)            61.8968         estimate D2E/DX2                !
 ! D19   D(6,3,5,25)           178.5797         estimate D2E/DX2                !
 ! D20   D(1,3,6,8)            -81.3015         estimate D2E/DX2                !
 ! D21   D(1,3,6,9)             98.2278         estimate D2E/DX2                !
 ! D22   D(4,3,6,8)            158.4622         estimate D2E/DX2                !
 ! D23   D(4,3,6,9)            -22.0086         estimate D2E/DX2                !
 ! D24   D(5,3,6,8)             39.5216         estimate D2E/DX2                !
 ! D25   D(5,3,6,9)           -140.9491         estimate D2E/DX2                !
 ! D26   D(3,6,9,10)          -168.0146         estimate D2E/DX2                !
 ! D27   D(3,6,9,11)           -15.518          estimate D2E/DX2                !
 ! D28   D(8,6,9,10)            11.5014         estimate D2E/DX2                !
 ! D29   D(8,6,9,11)           163.9981         estimate D2E/DX2                !
 ! D30   D(6,9,11,12)           43.5909         estimate D2E/DX2                !
 ! D31   D(6,9,11,13)          160.9288         estimate D2E/DX2                !
 ! D32   D(6,9,11,14)          -76.132          estimate D2E/DX2                !
 ! D33   D(10,9,11,12)        -164.5394         estimate D2E/DX2                !
 ! D34   D(10,9,11,13)         -47.2015         estimate D2E/DX2                !
 ! D35   D(10,9,11,14)          75.7377         estimate D2E/DX2                !
 ! D36   D(9,11,13,15)         -50.7715         estimate D2E/DX2                !
 ! D37   D(9,11,13,22)        -173.3161         estimate D2E/DX2                !
 ! D38   D(9,11,13,23)          68.5427         estimate D2E/DX2                !
 ! D39   D(12,11,13,15)         68.9844         estimate D2E/DX2                !
 ! D40   D(12,11,13,22)        -53.5601         estimate D2E/DX2                !
 ! D41   D(12,11,13,23)       -171.7014         estimate D2E/DX2                !
 ! D42   D(14,11,13,15)       -173.0717         estimate D2E/DX2                !
 ! D43   D(14,11,13,22)         64.3837         estimate D2E/DX2                !
 ! D44   D(14,11,13,23)        -53.7575         estimate D2E/DX2                !
 ! D45   D(9,11,14,16)           2.8609         estimate D2E/DX2                !
 ! D46   D(9,11,14,17)        -178.3943         estimate D2E/DX2                !
 ! D47   D(12,11,14,16)       -119.19           estimate D2E/DX2                !
 ! D48   D(12,11,14,17)         59.5548         estimate D2E/DX2                !
 ! D49   D(13,11,14,16)        122.7214         estimate D2E/DX2                !
 ! D50   D(13,11,14,17)        -58.5339         estimate D2E/DX2                !
 ! D51   D(11,14,17,18)       -172.1041         estimate D2E/DX2                !
 ! D52   D(16,14,17,18)          6.6087         estimate D2E/DX2                !
 ! D53   D(14,17,18,19)       -177.7161         estimate D2E/DX2                !
 ! D54   D(14,17,18,20)        -57.9778         estimate D2E/DX2                !
 ! D55   D(14,17,18,21)         63.4783         estimate D2E/DX2                !
 ! D56   D(1,26,28,29)         -88.1149         estimate D2E/DX2                !
 ! D57   D(1,26,28,30)          31.5907         estimate D2E/DX2                !
 ! D58   D(1,26,28,31)         153.7349         estimate D2E/DX2                !
 ! D59   D(27,26,28,29)         90.095          estimate D2E/DX2                !
 ! D60   D(27,26,28,30)       -150.1994         estimate D2E/DX2                !
 ! D61   D(27,26,28,31)        -28.0552         estimate D2E/DX2                !
 --------------------------------------------------------------------------------
 Trust Radius=3.00D-01 FncErr=1.00D-07 GrdErr=1.00D-06 EigMax=2.50D+02 EigMin=1.00D-04
 Number of steps in this run=    153 maximum allowed number of steps=    186.
 GradGradGradGradGradGradGradGradGradGradGradGradGradGradGradGradGradGrad

 Leave Link  103 at Mon Dec 30 11:32:51 2019, MaxMem=  4294967296 cpu:               0.8 elap:               0.1
 (Enter /n/sw/g16_nehalem/g16/l202.exe)
                          Input orientation:                          
 ---------------------------------------------------------------------
 Center     Atomic      Atomic             Coordinates (Angstroms)
 Number     Number       Type             X           Y           Z
 ---------------------------------------------------------------------
      1          7           0        1.535932    1.237464    0.496230
      2          1           0        1.923777    1.422349    1.414814
      3          6           0        1.594433   -0.119673    0.007325
      4          1           0        1.135877   -0.132342   -0.982596
      5          6           0        3.037347   -0.563559   -0.165927
      6          6           0        0.913518   -1.054112    1.012140
      7          1           0        3.617663   -0.552803    0.758386
      8          8           0        1.534116   -1.430601    1.992128
      9          7           0       -0.376413   -1.432223    0.785939
     10          1           0       -0.796838   -1.885583    1.594357
     11          6           0       -1.309506   -0.823572   -0.131083
     12          1           0       -0.835907   -0.600203   -1.090619
     13          6           0       -2.412340   -1.844153   -0.387318
     14          6           0       -1.857413    0.496470    0.427909
     15          1           0       -2.003421   -2.817546   -0.668468
     16          8           0       -1.496313    0.971588    1.477204
     17          8           0       -2.739791    1.040057   -0.396329
     18          6           0       -3.173840    2.358710   -0.044417
     19          1           0       -3.916250    2.634298   -0.791651
     20          1           0       -3.614284    2.364717    0.954328
     21          1           0       -2.321621    3.041382   -0.084601
     22          9           0       -3.259557   -1.420755   -1.347947
     23          9           0       -3.129934   -1.991212    0.764395
     24          9           0        3.032334   -1.827514   -0.669275
     25          9           0        3.640055    0.239556   -1.078474
     26          6           0        0.696864    2.162562   -0.058034
     27          8           0        0.045526    1.927545   -1.067405
     28          6           0        0.607797    3.467583    0.691309
     29          1           0       -0.179745    3.368749    1.446418
     30          1           0        1.543632    3.722675    1.194389
     31          1           0        0.332165    4.261229   -0.004292
 ---------------------------------------------------------------------
                    Distance matrix (angstroms):
                    1          2          3          4          5
     1  N    0.000000
     2  H    1.014102   0.000000
     3  C    1.443701   2.113605   0.000000
     4  H    2.055076   2.964022   1.091044   0.000000
     5  C    2.436469   2.771752   1.519556   2.113879   0.000000
     6  C    2.429996   2.704742   1.531821   2.208636   2.477728
     7  H    2.758149   2.683537   2.201171   3.060567   1.091438
     8  O    3.058804   2.936742   2.379414   3.270023   2.769236
     9  N    3.296699   3.719535   2.492641   2.665413   3.648888
    10  H    4.049830   4.286770   3.369760   3.667414   4.421235
    11  C    3.569021   4.229430   2.991236   2.680069   4.354762
    12  H    3.394220   4.240727   2.709786   2.029408   3.982273
    13  C    5.085850   5.720107   4.379932   3.984281   5.602502
    14  C    3.473979   4.016047   3.531538   3.368191   5.043310
    15  H    5.506964   6.143261   4.547501   4.142969   5.544578
    16  O    3.198048   3.450231   3.592229   3.767984   5.060694
    17  O    4.372349   5.017495   4.504821   4.091336   5.999999
    18  C    4.871493   5.384406   5.374150   5.065489   6.865367
    19  H    5.773740   6.359499   6.212113   5.763223   7.679214
    20  H    5.292001   5.636508   5.848054   5.705349   7.353500
    21  H    4.297930   4.784654   5.033508   4.778411   6.459160
    22  F    5.784793   6.525568   5.204882   4.594924   6.463974
    23  F    5.680367   6.133143   5.137651   4.970364   6.398363
    24  F    3.604402   4.016707   2.332824   2.562875   1.360502
    25  F    2.811200   3.249784   2.343624   2.533458   1.356832
    26  C    1.366400   2.054875   2.453263   2.512794   3.594612
    27  O    2.267703   3.153484   2.783031   2.332208   3.996155
    28  C    2.423411   2.537370   3.782815   4.005033   4.784106
    29  H    2.896339   2.866056   4.169866   4.459665   5.330327
    30  H    2.581426   2.341922   4.021858   4.445974   4.738507
    31  H    3.292830   3.550539   4.559140   4.572362   5.533779
                    6          7          8          9         10
     6  C    0.000000
     7  H    2.761902   0.000000
     8  O    1.219534   2.575620   0.000000
     9  N    1.363106   4.089839   2.259428   0.000000
    10  H    1.988879   4.686467   2.408023   1.017758   0.000000
    11  C    2.510367   5.014127   3.600374   1.442930   2.089938
    12  H    2.772745   4.822380   3.976166   2.103536   2.977050
    13  C    3.693776   6.272253   4.626803   2.385627   2.557068
    14  C    3.228574   5.584501   4.202720   2.457927   2.856501
    15  H    3.800352   6.225878   4.638594   2.584874   2.728511
    16  O    3.182300   5.384535   3.901174   2.740498   2.943878
    17  O    4.440270   6.654907   5.484082   3.618768   4.036987
    18  C    5.428643   7.432759   6.377401   4.783959   5.133200
    19  H    6.339139   8.325868   7.347062   5.617458   5.987745
    20  H    5.673863   7.800729   6.479775   4.992887   5.139328
    21  H    5.333108   6.993131   6.259245   4.955282   5.423914
    22  F    4.808221   7.244731   5.842559   3.586937   3.864997
    23  F    4.158009   6.899212   4.855407   2.809771   2.478574
    24  F    2.813306   2.001428   3.079815   3.727393   4.448591
    25  F    3.671273   2.000597   4.080809   4.733170   5.598773
    26  C    3.396940   4.070727   4.220779   3.845347   4.620500
    27  O    3.737405   4.716546   4.780563   3.860176   4.725939
    28  C    4.543360   5.022678   5.151932   4.998572   5.607574
    29  H    4.576628   5.502024   5.125317   4.850180   5.292513
    30  H    4.821613   4.771940   5.214665   5.516011   6.090183
    31  H    5.442789   5.878017   6.150391   5.791541   6.450862
                   11         12         13         14         15
    11  C    0.000000
    12  H    1.093114   0.000000
    13  C    1.524298   2.127718   0.000000
    14  C    1.534661   2.133564   2.539893   0.000000
    15  H    2.178585   2.541242   1.092591   3.493718   0.000000
    16  O    2.417454   3.082268   3.499135   1.207125   4.383903
    17  O    2.364145   2.607157   2.902753   1.324177   3.936674
    18  C    3.689197   3.913520   4.285035   2.328950   5.343496
    19  H    4.380449   4.476594   4.741493   3.208807   5.778987
    20  H    4.081091   4.548839   4.578130   2.618026   5.664291
    21  H    3.995548   4.059626   4.895745   2.637183   5.896540
    22  F    2.374886   2.571693   1.349018   2.965708   1.997647
    23  F    2.340774   3.261678   1.364921   2.814444   2.001239
    24  F    4.488778   4.080087   5.451995   5.523979   5.132153
    25  F    5.150334   4.554073   6.438247   5.705905   6.431392
    26  C    3.598313   3.323927   5.082258   3.088096   5.697863
    27  O    3.206471   2.677120   4.552947   2.811604   5.183939
    28  C    4.771414   4.669736   6.204773   3.869645   6.940483
    29  H    4.619570   4.756016   5.959985   3.478781   6.787399
    30  H    5.528620   5.437899   7.010070   4.750052   7.669831
    31  H    5.344751   5.116446   6.704827   4.376581   7.483659
                   16         17         18         19         20
    16  O    0.000000
    17  O    2.249678   0.000000
    18  C    2.655849   1.432161   0.000000
    19  H    3.710580   2.020381   1.088798   0.000000
    20  H    2.588438   2.084163   1.091567   1.792289   0.000000
    21  H    2.721106   2.068174   1.092672   1.791223   1.791152
    22  F    4.100465   2.689113   3.998862   4.145379   4.444783
    23  F    3.457600   3.269263   4.424695   4.943168   4.386888
    24  F    5.740295   6.450960   7.512091   8.258666   8.024239
    25  F    5.783566   6.465954   7.210357   7.931885   7.827773
    26  C    2.930085   3.631124   3.875695   4.694843   4.433028
    27  O    3.125085   2.999328   3.405396   4.033759   4.203895
    28  C    3.357812   4.275767   4.008949   4.833274   4.371666
    29  H    2.735083   3.920760   3.493905   4.416995   3.611965
    30  H    4.109712   5.298541   5.064542   5.910942   5.339080
    31  H    4.044737   4.468395   3.989143   4.616911   4.482206
                   21         22         23         24         25
    21  H    0.000000
    22  F    4.731430   0.000000
    23  F    5.167317   2.191851   0.000000
    24  F    7.260360   6.341446   6.328961   0.000000
    25  F    6.661801   7.101682   7.362421   2.193068   0.000000
    26  C    3.143928   5.491567   5.707417   4.663555   3.660823
    27  O    2.794624   4.713108   5.366162   4.814561   3.971155
    28  C    3.060257   6.558265   6.616224   5.980604   4.769369
    29  H    2.653078   6.342954   6.156131   6.464887   5.545972
    30  H    4.127972   7.482578   7.394296   6.041033   4.657576
    31  H    2.921824   6.854985   7.188187   6.693721   5.316941
                   26         27         28         29         30
    26  C    0.000000
    27  O    1.224052   0.000000
    28  C    1.507491   2.404359   0.000000
    29  H    2.118185   2.906393   1.095527   0.000000
    30  H    2.172448   3.253079   1.092680   1.777304   0.000000
    31  H    2.130797   2.580398   1.090737   1.778520   1.787324
                   31
    31  H    0.000000
 Stoichiometry    C9H12F4N2O4
 Framework group  C1[X(C9H12F4N2O4)]
 Deg. of freedom    87
 Full point group                 C1      NOp   1
 Largest Abelian subgroup         C1      NOp   1
 Largest concise Abelian subgroup C1      NOp   1
                         Standard orientation:                         
 ---------------------------------------------------------------------
 Center     Atomic      Atomic             Coordinates (Angstroms)
 Number     Number       Type             X           Y           Z
 ---------------------------------------------------------------------
      1          7           0        1.719194    1.149528    0.388864
      2          1           0        2.107039    1.334413    1.307448
      3          6           0        1.777695   -0.207609   -0.100041
      4          1           0        1.319139   -0.220278   -1.089962
      5          6           0        3.220609   -0.651495   -0.273293
      6          6           0        1.096780   -1.142048    0.904774
      7          1           0        3.800925   -0.640739    0.651020
      8          8           0        1.717378   -1.518537    1.884762
      9          7           0       -0.193151   -1.520159    0.678573
     10          1           0       -0.613576   -1.973519    1.486991
     11          6           0       -1.126244   -0.911508   -0.238449
     12          1           0       -0.652645   -0.688139   -1.197985
     13          6           0       -2.229078   -1.932089   -0.494684
     14          6           0       -1.674151    0.408534    0.320543
     15          1           0       -1.820159   -2.905482   -0.775834
     16          8           0       -1.313051    0.883652    1.369838
     17          8           0       -2.556529    0.952121   -0.503695
     18          6           0       -2.990578    2.270774   -0.151783
     19          1           0       -3.732988    2.546362   -0.899017
     20          1           0       -3.431022    2.276781    0.846962
     21          1           0       -2.138359    2.953446   -0.191967
     22          9           0       -3.076295   -1.508691   -1.455313
     23          9           0       -2.946672   -2.079148    0.657029
     24          9           0        3.215596   -1.915450   -0.776641
     25          9           0        3.823317    0.151620   -1.185840
     26          6           0        0.880126    2.074626   -0.165400
     27          8           0        0.228788    1.839609   -1.174771
     28          6           0        0.791059    3.379647    0.583943
     29          1           0        0.003517    3.280813    1.339052
     30          1           0        1.726894    3.634739    1.087023
     31          1           0        0.515427    4.173293   -0.111658
 ---------------------------------------------------------------------
 Rotational constants (GHZ):           0.5006424           0.2888082           0.2218100
 Leave Link  202 at Mon Dec 30 11:32:51 2019, MaxMem=  4294967296 cpu:               1.7 elap:               0.1
 (Enter /n/sw/g16_nehalem/g16/l301.exe)
 Standard basis: 6-31G(d) (6D, 7F)
 Ernie: Thresh=  0.10000D-02 Tol=  0.10000D-05 Strict=F.
 There are   309 symmetry adapted cartesian basis functions of A   symmetry.
 There are   309 symmetry adapted basis functions of A   symmetry.
   309 basis functions,   580 primitive gaussians,   309 cartesian basis functions
    74 alpha electrons       74 beta electrons
       nuclear repulsion energy      1689.5243581493 Hartrees.
 IExCor= 4336 DFT=T Ex+Corr=M062X ExCW=0 ScaHFX=  0.540000
 ScaDFX=  1.000000  1.000000  1.000000  1.000000 ScalE2=  1.000000  1.000000
 IRadAn=      5 IRanWt=     -1 IRanGd=            0 ICorTp=0 IEmpDi=  4
 NAtoms=   31 NActive=   31 NUniq=   31 SFac= 1.00D+00 NAtFMM=   60 NAOKFM=F Big=F
 Integral buffers will be    131072 words long.
 Raffenetti 2 integral format.
 Two-electron integral symmetry is turned on.
 ------------------------------------------------------------------------------
 Polarizable Continuum Model (PCM)
 =================================
 Model                : PCM.
 Atomic radii         : SMD-Coulomb.
 Polarization charges : Total charges.
 Charge compensation  : None.
 Solution method      : On-the-fly selection.
 Cavity type          : VdW (van der Waals Surface) (Alpha=1.000).
 Cavity algorithm     : GePol (No added spheres)
                        Default sphere list used, NSphG=   31.
                        Lebedev-Laikov grids with approx.  5.0 points / Ang**2.
                        Smoothing algorithm: York/Karplus (Gamma=1.0000).
                        Polarization charges: spherical gaussians, with
                                              point-specific exponents (IZeta= 3).
                        Self-potential: point-specific (ISelfS= 7).
                        Self-field    : sphere-specific E.n sum rule (ISelfD= 2).
 1st derivatives      : Analytical E(r).r(x)/FMM algorithm (CHGder, D1EAlg=3).
                        Cavity 1st derivative terms included.
 Solvent              : DiethylEther, Eps=   4.240000 Eps(inf)=   1.829527
 ------------------------------------------------------------------------------
 GePol: Number of generator spheres                  =      31
 GePol: Total number of spheres                      =      31
 GePol: Number of exposed spheres                    =      31 (100.00%)
 GePol: Number of points                             =    2196
 GePol: Average weight of points                     =       0.13
 GePol: Minimum weight of points                     =   0.12D-10
 GePol: Maximum weight of points                     =    0.21501
 GePol: Number of points with low weight             =     101
 GePol: Fraction of low-weight points (<1% of avg)   =       4.60%
 GePol: Cavity surface area                          =    289.644 Ang**2
 GePol: Cavity volume                                =    310.820 Ang**3
 ------------------------------------------------------------------------------
 Atomic radii for non-electrostatic terms: SMD-CDS.
 ------------------------------------------------------------------------------
 PCM non-electrostatic energy =        -0.0034417327 Hartrees.
 Nuclear repulsion after PCM non-electrostatic terms =     1689.5209164166 Hartrees.
 Leave Link  301 at Mon Dec 30 11:32:51 2019, MaxMem=  4294967296 cpu:               2.2 elap:               0.2
 (Enter /n/sw/g16_nehalem/g16/l302.exe)
 NPDir=0 NMtPBC=     1 NCelOv=     1 NCel=       1 NClECP=     1 NCelD=      1
         NCelK=      1 NCelE2=     1 NClLst=     1 CellRange=     0.0.
 One-electron integrals computed using PRISM.
 One-electron integral symmetry used in STVInt
 NBasis=   309 RedAO= T EigKep=  1.64D-03  NBF=   309
 NBsUse=   309 1.00D-06 EigRej= -1.00D+00 NBFU=   309
 Precomputing XC quadrature grid using
 IXCGrd= 4 IRadAn=           5 IRanWt=          -1 IRanGd=           0 AccXCQ= 0.00D+00.
 Generated NRdTot=       0 NPtTot=           0 NUsed=           0 NTot=          32
 NSgBfM=   308   308   308   308   308 MxSgAt=    31 MxSgA2=    31.
 Leave Link  302 at Mon Dec 30 11:32:51 2019, MaxMem=  4294967296 cpu:               5.6 elap:               0.4
 (Enter /n/sw/g16_nehalem/g16/l303.exe)
 DipDrv:  MaxL=1.
 Leave Link  303 at Mon Dec 30 11:32:52 2019, MaxMem=  4294967296 cpu:               3.4 elap:               0.4
 (Enter /n/sw/g16_nehalem/g16/l401.exe)
 ExpMin= 1.61D-01 ExpMax= 7.00D+03 ExpMxC= 1.05D+03 IAcc=3 IRadAn=         5 AccDes= 0.00D+00
 Harris functional with IExCor= 1009 and IRadAn=       5 diagonalized for initial guess.
 HarFok:  IExCor= 1009 AccDes= 0.00D+00 IRadAn=         5 IDoV= 1 UseB2=F ITyADJ=14
 ICtDFT=  3500011 ScaDFX=  1.000000  1.000000  1.000000  1.000000
 FoFCou: FMM=F IPFlag=           0 FMFlag=      100000 FMFlg1=           0
         NFxFlg=           0 DoJE=T BraDBF=F KetDBF=T FulRan=T
         wScrn=  0.000000 ICntrl=       500 IOpCl=  0 I1Cent=   200000004 NGrid=           0
         NMat0=    1 NMatS0=      1 NMatT0=    0 NMatD0=    1 NMtDS0=    0 NMtDT0=    0
 Petite list used in FoFCou.
 Harris En= -1158.86857464952    
 JPrj=0 DoOrth=F DoCkMO=F.
 Leave Link  401 at Mon Dec 30 11:32:53 2019, MaxMem=  4294967296 cpu:              18.9 elap:               1.2
 (Enter /n/sw/g16_nehalem/g16/l502.exe)
 Integral symmetry usage will be decided dynamically.
 Closed shell SCF:
 Using DIIS extrapolation, IDIIS=  1040.
 NGot=  4294967296 LenX=  4294767994 LenY=  4294672072
 Requested convergence on RMS density matrix=1.00D-08 within 128 cycles.
 Requested convergence on MAX density matrix=1.00D-06.
 Requested convergence on             energy=1.00D-06.
 No special actions if energy rises.
 Fock matrices will be formed incrementally for  20 cycles.

 Cycle   1  Pass 1  IDiag  1:
 FoFJK:  IHMeth= 1 ICntrl=       0 DoSepK=F KAlg= 0 I1Cent=           0 FoldK=F
 IRaf= 840000000 NMat=       1 IRICut=       1 DoRegI=T DoRafI=F ISym2E= 0 IDoP0=0 IntGTp=1.
 FoFCou: FMM=F IPFlag=           0 FMFlag=      100000 FMFlg1=           0
         NFxFlg=           0 DoJE=F BraDBF=F KetDBF=F FulRan=T
         wScrn=  0.000000 ICntrl=         0 IOpCl=  0 I1Cent=           0 NGrid=           0
         NMat0=    1 NMatS0=      1 NMatT0=    0 NMatD0=    1 NMtDS0=    0 NMtDT0=    0
 Symmetry not used in FoFCou.
 Inv3:  Mode=1 IEnd=    14467248.
 Iteration    1 A*A^-1 deviation from unit magnitude is 8.55D-15 for    822.
 Iteration    1 A*A^-1 deviation from orthogonality  is 2.93D-15 for   1018    159.
 Iteration    1 A^-1*A deviation from unit magnitude is 9.55D-15 for    151.
 Iteration    1 A^-1*A deviation from orthogonality  is 3.00D-15 for   2184    330.
 E= -1159.22349769150    
 DIIS: error= 1.79D-02 at cycle   1 NSaved=   1.
 NSaved= 1 IEnMin= 1 EnMin= -1159.22349769150     IErMin= 1 ErrMin= 1.79D-02
 ErrMax= 1.79D-02  0.00D+00 EMaxC= 1.00D-01 BMatC= 4.98D-01 BMatP= 4.98D-01
 IDIUse=3 WtCom= 8.21D-01 WtEn= 1.79D-01
 Coeff-Com:  0.100D+01
 Coeff-En:   0.100D+01
 Coeff:      0.100D+01
 Gap=     0.337 Goal=   None    Shift=    0.000
 GapD=    0.337 DampG=1.000 DampE=0.500 DampFc=0.5000 IDamp=-1.
 Damping current iteration by 5.00D-01
 RMSDP=3.71D-03 MaxDP=1.53D-01              OVMax= 1.94D-01

 Cycle   2  Pass 1  IDiag  1:
 RMSU=  1.85D-03    CP:  9.95D-01
 E= -1159.37599777617     Delta-E=       -0.152500084671 Rises=F Damp=T
 DIIS: error= 9.16D-03 at cycle   2 NSaved=   2.
 NSaved= 2 IEnMin= 2 EnMin= -1159.37599777617     IErMin= 2 ErrMin= 9.16D-03
 ErrMax= 9.16D-03  0.00D+00 EMaxC= 1.00D-01 BMatC= 5.30D-02 BMatP= 4.98D-01
 IDIUse=3 WtCom= 9.08D-01 WtEn= 9.16D-02
 Coeff-Com:  0.105D-01 0.989D+00
 Coeff-En:   0.476D-01 0.952D+00
 Coeff:      0.139D-01 0.986D+00
 Gap=     0.381 Goal=   None    Shift=    0.000
 RMSDP=1.05D-03 MaxDP=3.80D-02 DE=-1.53D-01 OVMax= 9.47D-02

 Cycle   3  Pass 1  IDiag  1:
 RMSU=  1.01D-03    CP:  9.90D-01  8.56D-01
 E= -1159.54349884138     Delta-E=       -0.167501065210 Rises=F Damp=F
 DIIS: error= 6.17D-03 at cycle   3 NSaved=   3.
 NSaved= 3 IEnMin= 3 EnMin= -1159.54349884138     IErMin= 3 ErrMin= 6.17D-03
 ErrMax= 6.17D-03  0.00D+00 EMaxC= 1.00D-01 BMatC= 2.57D-02 BMatP= 5.30D-02
 IDIUse=3 WtCom= 9.38D-01 WtEn= 6.17D-02
 Coeff-Com: -0.866D-01 0.421D+00 0.666D+00
 Coeff-En:   0.000D+00 0.000D+00 0.100D+01
 Coeff:     -0.812D-01 0.395D+00 0.687D+00
 Gap=     0.357 Goal=   None    Shift=    0.000
 RMSDP=5.71D-04 MaxDP=2.53D-02 DE=-1.68D-01 OVMax= 3.25D-02

 Cycle   4  Pass 1  IDiag  1:
 RMSU=  3.49D-04    CP:  9.92D-01  9.95D-01  6.35D-01
 E= -1159.56054060965     Delta-E=       -0.017041768266 Rises=F Damp=F
 DIIS: error= 2.27D-03 at cycle   4 NSaved=   4.
 NSaved= 4 IEnMin= 4 EnMin= -1159.56054060965     IErMin= 4 ErrMin= 2.27D-03
 ErrMax= 2.27D-03  0.00D+00 EMaxC= 1.00D-01 BMatC= 4.35D-03 BMatP= 2.57D-02
 IDIUse=3 WtCom= 9.77D-01 WtEn= 2.27D-02
 Coeff-Com: -0.314D-01 0.720D-01 0.336D+00 0.623D+00
 Coeff-En:   0.000D+00 0.000D+00 0.116D+00 0.884D+00
 Coeff:     -0.307D-01 0.704D-01 0.331D+00 0.629D+00
 Gap=     0.354 Goal=   None    Shift=    0.000
 RMSDP=1.92D-04 MaxDP=9.32D-03 DE=-1.70D-02 OVMax= 1.12D-02

 Cycle   5  Pass 1  IDiag  1:
 RMSU=  8.31D-05    CP:  9.91D-01  9.64D-01  7.55D-01  6.90D-01
 E= -1159.56391565198     Delta-E=       -0.003375042334 Rises=F Damp=F
 DIIS: error= 2.43D-04 at cycle   5 NSaved=   5.
 NSaved= 5 IEnMin= 5 EnMin= -1159.56391565198     IErMin= 5 ErrMin= 2.43D-04
 ErrMax= 2.43D-04  0.00D+00 EMaxC= 1.00D-01 BMatC= 1.28D-04 BMatP= 4.35D-03
 IDIUse=3 WtCom= 9.98D-01 WtEn= 2.43D-03
 Coeff-Com: -0.912D-02 0.153D-01 0.119D+00 0.267D+00 0.609D+00
 Coeff-En:   0.000D+00 0.000D+00 0.000D+00 0.000D+00 0.100D+01
 Coeff:     -0.909D-02 0.152D-01 0.118D+00 0.266D+00 0.610D+00
 Gap=     0.354 Goal=   None    Shift=    0.000
 RMSDP=3.51D-05 MaxDP=1.57D-03 DE=-3.38D-03 OVMax= 3.25D-03

 Cycle   6  Pass 1  IDiag  1:
 RMSU=  2.62D-05    CP:  9.91D-01  9.66D-01  7.62D-01  7.26D-01  7.87D-01
 E= -1159.56401954181     Delta-E=       -0.000103889826 Rises=F Damp=F
 DIIS: error= 8.11D-05 at cycle   6 NSaved=   6.
 NSaved= 6 IEnMin= 6 EnMin= -1159.56401954181     IErMin= 6 ErrMin= 8.11D-05
 ErrMax= 8.11D-05  0.00D+00 EMaxC= 1.00D-01 BMatC= 1.15D-05 BMatP= 1.28D-04
 IDIUse=1 WtCom= 1.00D+00 WtEn= 0.00D+00
 Coeff-Com:  0.360D-04-0.209D-02 0.108D-01 0.299D-01 0.237D+00 0.725D+00
 Coeff:      0.360D-04-0.209D-02 0.108D-01 0.299D-01 0.237D+00 0.725D+00
 Gap=     0.354 Goal=   None    Shift=    0.000
 RMSDP=1.31D-05 MaxDP=6.41D-04 DE=-1.04D-04 OVMax= 1.10D-03

 Cycle   7  Pass 1  IDiag  1:
 RMSU=  9.62D-06    CP:  9.91D-01  9.64D-01  7.65D-01  7.34D-01  8.74D-01
                    CP:  9.37D-01
 E= -1159.56402958970     Delta-E=       -0.000010047894 Rises=F Damp=F
 DIIS: error= 6.44D-05 at cycle   7 NSaved=   7.
 NSaved= 7 IEnMin= 7 EnMin= -1159.56402958970     IErMin= 7 ErrMin= 6.44D-05
 ErrMax= 6.44D-05  0.00D+00 EMaxC= 1.00D-01 BMatC= 1.62D-06 BMatP= 1.15D-05
 IDIUse=1 WtCom= 1.00D+00 WtEn= 0.00D+00
 Coeff-Com:  0.144D-02-0.342D-02-0.115D-01-0.269D-01 0.253D-01 0.280D+00
 Coeff-Com:  0.735D+00
 Coeff:      0.144D-02-0.342D-02-0.115D-01-0.269D-01 0.253D-01 0.280D+00
 Coeff:      0.735D+00
 Gap=     0.354 Goal=   None    Shift=    0.000
 RMSDP=6.82D-06 MaxDP=3.85D-04 DE=-1.00D-05 OVMax= 5.19D-04

 Cycle   8  Pass 1  IDiag  1:
 RMSU=  4.02D-06    CP:  9.91D-01  9.63D-01  7.67D-01  7.38D-01  9.07D-01
                    CP:  1.07D+00  9.35D-01
 E= -1159.56403117431     Delta-E=       -0.000001584609 Rises=F Damp=F
 DIIS: error= 2.18D-05 at cycle   8 NSaved=   8.
 NSaved= 8 IEnMin= 8 EnMin= -1159.56403117431     IErMin= 8 ErrMin= 2.18D-05
 ErrMax= 2.18D-05  0.00D+00 EMaxC= 1.00D-01 BMatC= 3.68D-07 BMatP= 1.62D-06
 IDIUse=1 WtCom= 1.00D+00 WtEn= 0.00D+00
 Coeff-Com:  0.732D-03-0.136D-02-0.651D-02-0.177D-01-0.202D-01 0.164D-01
 Coeff-Com:  0.360D+00 0.669D+00
 Coeff:      0.732D-03-0.136D-02-0.651D-02-0.177D-01-0.202D-01 0.164D-01
 Coeff:      0.360D+00 0.669D+00
 Gap=     0.354 Goal=   None    Shift=    0.000
 RMSDP=2.64D-06 MaxDP=1.21D-04 DE=-1.58D-06 OVMax= 2.70D-04

 Cycle   9  Pass 1  IDiag  1:
 RMSU=  1.29D-06    CP:  9.91D-01  9.63D-01  7.68D-01  7.38D-01  9.21D-01
                    CP:  1.10D+00  1.07D+00  8.12D-01
 E= -1159.56403152744     Delta-E=       -0.000000353124 Rises=F Damp=F
 DIIS: error= 8.81D-06 at cycle   9 NSaved=   9.
 NSaved= 9 IEnMin= 9 EnMin= -1159.56403152744     IErMin= 9 ErrMin= 8.81D-06
 ErrMax= 8.81D-06  0.00D+00 EMaxC= 1.00D-01 BMatC= 3.37D-08 BMatP= 3.68D-07
 IDIUse=1 WtCom= 1.00D+00 WtEn= 0.00D+00
 Coeff-Com:  0.109D-03-0.104D-03-0.654D-03-0.316D-02-0.104D-01-0.325D-01
 Coeff-Com:  0.300D-01 0.241D+00 0.776D+00
 Coeff:      0.109D-03-0.104D-03-0.654D-03-0.316D-02-0.104D-01-0.325D-01
 Coeff:      0.300D-01 0.241D+00 0.776D+00
 Gap=     0.354 Goal=   None    Shift=    0.000
 RMSDP=9.70D-07 MaxDP=5.09D-05 DE=-3.53D-07 OVMax= 6.14D-05

 Cycle  10  Pass 1  IDiag  1:
 RMSU=  4.19D-07    CP:  9.91D-01  9.62D-01  7.68D-01  7.38D-01  9.24D-01
                    CP:  1.11D+00  1.11D+00  9.32D-01  9.69D-01
 E= -1159.56403156168     Delta-E=       -0.000000034247 Rises=F Damp=F
 DIIS: error= 2.74D-06 at cycle  10 NSaved=  10.
 NSaved=10 IEnMin=10 EnMin= -1159.56403156168     IErMin=10 ErrMin= 2.74D-06
 ErrMax= 2.74D-06  0.00D+00 EMaxC= 1.00D-01 BMatC= 2.50D-09 BMatP= 3.37D-08
 IDIUse=1 WtCom= 1.00D+00 WtEn= 0.00D+00
 Coeff-Com: -0.301D-04 0.824D-04 0.505D-03 0.766D-03-0.115D-02-0.115D-01
 Coeff-Com: -0.287D-01 0.737D-02 0.236D+00 0.797D+00
 Coeff:     -0.301D-04 0.824D-04 0.505D-03 0.766D-03-0.115D-02-0.115D-01
 Coeff:     -0.287D-01 0.737D-02 0.236D+00 0.797D+00
 Gap=     0.354 Goal=   None    Shift=    0.000
 RMSDP=2.73D-07 MaxDP=1.02D-05 DE=-3.42D-08 OVMax= 1.84D-05

 Cycle  11  Pass 1  IDiag  1:
 RMSU=  1.43D-07    CP:  9.91D-01  9.62D-01  7.68D-01  7.38D-01  9.25D-01
                    CP:  1.12D+00  1.12D+00  9.53D-01  1.05D+00  9.81D-01
 E= -1159.56403156419     Delta-E=       -0.000000002508 Rises=F Damp=F
 DIIS: error= 7.61D-07 at cycle  11 NSaved=  11.
 NSaved=11 IEnMin=11 EnMin= -1159.56403156419     IErMin=11 ErrMin= 7.61D-07
 ErrMax= 7.61D-07  0.00D+00 EMaxC= 1.00D-01 BMatC= 5.87D-10 BMatP= 2.50D-09
 IDIUse=1 WtCom= 1.00D+00 WtEn= 0.00D+00
 Coeff-Com: -0.254D-04 0.489D-04 0.338D-03 0.745D-03 0.648D-03-0.183D-02
 Coeff-Com: -0.177D-01-0.233D-01 0.274D-01 0.400D+00 0.614D+00
 Coeff:     -0.254D-04 0.489D-04 0.338D-03 0.745D-03 0.648D-03-0.183D-02
 Coeff:     -0.177D-01-0.233D-01 0.274D-01 0.400D+00 0.614D+00
 Gap=     0.354 Goal=   None    Shift=    0.000
 RMSDP=8.53D-08 MaxDP=3.31D-06 DE=-2.51D-09 OVMax= 4.55D-06

 Cycle  12  Pass 1  IDiag  1:
 RMSU=  4.58D-08    CP:  9.91D-01  9.62D-01  7.68D-01  7.38D-01  9.25D-01
                    CP:  1.12D+00  1.12D+00  9.60D-01  1.07D+00  1.07D+00
                    CP:  7.62D-01
 E= -1159.56403156459     Delta-E=       -0.000000000402 Rises=F Damp=F
 DIIS: error= 2.03D-07 at cycle  12 NSaved=  12.
 NSaved=12 IEnMin=12 EnMin= -1159.56403156459     IErMin=12 ErrMin= 2.03D-07
 ErrMax= 2.03D-07  0.00D+00 EMaxC= 1.00D-01 BMatC= 2.81D-11 BMatP= 5.87D-10
 IDIUse=1 WtCom= 1.00D+00 WtEn= 0.00D+00
 Coeff-Com: -0.630D-05 0.106D-04 0.895D-04 0.216D-03 0.339D-03 0.272D-03
 Coeff-Com: -0.449D-02-0.915D-02-0.836D-02 0.889D-01 0.222D+00 0.710D+00
 Coeff:     -0.630D-05 0.106D-04 0.895D-04 0.216D-03 0.339D-03 0.272D-03
 Coeff:     -0.449D-02-0.915D-02-0.836D-02 0.889D-01 0.222D+00 0.710D+00
 Gap=     0.354 Goal=   None    Shift=    0.000
 RMSDP=2.18D-08 MaxDP=9.07D-07 DE=-4.02D-10 OVMax= 1.45D-06

 Cycle  13  Pass 1  IDiag  1:
 RMSU=  1.59D-08    CP:  9.91D-01  9.62D-01  7.68D-01  7.38D-01  9.25D-01
                    CP:  1.12D+00  1.12D+00  9.60D-01  1.08D+00  1.09D+00
                    CP:  8.21D-01  8.70D-01
 E= -1159.56403156460     Delta-E=       -0.000000000001 Rises=F Damp=F
 DIIS: error= 7.69D-08 at cycle  13 NSaved=  13.
 NSaved=13 IEnMin=13 EnMin= -1159.56403156460     IErMin=13 ErrMin= 7.69D-08
 ErrMax= 7.69D-08  0.00D+00 EMaxC= 1.00D-01 BMatC= 8.10D-12 BMatP= 2.81D-11
 IDIUse=1 WtCom= 1.00D+00 WtEn= 0.00D+00
 Coeff-Com:  0.332D-06-0.142D-05 0.108D-05 0.105D-04 0.891D-04 0.385D-03
 Coeff-Com:  0.254D-05-0.162D-02-0.857D-02-0.102D-01 0.266D-01 0.381D+00
 Coeff-Com:  0.612D+00
 Coeff:      0.332D-06-0.142D-05 0.108D-05 0.105D-04 0.891D-04 0.385D-03
 Coeff:      0.254D-05-0.162D-02-0.857D-02-0.102D-01 0.266D-01 0.381D+00
 Coeff:      0.612D+00
 Gap=     0.354 Goal=   None    Shift=    0.000
 RMSDP=1.04D-08 MaxDP=4.50D-07 DE=-1.36D-12 OVMax= 8.36D-07

 Cycle  14  Pass 1  IDiag  1:
 RMSU=  5.85D-09    CP:  9.91D-01  9.62D-01  7.68D-01  7.38D-01  9.25D-01
                    CP:  1.12D+00  1.12D+00  9.61D-01  1.08D+00  1.10D+00
                    CP:  8.30D-01  9.82D-01  7.85D-01
 E= -1159.56403156459     Delta-E=        0.000000000008 Rises=F Damp=F
 DIIS: error= 1.88D-08 at cycle  14 NSaved=  14.
 NSaved=14 IEnMin=13 EnMin= -1159.56403156460     IErMin=14 ErrMin= 1.88D-08
 ErrMax= 1.88D-08  0.00D+00 EMaxC= 1.00D-01 BMatC= 3.88D-13 BMatP= 8.10D-12
 IDIUse=1 WtCom= 1.00D+00 WtEn= 0.00D+00
 Coeff-Com:  0.912D-06-0.186D-05-0.994D-05-0.227D-04-0.692D-05 0.963D-04
 Coeff-Com:  0.511D-03 0.619D-03-0.185D-02-0.143D-01-0.190D-01 0.511D-01
 Coeff-Com:  0.211D+00 0.772D+00
 Coeff:      0.912D-06-0.186D-05-0.994D-05-0.227D-04-0.692D-05 0.963D-04
 Coeff:      0.511D-03 0.619D-03-0.185D-02-0.143D-01-0.190D-01 0.511D-01
 Coeff:      0.211D+00 0.772D+00
 Gap=     0.354 Goal=   None    Shift=    0.000
 RMSDP=2.95D-09 MaxDP=9.33D-08 DE= 7.73D-12 OVMax= 2.35D-07

 Error on total polarization charges =  0.01871
 SCF Done:  E(RM062X) =  -1159.56403156     A.U. after   14 cycles
            NFock= 14  Conv=0.30D-08     -V/T= 2.0075
 KE= 1.150900608911D+03 PE=-6.106442326554D+03 EE= 2.106456769663D+03
 SMD-CDS (non-electrostatic) energy       (kcal/mol) =      -2.16
 (included in total energy above)
 Leave Link  502 at Mon Dec 30 11:33:49 2019, MaxMem=  4294967296 cpu:             877.0 elap:              55.9
 (Enter /n/sw/g16_nehalem/g16/l601.exe)
 Copying SCF densities to generalized density rwf, IOpCl= 0 IROHF=0.

 **********************************************************************

            Population analysis using the SCF density.

 **********************************************************************

 Orbital symmetries:
       Occupied  (A) (A) (A) (A) (A) (A) (A) (A) (A) (A) (A) (A)
                 (A) (A) (A) (A) (A) (A) (A) (A) (A) (A) (A) (A)
                 (A) (A) (A) (A) (A) (A) (A) (A) (A) (A) (A) (A)
                 (A) (A) (A) (A) (A) (A) (A) (A) (A) (A) (A) (A)
                 (A) (A) (A) (A) (A) (A) (A) (A) (A) (A) (A) (A)
                 (A) (A) (A) (A) (A) (A) (A) (A) (A) (A) (A) (A)
                 (A) (A)
       Virtual   (A) (A) (A) (A) (A) (A) (A) (A) (A) (A) (A) (A)
                 (A) (A) (A) (A) (A) (A) (A) (A) (A) (A) (A) (A)
                 (A) (A) (A) (A) (A) (A) (A) (A) (A) (A) (A) (A)
                 (A) (A) (A) (A) (A) (A) (A) (A) (A) (A) (A) (A)
                 (A) (A) (A) (A) (A) (A) (A) (A) (A) (A) (A) (A)
                 (A) (A) (A) (A) (A) (A) (A) (A) (A) (A) (A) (A)
                 (A) (A) (A) (A) (A) (A) (A) (A) (A) (A) (A) (A)
                 (A) (A) (A) (A) (A) (A) (A) (A) (A) (A) (A) (A)
                 (A) (A) (A) (A) (A) (A) (A) (A) (A) (A) (A) (A)
                 (A) (A) (A) (A) (A) (A) (A) (A) (A) (A) (A) (A)
                 (A) (A) (A) (A) (A) (A) (A) (A) (A) (A) (A) (A)
                 (A) (A) (A) (A) (A) (A) (A) (A) (A) (A) (A) (A)
                 (A) (A) (A) (A) (A) (A) (A) (A) (A) (A) (A) (A)
                 (A) (A) (A) (A) (A) (A) (A) (A) (A) (A) (A) (A)
                 (A) (A) (A) (A) (A) (A) (A) (A) (A) (A) (A) (A)
                 (A) (A) (A) (A) (A) (A) (A) (A) (A) (A) (A) (A)
                 (A) (A) (A) (A) (A) (A) (A) (A) (A) (A) (A) (A)
                 (A) (A) (A) (A) (A) (A) (A) (A) (A) (A) (A) (A)
                 (A) (A) (A) (A) (A) (A) (A) (A) (A) (A) (A) (A)
                 (A) (A) (A) (A) (A) (A) (A)
 The electronic state is 1-A.
 Alpha  occ. eigenvalues --  -25.27092 -25.26873 -25.26233 -25.26080 -19.69116
 Alpha  occ. eigenvalues --  -19.64059 -19.62436 -19.61522 -14.79974 -14.79510
 Alpha  occ. eigenvalues --  -10.71946 -10.70745 -10.69064 -10.67040 -10.66123
 Alpha  occ. eigenvalues --  -10.61730 -10.60605 -10.59320 -10.54439  -1.40301
 Alpha  occ. eigenvalues --   -1.39403  -1.34195  -1.33333  -1.24250  -1.17815
 Alpha  occ. eigenvalues --   -1.16410  -1.14710  -1.05511  -1.04364  -0.89364
 Alpha  occ. eigenvalues --   -0.88421  -0.82420  -0.82223  -0.76545  -0.76075
 Alpha  occ. eigenvalues --   -0.69496  -0.68254  -0.66833  -0.64836  -0.64389
 Alpha  occ. eigenvalues --   -0.63636  -0.63317  -0.62528  -0.61565  -0.60035
 Alpha  occ. eigenvalues --   -0.59081  -0.57109  -0.56109  -0.55176  -0.53788
 Alpha  occ. eigenvalues --   -0.53228  -0.52382  -0.52120  -0.51636  -0.50695
 Alpha  occ. eigenvalues --   -0.49790  -0.49359  -0.49174  -0.48569  -0.48285
 Alpha  occ. eigenvalues --   -0.47715  -0.46764  -0.45816  -0.45710  -0.43394
 Alpha  occ. eigenvalues --   -0.43264  -0.41508  -0.40961  -0.37438  -0.36511
 Alpha  occ. eigenvalues --   -0.35796  -0.33521  -0.33140  -0.31595
 Alpha virt. eigenvalues --    0.03830   0.05178   0.07505   0.12616   0.14130
 Alpha virt. eigenvalues --    0.14813   0.16207   0.16902   0.17866   0.18761
 Alpha virt. eigenvalues --    0.19057   0.19545   0.19993   0.20884   0.21745
 Alpha virt. eigenvalues --    0.21956   0.22684   0.23614   0.24341   0.25014
 Alpha virt. eigenvalues --    0.27235   0.28431   0.29115   0.29801   0.30385
 Alpha virt. eigenvalues --    0.31836   0.35150   0.36194   0.38300   0.41679
 Alpha virt. eigenvalues --    0.41866   0.44446   0.47100   0.53064   0.54385
 Alpha virt. eigenvalues --    0.54889   0.55920   0.57060   0.57671   0.58977
 Alpha virt. eigenvalues --    0.59565   0.60071   0.60836   0.61571   0.63185
 Alpha virt. eigenvalues --    0.64081   0.65328   0.67607   0.68108   0.70389
 Alpha virt. eigenvalues --    0.70948   0.72418   0.73359   0.73511   0.75346
 Alpha virt. eigenvalues --    0.76491   0.78137   0.79773   0.80536   0.81421
 Alpha virt. eigenvalues --    0.82582   0.86899   0.87677   0.88629   0.89242
 Alpha virt. eigenvalues --    0.90553   0.91564   0.93490   0.93757   0.94432
 Alpha virt. eigenvalues --    0.95104   0.95502   0.97013   0.97641   0.98024
 Alpha virt. eigenvalues --    0.98555   0.99564   1.01016   1.02743   1.03190
 Alpha virt. eigenvalues --    1.04915   1.08122   1.09048   1.10303   1.11575
 Alpha virt. eigenvalues --    1.13902   1.15568   1.16467   1.18340   1.18712
 Alpha virt. eigenvalues --    1.19746   1.22138   1.22564   1.23492   1.26037
 Alpha virt. eigenvalues --    1.27443   1.28674   1.30647   1.33460   1.34487
 Alpha virt. eigenvalues --    1.38612   1.39666   1.41846   1.42521   1.43187
 Alpha virt. eigenvalues --    1.43604   1.44227   1.45794   1.46504   1.46763
 Alpha virt. eigenvalues --    1.48399   1.49186   1.49562   1.49909   1.50829
 Alpha virt. eigenvalues --    1.52981   1.53363   1.54634   1.57733   1.58493
 Alpha virt. eigenvalues --    1.62371   1.62881   1.65004   1.67794   1.69061
 Alpha virt. eigenvalues --    1.69784   1.72795   1.74547   1.75329   1.76125
 Alpha virt. eigenvalues --    1.77903   1.79995   1.81863   1.82714   1.83676
 Alpha virt. eigenvalues --    1.85604   1.86002   1.86700   1.88007   1.88952
 Alpha virt. eigenvalues --    1.89606   1.90417   1.91337   1.94198   1.94566
 Alpha virt. eigenvalues --    1.94841   1.96511   1.97547   1.99041   2.00381
 Alpha virt. eigenvalues --    2.02119   2.02927   2.04373   2.05669   2.06463
 Alpha virt. eigenvalues --    2.07871   2.09456   2.10450   2.11409   2.11555
 Alpha virt. eigenvalues --    2.12547   2.12898   2.15127   2.16965   2.17880
 Alpha virt. eigenvalues --    2.18193   2.20045   2.21030   2.22086   2.23230
 Alpha virt. eigenvalues --    2.25171   2.26079   2.26703   2.28097   2.29718
 Alpha virt. eigenvalues --    2.31374   2.34032   2.35017   2.37277   2.38266
 Alpha virt. eigenvalues --    2.39993   2.40973   2.43708   2.48065   2.48166
 Alpha virt. eigenvalues --    2.49488   2.51767   2.53275   2.57959   2.60897
 Alpha virt. eigenvalues --    2.63743   2.65545   2.70453   2.71368   2.72232
 Alpha virt. eigenvalues --    2.74761   2.75443   2.78522   2.80422   2.82920
 Alpha virt. eigenvalues --    2.83512   2.86341   2.91829   2.97752   2.98689
 Alpha virt. eigenvalues --    3.02538   3.04271   3.04668   3.06528   3.08390
 Alpha virt. eigenvalues --    3.11044   3.12323   3.13626   3.17428   3.19065
 Alpha virt. eigenvalues --    3.24050   3.93254   4.01304   4.10025   4.12847
 Alpha virt. eigenvalues --    4.20329   4.24773   4.27363   4.30734   4.36664
 Alpha virt. eigenvalues --    4.38059   4.40386   4.43043   4.47302   4.52606
 Alpha virt. eigenvalues --    4.58640   4.66837   4.75479   4.88093   5.19239
          Condensed to atoms (all electrons):
               1          2          3          4          5          6
     1  N    7.246902   0.308666   0.176191  -0.041422  -0.038236  -0.046102
     2  H    0.308666   0.331521  -0.032168   0.003818  -0.001157   0.000342
     3  C    0.176191  -0.032168   5.548320   0.335414   0.287441   0.236225
     4  H   -0.041422   0.003818   0.335414   0.471539  -0.014941  -0.021642
     5  C   -0.038236  -0.001157   0.287441  -0.014941   4.375614  -0.035293
     6  C   -0.046102   0.000342   0.236225  -0.021642  -0.035293   4.385935
     7  H    0.000610   0.002607  -0.072189   0.005443   0.387244  -0.004508
     8  O   -0.002523   0.003901  -0.096440   0.002728   0.006343   0.570805
     9  N    0.000751   0.000095  -0.103216  -0.000180   0.001992   0.277618
    10  H   -0.000334  -0.000017   0.006592  -0.000172  -0.000104  -0.009324
    11  C    0.000288  -0.000041   0.003406   0.000198   0.000051  -0.025278
    12  H   -0.001456  -0.000021   0.003130   0.002569   0.000041  -0.002209
    13  C   -0.000008   0.000001  -0.000143   0.000076   0.000006   0.001853
    14  C   -0.000293  -0.000006  -0.002341  -0.000510   0.000007   0.000619
    15  H    0.000001   0.000000   0.000006   0.000000  -0.000003  -0.000110
    16  O   -0.001484   0.000218  -0.001605   0.000102   0.000009   0.010893
    17  O    0.000126   0.000001  -0.000018  -0.000041   0.000000   0.000114
    18  C   -0.000008   0.000002  -0.000004   0.000003   0.000000  -0.000015
    19  H    0.000000   0.000000   0.000000   0.000000   0.000000   0.000000
    20  H    0.000003   0.000000   0.000000   0.000000   0.000000  -0.000001
    21  H    0.000046  -0.000006  -0.000003  -0.000006   0.000000   0.000004
    22  F    0.000000   0.000000   0.000003  -0.000003   0.000000  -0.000017
    23  F    0.000000   0.000000  -0.000004  -0.000001   0.000000   0.000158
    24  F    0.001904  -0.000019  -0.045818   0.001227   0.262484   0.015043
    25  F    0.002093  -0.000109  -0.038736   0.000523   0.271595   0.002733
    26  C    0.248338  -0.014483  -0.020097   0.001473   0.001268   0.001293
    27  O   -0.107261   0.002421   0.001244   0.011948   0.000189  -0.000551
    28  C   -0.121712  -0.000163   0.007037   0.000943  -0.000095  -0.000154
    29  H   -0.001116   0.000217  -0.000310  -0.000013  -0.000006   0.000060
    30  H    0.003290   0.001427  -0.000014  -0.000037   0.000000  -0.000015
    31  H    0.004376   0.000014  -0.000137  -0.000006   0.000003  -0.000002
               7          8          9         10         11         12
     1  N    0.000610  -0.002523   0.000751  -0.000334   0.000288  -0.001456
     2  H    0.002607   0.003901   0.000095  -0.000017  -0.000041  -0.000021
     3  C   -0.072189  -0.096440  -0.103216   0.006592   0.003406   0.003130
     4  H    0.005443   0.002728  -0.000180  -0.000172   0.000198   0.002569
     5  C    0.387244   0.006343   0.001992  -0.000104   0.000051   0.000041
     6  C   -0.004508   0.570805   0.277618  -0.009324  -0.025278  -0.002209
     7  H    0.563559   0.009717   0.000146  -0.000004  -0.000021  -0.000011
     8  O    0.009717   8.128705  -0.094687   0.006301   0.003152  -0.000002
     9  N    0.000146  -0.094687   7.205772   0.291576   0.195536  -0.030045
    10  H   -0.000004   0.006301   0.291576   0.340162  -0.033256   0.003362
    11  C   -0.000021   0.003152   0.195536  -0.033256   5.485946   0.354660
    12  H   -0.000011  -0.000002  -0.030045   0.003362   0.354660   0.447619
    13  C    0.000000  -0.000072  -0.034919  -0.005071   0.262332  -0.017012
    14  C    0.000000  -0.000172  -0.063800   0.000586   0.265906  -0.031693
    15  H    0.000000  -0.000011   0.004563   0.000214  -0.079094  -0.001976
    16  O    0.000000  -0.000194  -0.008436   0.001414  -0.079973   0.000299
    17  O    0.000000   0.000000   0.002885   0.000013  -0.095488   0.002111
    18  C    0.000000   0.000000  -0.000160  -0.000002   0.006391  -0.000294
    19  H    0.000000   0.000000   0.000001   0.000000  -0.000030  -0.000011
    20  H    0.000000   0.000000   0.000011   0.000000   0.000264   0.000003
    21  H    0.000000   0.000000   0.000000   0.000000  -0.000437   0.000031
    22  F    0.000000   0.000000   0.001476   0.000125  -0.029792   0.001464
    23  F    0.000000   0.000000  -0.000883   0.008958  -0.052242   0.002211
    24  F   -0.036979  -0.002179  -0.000275  -0.000001  -0.000006  -0.000035
    25  F   -0.038250   0.000020  -0.000015   0.000000   0.000002  -0.000004
    26  C   -0.000008   0.000065   0.000165  -0.000046   0.000700  -0.000546
    27  O   -0.000016  -0.000004   0.000037   0.000003  -0.003373   0.006811
    28  C    0.000003  -0.000005  -0.000012  -0.000001   0.000031   0.000077
    29  H    0.000000   0.000001  -0.000004   0.000001   0.000078  -0.000012
    30  H    0.000004   0.000000   0.000000   0.000000  -0.000001  -0.000001
    31  H    0.000000   0.000000   0.000000   0.000000   0.000000  -0.000001
              13         14         15         16         17         18
     1  N   -0.000008  -0.000293   0.000001  -0.001484   0.000126  -0.000008
     2  H    0.000001  -0.000006   0.000000   0.000218   0.000001   0.000002
     3  C   -0.000143  -0.002341   0.000006  -0.001605  -0.000018  -0.000004
     4  H    0.000076  -0.000510   0.000000   0.000102  -0.000041   0.000003
     5  C    0.000006   0.000007  -0.000003   0.000009   0.000000   0.000000
     6  C    0.001853   0.000619  -0.000110   0.010893   0.000114  -0.000015
     7  H    0.000000   0.000000   0.000000   0.000000   0.000000   0.000000
     8  O   -0.000072  -0.000172  -0.000011  -0.000194   0.000000   0.000000
     9  N   -0.034919  -0.063800   0.004563  -0.008436   0.002885  -0.000160
    10  H   -0.005071   0.000586   0.000214   0.001414   0.000013  -0.000002
    11  C    0.262332   0.265906  -0.079094  -0.079973  -0.095488   0.006391
    12  H   -0.017012  -0.031693  -0.001976   0.000299   0.002111  -0.000294
    13  C    4.417186  -0.015134   0.399730  -0.000772   0.008886  -0.000147
    14  C   -0.015134   4.381093   0.005600   0.543009   0.245580  -0.025607
    15  H    0.399730   0.005600   0.540495  -0.000084  -0.000082   0.000011
    16  O   -0.000772   0.543009  -0.000084   8.110132  -0.084138   0.002120
    17  O    0.008886   0.245580  -0.000082  -0.084138   8.296992   0.187679
    18  C   -0.000147  -0.025607   0.000011   0.002120   0.187679   4.948166
    19  H   -0.000010   0.004444   0.000000   0.000573  -0.030589   0.387416
    20  H   -0.000099  -0.005761  -0.000001   0.005306  -0.030396   0.379520
    21  H    0.000039  -0.003931   0.000000   0.001696  -0.033112   0.376685
    22  F    0.266962  -0.002772  -0.034763   0.000005   0.000562   0.000209
    23  F    0.249433   0.010910  -0.036681  -0.000231  -0.001117  -0.000012
    24  F    0.000000   0.000001   0.000000   0.000000   0.000000   0.000000
    25  F    0.000000   0.000000   0.000000   0.000000   0.000000   0.000000
    26  C    0.000086   0.006410   0.000000   0.006595  -0.001050  -0.000239
    27  O    0.000134   0.010006  -0.000001  -0.005109  -0.001197  -0.002413
    28  C    0.000001  -0.000460   0.000000  -0.003528   0.000015  -0.000219
    29  H   -0.000001  -0.000510   0.000000   0.006914  -0.000136   0.000226
    30  H    0.000000   0.000031   0.000000   0.000047  -0.000001   0.000009
    31  H    0.000000  -0.000011   0.000000   0.000046   0.000001  -0.000166
              19         20         21         22         23         24
     1  N    0.000000   0.000003   0.000046   0.000000   0.000000   0.001904
     2  H    0.000000   0.000000  -0.000006   0.000000   0.000000  -0.000019
     3  C    0.000000   0.000000  -0.000003   0.000003  -0.000004  -0.045818
     4  H    0.000000   0.000000  -0.000006  -0.000003  -0.000001   0.001227
     5  C    0.000000   0.000000   0.000000   0.000000   0.000000   0.262484
     6  C    0.000000  -0.000001   0.000004  -0.000017   0.000158   0.015043
     7  H    0.000000   0.000000   0.000000   0.000000   0.000000  -0.036979
     8  O    0.000000   0.000000   0.000000   0.000000   0.000000  -0.002179
     9  N    0.000001   0.000011   0.000000   0.001476  -0.000883  -0.000275
    10  H    0.000000   0.000000   0.000000   0.000125   0.008958  -0.000001
    11  C   -0.000030   0.000264  -0.000437  -0.029792  -0.052242  -0.000006
    12  H   -0.000011   0.000003   0.000031   0.001464   0.002211  -0.000035
    13  C   -0.000010  -0.000099   0.000039   0.266962   0.249433   0.000000
    14  C    0.004444  -0.005761  -0.003931  -0.002772   0.010910   0.000001
    15  H    0.000000  -0.000001   0.000000  -0.034763  -0.036681   0.000000
    16  O    0.000573   0.005306   0.001696   0.000005  -0.000231   0.000000
    17  O   -0.030589  -0.030396  -0.033112   0.000562  -0.001117   0.000000
    18  C    0.387416   0.379520   0.376685   0.000209  -0.000012   0.000000
    19  H    0.488079  -0.026960  -0.026417   0.000014   0.000000   0.000000
    20  H   -0.026960   0.516737  -0.032697   0.000001   0.000002   0.000000
    21  H   -0.026417  -0.032697   0.520171  -0.000004   0.000000   0.000000
    22  F    0.000014   0.000001  -0.000004   9.121879  -0.034379   0.000000
    23  F    0.000000   0.000002   0.000000  -0.034379   9.164830   0.000000
    24  F    0.000000   0.000000   0.000000   0.000000   0.000000   9.148153
    25  F    0.000000   0.000000   0.000000   0.000000   0.000000  -0.034023
    26  C    0.000003  -0.000018   0.000831   0.000000   0.000000   0.000002
    27  O   -0.000027   0.000081   0.006120   0.000000   0.000000   0.000000
    28  C    0.000005   0.000002  -0.000234   0.000000   0.000000   0.000000
    29  H    0.000010  -0.000016   0.001021   0.000000   0.000000   0.000000
    30  H    0.000000   0.000000   0.000077   0.000000   0.000000   0.000000
    31  H    0.000001   0.000001   0.000705   0.000000   0.000000   0.000000
              25         26         27         28         29         30
     1  N    0.002093   0.248338  -0.107261  -0.121712  -0.001116   0.003290
     2  H   -0.000109  -0.014483   0.002421  -0.000163   0.000217   0.001427
     3  C   -0.038736  -0.020097   0.001244   0.007037  -0.000310  -0.000014
     4  H    0.000523   0.001473   0.011948   0.000943  -0.000013  -0.000037
     5  C    0.271595   0.001268   0.000189  -0.000095  -0.000006   0.000000
     6  C    0.002733   0.001293  -0.000551  -0.000154   0.000060  -0.000015
     7  H   -0.038250  -0.000008  -0.000016   0.000003   0.000000   0.000004
     8  O    0.000020   0.000065  -0.000004  -0.000005   0.000001   0.000000
     9  N   -0.000015   0.000165   0.000037  -0.000012  -0.000004   0.000000
    10  H    0.000000  -0.000046   0.000003  -0.000001   0.000001   0.000000
    11  C    0.000002   0.000700  -0.003373   0.000031   0.000078  -0.000001
    12  H   -0.000004  -0.000546   0.006811   0.000077  -0.000012  -0.000001
    13  C    0.000000   0.000086   0.000134   0.000001  -0.000001   0.000000
    14  C    0.000000   0.006410   0.010006  -0.000460  -0.000510   0.000031
    15  H    0.000000   0.000000  -0.000001   0.000000   0.000000   0.000000
    16  O    0.000000   0.006595  -0.005109  -0.003528   0.006914   0.000047
    17  O    0.000000  -0.001050  -0.001197   0.000015  -0.000136  -0.000001
    18  C    0.000000  -0.000239  -0.002413  -0.000219   0.000226   0.000009
    19  H    0.000000   0.000003  -0.000027   0.000005   0.000010   0.000000
    20  H    0.000000  -0.000018   0.000081   0.000002  -0.000016   0.000000
    21  H    0.000000   0.000831   0.006120  -0.000234   0.001021   0.000077
    22  F    0.000000   0.000000   0.000000   0.000000   0.000000   0.000000
    23  F    0.000000   0.000000   0.000000   0.000000   0.000000   0.000000
    24  F   -0.034023   0.000002   0.000000   0.000000   0.000000   0.000000
    25  F    9.140441   0.000628  -0.000031  -0.000004   0.000000   0.000001
    26  C    0.000628   4.293276   0.565949   0.373298  -0.021090  -0.024335
    27  O   -0.000031   0.565949   8.141528  -0.081939  -0.001025   0.002591
    28  C   -0.000004   0.373298  -0.081939   5.322806   0.361492   0.359139
    29  H    0.000000  -0.021090  -0.001025   0.361492   0.475532  -0.021032
    30  H    0.000001  -0.024335   0.002591   0.359139  -0.021032   0.503612
    31  H    0.000000  -0.023683   0.002137   0.367063  -0.018484  -0.021062
              31
     1  N    0.004376
     2  H    0.000014
     3  C   -0.000137
     4  H   -0.000006
     5  C    0.000003
     6  C   -0.000002
     7  H    0.000000
     8  O    0.000000
     9  N    0.000000
    10  H    0.000000
    11  C    0.000000
    12  H   -0.000001
    13  C    0.000000
    14  C   -0.000011
    15  H    0.000000
    16  O    0.000046
    17  O    0.000001
    18  C   -0.000166
    19  H    0.000001
    20  H    0.000001
    21  H    0.000705
    22  F    0.000000
    23  F    0.000000
    24  F    0.000000
    25  F    0.000000
    26  C   -0.023683
    27  O    0.002137
    28  C    0.367063
    29  H   -0.018484
    30  H   -0.021062
    31  H    0.481860
 Mulliken charges:
               1
     1  N   -0.631632
     2  H    0.392940
     3  C   -0.191767
     4  H    0.240970
     5  C    0.495549
     6  C    0.641525
     7  H    0.182652
     8  O   -0.535451
     9  N   -0.645990
    10  H    0.389024
    11  C   -0.179907
    12  H    0.260941
    13  C    0.466666
    14  C    0.678798
    15  H    0.202182
    16  O   -0.503824
    17  O   -0.467599
    18  C   -0.259154
    19  H    0.203499
    20  H    0.194019
    21  H    0.189420
    22  F   -0.290968
    23  F   -0.310953
    24  F   -0.309480
    25  F   -0.306864
    26  C    0.605217
    27  O   -0.548251
    28  C   -0.583383
    29  H    0.218204
    30  H    0.196269
    31  H    0.207345
 Sum of Mulliken charges =   0.00000
 Mulliken charges with hydrogens summed into heavy atoms:
               1
     1  N   -0.238692
     3  C    0.049203
     5  C    0.678201
     6  C    0.641525
     8  O   -0.535451
     9  N   -0.256966
    11  C    0.081034
    13  C    0.668848
    14  C    0.678798
    16  O   -0.503824
    17  O   -0.467599
    18  C    0.327785
    22  F   -0.290968
    23  F   -0.310953
    24  F   -0.309480
    25  F   -0.306864
    26  C    0.605217
    27  O   -0.548251
    28  C    0.038435
 Electronic spatial extent (au):  <R**2>=           4895.5872
 Charge=              0.0000 electrons
 Dipole moment (field-independent basis, Debye):
    X=             -1.0638    Y=              2.3555    Z=              0.9020  Tot=              2.7375
 Quadrupole moment (field-independent basis, Debye-Ang):
   XX=           -109.9515   YY=            -95.0062   ZZ=           -114.9470
   XY=              3.7425   XZ=              3.9088   YZ=              8.6417
 Traceless Quadrupole moment (field-independent basis, Debye-Ang):
   XX=             -3.3166   YY=             11.6287   ZZ=             -8.3121
   XY=              3.7425   XZ=              3.9088   YZ=              8.6417
 Octapole moment (field-independent basis, Debye-Ang**2):
  XXX=             -9.5031  YYY=              4.1875  ZZZ=            -19.4468  XYY=            -27.4562
  XXY=             36.9340  XXZ=             18.8860  XZZ=             -4.9564  YZZ=             -7.2745
  YYZ=             -0.4925  XYZ=             14.3159
 Hexadecapole moment (field-independent basis, Debye-Ang**3):
 XXXX=          -3110.6994 YYYY=          -1731.0042 ZZZZ=           -595.1133 XXXY=            -73.8511
 XXXZ=             52.5683 YYYX=             52.5839 YYYZ=             35.4551 ZZZX=            -38.4158
 ZZZY=             24.9611 XXYY=           -796.4710 XXZZ=           -643.8283 YYZZ=           -420.0659
 XXYZ=             13.5313 YYXZ=              9.1637 ZZXY=             33.9603
 N-N= 1.689520916417D+03 E-N=-6.106442330462D+03  KE= 1.150900608911D+03
 No NMR shielding tensors so no spin-rotation constants.
 Leave Link  601 at Mon Dec 30 11:33:50 2019, MaxMem=  4294967296 cpu:              19.7 elap:               1.4
 (Enter /n/sw/g16_nehalem/g16/l701.exe)
 ... and contract with generalized density number  0.
 Compute integral first derivatives.
 D1PCM: PCM CHGder 1st derivatives, ID1Alg=3 FixD1E=F DoIter=F DoCFld=F I1PDM=0.
 GePol: Maximum number of non-zero 1st derivatives   =     307
 Leave Link  701 at Mon Dec 30 11:33:54 2019, MaxMem=  4294967296 cpu:              49.3 elap:               3.4
 (Enter /n/sw/g16_nehalem/g16/l702.exe)
 L702 exits ... SP integral derivatives will be done elsewhere.
 Leave Link  702 at Mon Dec 30 11:33:54 2019, MaxMem=  4294967296 cpu:               1.0 elap:               0.1
 (Enter /n/sw/g16_nehalem/g16/l703.exe)
 Integral derivatives from FoFJK, PRISM(SPDF).
 Compute integral first derivatives, UseDBF=F ICtDFT=           0.
 Calling FoFJK, ICntrl=      2127 FMM=F ISym2X=0 I1Cent= 0 IOpClX= 0 NMat=1 NMatS=1 NMatT=0.
 FoFJK:  IHMeth= 1 ICntrl=    2127 DoSepK=F KAlg= 0 I1Cent=           0 FoldK=F
 IRaf=         0 NMat=       1 IRICut=       1 DoRegI=T DoRafI=F ISym2E= 0 IDoP0=0 IntGTp=1.
 FoFCou: FMM=F IPFlag=           0 FMFlag=      100000 FMFlg1=         800
         NFxFlg=           0 DoJE=F BraDBF=F KetDBF=F FulRan=T
         wScrn=  0.000000 ICntrl=      2127 IOpCl=  0 I1Cent=           0 NGrid=           0
         NMat0=    1 NMatS0=      1 NMatT0=    0 NMatD0=    1 NMtDS0=    0 NMtDT0=    0
 Symmetry not used in FoFCou.
 Leave Link  703 at Mon Dec 30 11:34:00 2019, MaxMem=  4294967296 cpu:              81.0 elap:               5.5
 (Enter /n/sw/g16_nehalem/g16/l716.exe)
 Dipole        =-4.18537183D-01 9.26739223D-01 3.54884351D-01
 ***** Axes restored to original set *****
 -------------------------------------------------------------------
 Center     Atomic                   Forces (Hartrees/Bohr)
 Number     Number              X              Y              Z
 -------------------------------------------------------------------
      1        7          -0.000006679    0.000005060   -0.000003846
      2        1          -0.000002090   -0.000003271   -0.000000473
      3        6           0.000010464    0.000006945    0.000004811
      4        1          -0.000003864    0.000000790    0.000004319
      5        6          -0.000004012   -0.000001954   -0.000007202
      6        6           0.000030033   -0.000009707    0.000007141
      7        1           0.000000352    0.000001341   -0.000003702
      8        8          -0.000011286   -0.000003005   -0.000016836
      9        7          -0.000008500    0.000006755   -0.000009861
     10        1          -0.000002411   -0.000005117   -0.000009748
     11        6          -0.000004554    0.000003083    0.000005087
     12        1          -0.000003227   -0.000001905   -0.000002400
     13        6          -0.000005190    0.000000935   -0.000008295
     14        6           0.000005036   -0.000013480   -0.000000293
     15        1           0.000003787    0.000003244   -0.000006226
     16        8           0.000000697    0.000002055    0.000001262
     17        8           0.000004331   -0.000004534    0.000001389
     18        6          -0.000002876    0.000006705    0.000003933
     19        1           0.000001642    0.000001432    0.000005343
     20        1           0.000000109   -0.000002786    0.000004302
[...]
 101,-0.00060147,-0.00039048,-0.00029187,-0.00062136,0.00048191,-0.0001
 7564,0.00002286,0.00002022,-0.00000506,0.00036928,-0.00019547,0.000073
 15,0.00050594,-0.00059489,0.00022400,-0.00011477,0.00024335,0.00005452
 ,0.00003719,-0.00002949,0.00000596,0.00000473,-0.00003041,-0.00001667,
 -0.00001104,-0.00000824,-0.00001661,0.00039696,0.00001921,0.00029483,0
 .00026739,0.00011773,-0.00002721,-0.00110917,0.01311796,0.02044182,-0.
 10999678,-0.13737553,0.22291189,-0.13738043,0.10119281,-0.08368600,-0.
 01485585,0.00059620,0.00119555,-0.00178366,0.01040827,0.01763527,0.001
 05223,-0.00274730,-0.00260529,-0.00590834,0.00373505,-0.00029343,0.011
 24044,-0.00071557,-0.00878829,-0.00015596,0.00000141,-0.00010589,-0.00
 268884,-0.00186205,0.00326840,-0.00645383,-0.00237344,0.00120474,-0.00
 086023,0.00058397,-0.00006421,0.00274270,-0.00098203,0.00342658,0.0000
 5860,-0.00161557,-0.00077157,-0.00099717,-0.00051329,-0.00011089,-0.00
 728519,-0.00937724,0.00257397,0.00034363,0.00038795,0.00007516,-0.0011
 5380,0.00268847,-0.00010915,0.00229970,0.00127058,-0.00103834,-0.00235
 838,0.00024875,0.00026764,0.00047542,0.00026942,0.00006681,0.00048513,
 0.00016990,-0.00017516,-0.00101957,0.00184307,0.00056775,-0.00038202,0
 .00030208,-0.00019161,0.00031610,0.00047973,-0.00046925,0.00243523,-0.
 00401762,-0.00181329,0.00206283,-0.00093545,-0.00133495,0.49565562,0.1
 0418645,-0.23330535,0.04442190,-0.00745582,0.01353071,-0.00257725,0.02
 171378,-0.03760023,0.00268462,0.00122510,0.00030138,0.00087731,0.00144
 437,-0.00458328,-0.00181441,-0.00265533,-0.00406411,0.00330634,-0.0000
 0088,0.00002536,0.00018056,0.00072528,0.00209113,-0.00184547,0.0028190
 5,0.00175261,-0.00041640,0.00023250,-0.00058654,0.00019201,-0.00097785
 ,-0.00005563,-0.00130780,-0.00048464,0.00003765,-0.00038088,-0.0014989
 5,-0.00065124,-0.00042507,-0.00570861,0.00061228,-0.00233997,0.0001054
 5,0.00007087,0.00001424,0.00144963,-0.00149962,0.00113386,0.00211864,-
 0.00283458,0.00168603,-0.00011330,0.00192275,0.00013893,-0.00009831,-0
 .00026958,0.00000454,-0.00001276,-0.00014496,-0.00005742,0.00009060,-0
 .00022384,0.00031367,0.00076517,-0.00002267,0.00051666,0.00063546,0.00
 024044,-0.00024580,-0.00079374,0.00257320,0.00123246,-0.00150027,0.000
 67036,0.00135324,-0.06299923,0.60799279,-0.05881235,0.01620671,-0.1373
 3646,-0.01861831,0.02223758,-0.00987282,0.01401540,0.00195662,0.021225
 37,0.00030055,-0.00494393,-0.00234717,-0.00747473,-0.00293964,-0.00066
 587,0.00720242,0.00202379,-0.00720098,-0.00035570,0.00043817,0.0000826
 9,-0.00169150,-0.00113729,0.00206000,-0.00458655,-0.00216615,0.0007061
 1,-0.00073677,0.00055302,-0.00005341,0.00279960,-0.00044050,0.00278563
 ,-0.00001568,-0.00258525,-0.00091739,-0.00092772,-0.00047021,-0.000010
 49,0.00014651,-0.00467827,0.01042713,0.00021689,0.00026310,0.00005659,
 -0.00004264,0.00075521,-0.00614461,-0.00021552,0.00241037,-0.00455875,
 -0.00179290,0.00019185,-0.00003632,0.00022055,0.00016499,0.00005301,0.
 00059091,0.00026393,-0.00013304,-0.00090143,0.00172781,0.00127703,-0.0
 0029474,0.00025170,-0.00027126,0.00050377,0.00046105,-0.00062244,0.004
 28984,-0.00550777,-0.00294268,0.00147982,0.00047642,-0.00200263,0.3255
 2158,0.13975853,0.76603407,-0.04078041,0.02117852,-0.06230947,0.003479
 04,0.00818264,-0.00172991,-0.00152588,-0.00587989,-0.00433159,-0.00178
 584,0.00129172,-0.00050293,0.00296810,-0.00148771,-0.00062761,-0.00648
 749,-0.00213167,0.00214311,-0.00007063,0.00003998,0.00012207,0.0018606
 1,0.00135860,-0.00082257,0.00354542,0.00091419,-0.00008440,0.00043849,
 -0.00011126,0.00013112,-0.00248940,0.00008369,-0.00226290,-0.00073007,
 0.00103702,0.00085351,0.00127764,0.00077129,0.00035061,0.00091087,0.00
 497209,-0.00312242,-0.00029243,-0.00033755,-0.00005538,-0.00110825,-0.
 00251395,0.00287355,-0.00325308,-0.00154698,0.00299116,0.00200912,-0.0
 0101827,-0.00019158,-0.00036951,-0.00017786,-0.00010096,-0.00056582,-0
 .00022445,0.00017409,-0.00007994,-0.00121276,-0.00033369,0.00006313,-0
 .00028835,-0.00002456,-0.00050979,-0.00053962,0.00046520,-0.00114077,0
 .00206662,0.00092258,-0.00075554,0.00012829,0.00072815,-0.24417436,-0.
 06815894,-0.26633176,0.27640639,0.01840496,0.02243265,0.02982972,0.006
 03359,-0.00258349,0.00020387,0.00055284,-0.00056588,-0.00153858,0.0012
 6049,-0.00017061,0.00316011,-0.00075316,0.00115878,0.00340668,-0.00054
 595,0.00170017,-0.00014663,0.00077910,-0.00037287,-0.00030813,0.000275
 65,-0.00097929,0.00110228,0.00023967,-0.00034958,0.00029041,0.00021148
 ,0.00012897,-0.00007627,-0.00175885,-0.00128615,-0.00129290,-0.0001860
 2,0.00056053,0.00112463,0.00192499,0.00080755,0.00089289,0.00257911,-0
 .00065612,-0.00123003,-0.00021690,-0.00022032,-0.00007417,-0.00136004,
 0.00003907,0.00151302,-0.00245099,0.00090416,0.00054780,0.00075700,-0.
 00229545,-0.00051440,0.00000720,0.00018042,-0.00001735,0.00010012,0.00
 029247,0.00009240,0.00038271,0.00007202,-0.00018466,-0.00049233,-0.000
 04717,-0.00036704,-0.00096850,-0.00056413,0.00057484,-0.00017986,-0.00
 002768,-0.00009902,0.00036743,0.00033223,-0.00061120,-0.05491808,-0.13
 956793,-0.11036318,0.05050140,0.12633684,-0.06420316,0.02927527,-0.042
 92823,-0.00267975,0.00318011,0.00371224,0.00208427,-0.00796955,-0.0084
 1398,-0.00024546,0.00285110,0.00101673,0.00316512,-0.00104208,-0.00069
 880,-0.00379798,-0.00068500,0.00402705,0.00028265,-0.00015307,0.000104
 23,0.00106231,0.00073886,-0.00083893,0.00261030,0.00134806,-0.00035038
 ,0.00044531,-0.00042674,-0.00001538,-0.00089266,0.00006725,-0.00129861
 ,-0.00011589,0.00158694,0.00027124,0.00006197,0.00025007,-0.00032385,-
 0.00035751,0.00212372,-0.00631686,-0.00004127,-0.00007384,-0.00000989,
 0.00176781,0.00108921,0.00155996,0.00011618,-0.00129634,0.00225455,0.0
 0090106,-0.00029492,-0.00013976,0.00007280,-0.00002562,-0.00003466,-0.
 00023799,-0.00009717,0.00008009,0.00074789,-0.00066762,-0.00100651,0.0
 0029234,-0.00016843,0.00034108,-0.00016747,-0.00017415,0.00032947,-0.0
 0143068,0.00224153,0.00131218,-0.00086382,-0.00001566,0.00118132,-0.26
 095959,-0.12578806,-0.50608015,0.34564725,0.11763688,0.57548269,0.0024
 6228,0.02569991,0.00640185,-0.00042611,0.00126254,0.00051507,0.0012680
 5,0.00236701,-0.00423083,-0.00002190,0.00006566,-0.00009731,0.00073341
 ,-0.00019738,-0.00048087,-0.00104233,0.00047318,0.00192826,-0.00008755
 ,0.00002115,0.00002051,0.00014687,0.00013891,-0.00065913,0.00055354,0.
 00033920,-0.00031291,0.00008612,-0.00012059,-0.00002422,-0.00014216,0.
 00016278,0.00007615,0.00011841,0.00016826,-0.00016164,-0.00017708,-0.0
 0007969,-0.00008575,-0.00033607,0.00030478,0.00034147,0.00000419,-0.00
 000073,0.00000149,-0.00006399,-0.00057231,-0.00008582,0.00029970,-0.00
 037968,0.00001467,0.00012082,0.00036206,-0.00005038,-0.00006853,-0.000
 07448,0.00000469,-0.00003994,-0.00004712,0.00000906,-0.00007348,0.0000
 7702,-0.00002237,0.00009583,-0.00001122,0.00006745,0.00007545,0.000024
 60,-0.00002968,-0.00024088,0.00021400,0.00015409,-0.00024812,-0.000069
 75,0.00017677,-0.09010782,0.00682744,0.00317438,0.01416996,-0.01875217
 ,-0.02405371,0.58304687,0.01017094,-0.03133182,-0.01308491,-0.00085627
 ,-0.00049842,-0.00078450,0.00378710,0.00228965,0.00066978,-0.00014897,
 0.00012647,-0.00007039,-0.00127269,-0.00065539,-0.00006175,0.00040238,
 0.00060134,-0.00019292,0.00005092,0.00001747,0.00000563,-0.00012437,-0
 .00020962,0.00023885,-0.00023649,-0.00018993,0.00007856,-0.00001440,0.
 00002828,-0.00002276,0.00013352,-0.00000114,-0.00006197,0.00005233,-0.
 00005596,0.00001537,0.00014353,0.00011352,0.00001855,0.00050244,-0.000
 09970,0.00001015,-0.00000323,-0.00000493,0.00000131,-0.00024316,-0.000
 14648,-0.00016913,-0.00047731,0.00015667,-0.00007966,0.00007384,-0.000
 09525,0.00001699,-0.00000405,0.00001619,0.00000274,-0.00006740,-0.0000
 3542,0.00002219,0.00012765,-0.00001241,-0.00022306,-0.00006938,-0.0000
 1652,-0.00003823,-0.00008174,-0.00002918,0.00004381,0.00061743,-0.0007
 0897,-0.00031155,0.00023970,0.00012707,-0.00022156,0.01412199,-0.19111
 716,-0.04668296,-0.00484390,-0.00199262,-0.01865137,0.00130853,0.53778
 382,-0.00198270,0.00806487,0.01283748,0.00166521,0.00068679,0.00067043
 ,-0.00616713,0.00163836,0.00209974,-0.00033392,0.00048308,-0.00006274,
 0.00110339,0.00133535,0.00034204,-0.00030976,-0.00096944,-0.00079935,0
 .00002755,-0.00004932,-0.00005459,0.00013446,-0.00000060,0.00030666,0.
 00005818,-0.00007874,0.00028225,-0.00000377,0.00009169,0.00003605,-0.0
 0013073,-0.00011961,-0.00051337,-0.00007604,0.00022801,0.00020788,0.00
 032983,0.00021267,0.00009990,0.00074998,0.00041610,-0.00070898,-0.0000
 3509,-0.00003827,-0.00000787,-0.00019667,-0.00036636,0.00037541,-0.000
 46574,-0.00020899,0.00018857,0.00024099,0.00005010,-0.00018015,-0.0000
 8371,-0.00004958,-0.00000814,-0.00001147,0.00003078,0.00004652,0.00004
 343,-0.00015413,0.00011466,-0.00007530,-0.00004221,-0.00005010,-0.0001
 6311,-0.00010551,0.00011664,-0.00066023,0.00059756,0.00029785,-0.00004
 878,-0.00019705,0.00010449,0.00539941,-0.04758830,-0.11235645,-0.01383
 208,-0.03697984,-0.02300964,0.03896356,-0.04628100,0.56848378,0.000615
 83,0.00080485,0.00034189,-0.00056017,-0.00005303,0.00027533,0.00022846
 ,0.00034821,-0.00030557,-0.00000935,-0.00000656,0.00000012,0.00002091,
 -0.00008442,0.00001095,0.00005068,0.00005328,0.00024420,-0.00000545,0.
 00000387,0.00000258,-0.00004232,-0.00000747,-0.00013357,-0.00004165,0.
 00000895,-0.00001710,0.00000612,-0.00000082,0.00001725,0.00008674,0.00
 000299,-0.00000398,-0.00002867,-0.00001267,0.00002823,-0.00002485,0.00
 001256,0.00002664,0.00007744,-0.00005246,-0.00045364,0.00001308,0.0000
 1072,0.00000104,-0.00053718,-0.00024749,0.00029919,-0.00022257,0.00004
 079,0.00002630,-0.00001981,-0.00014760,-0.00000226,0.00001056,0.000048
 53,0.00001395,-0.00005906,0.00000811,0.00006359,-0.00015897,0.00002829
 ,-0.00051175,-0.00000402,0.00000433,-0.00000367,-0.00000338,0.00000554
 ,-0.00000270,-0.00000121,0.00001502,0.00000347,0.,0.00002024,-0.000009
 25,-0.00181437,0.00175110,0.00116310,-0.00120560,-0.00084025,-0.000582
 43,-0.18872064,-0.01880441,0.13733921,0.20262077,-0.00087720,-0.002335
 29,0.00074795,0.00054713,-0.00020599,-0.00012150,-0.00109293,-0.000737
 30,0.00125900,-0.00003585,0.00012535,-0.00000492,-0.00013089,0.0002650
 3,0.00013324,0.00069430,-0.00014544,-0.00074329,0.00002944,-0.00001537
 ,-0.00001192,-0.00014328,-0.00004705,0.00025533,-0.00038527,-0.0000547
 0,0.00018672,-0.00004242,-0.00001869,0.00001502,0.00015070,-0.00020090
 ,0.00020593,-0.00006883,0.00009972,0.00009209,-0.00012576,-0.00003450,
 -0.00000542,-0.00102294,-0.00041042,-0.00292592,0.00004083,0.00004232,
 0.00000443,0.00083411,0.00083168,0.00150506,0.00065608,-0.00059970,0.0
 0086348,-0.00016739,0.00035523,0.00004609,0.00003846,0.00000628,0.0000
 2005,-0.00003251,-0.00001296,-0.00001472,-0.00000122,0.00011032,-0.000
 03602,0.00001121,0.00001793,0.00002999,0.00000642,0.00003111,0.0000084
 7,0.00000161,-0.00002294,-0.00001821,0.00006089,-0.00001603,-0.0000330
 0,0.02502132,0.00551413,-0.02241013,-0.00338518,-0.00226245,0.00144379
 ,-0.01598462,-0.04763744,0.01557061,0.01890265,0.04971409,-0.00092285,
 0.00013503,0.00044749,0.00009797,-0.00006518,-0.00001311,-0.00016401,-
 0.00037151,0.00018149,-0.00004360,0.00008057,-0.00002358,0.00000881,0.
 00005930,0.00008213,0.00025828,0.00001720,-0.00006326,0.00000974,-0.00
 000609,-0.00000477,-0.00008062,-0.00001051,-0.00005418,-0.00015204,0.0
 0000831,0.00001319,-0.00000147,-0.00002131,0.00000476,-0.00002772,-0.0
 0011584,0.00013560,-0.00002264,0.00012332,0.00004183,-0.00003903,-0.00
 007257,0.00000917,-0.00035522,-0.00057111,-0.00089665,0.00001454,0.000
 01956,0.00000020,0.00055404,0.00103037,0.00008811,0.00019478,0.0001533
 4,0.00021601,-0.00023947,-0.00032088,0.00010184,0.00010182,0.00008657,
 0.00000415,0.00000451,0.00001218,-0.00002949,-0.00027198,0.00006294,-0
 .00040221,-0.00000107,0.00003226,0.00001033,0.00000466,0.00002265,-0.0
 0000479,-0.00001585,0.00001253,0.00000014,-0.00000235,0.00000489,0.000
 00140,0.01202913,0.00196149,-0.01369320,-0.00219896,-0.00251811,0.0010
 7574,0.13899064,0.01808433,-0.17764872,-0.15024406,-0.01707479,0.19010
 204,0.00003854,0.00046608,0.00008070,0.00014562,0.00018327,0.00062411,
 0.00041177,-0.00034495,-0.00007189,0.00003777,0.00004238,0.00010139,-0
 .00003824,-0.00002766,0.00000413,-0.00011212,0.00005093,-0.00007833,0.
 00001007,-0.00000362,-0.00000130,0.00005025,-0.00001914,0.00008564,0.0
 0008865,-0.00002460,0.00001373,0.00000401,0.00001139,-0.00000509,-0.00
 003890,0.00003829,-0.00008744,0.00000181,-0.00000680,0.00000809,0.0000
 6249,0.00005456,-0.00000276,0.00012837,0.00028005,0.00025501,-0.000013
 33,-0.00001576,-0.00000132,-0.00021691,-0.00043675,-0.00009378,-0.0000
 8287,-0.00014713,-0.00006252,0.00015768,0.00019685,-0.00004257,-0.0000
 5658,-0.00004686,-0.00000437,-0.00001488,-0.00001284,0.00001066,-0.000
 06216,-0.00010600,0.00004365,-0.00000676,-0.00002066,-0.00000666,-0.00
 002103,-0.00002369,0.00001901,0.00001732,-0.00002592,-0.00000675,0.000
 00205,-0.00000651,0.00000390,0.00378861,0.00277434,0.00244314,0.000458
 08,0.00046365,0.00153373,-0.25562849,-0.05606202,-0.11280647,-0.017846
 89,-0.00470133,-0.01195896,0.27356105,0.00183002,-0.00045977,0.0002888
 8,0.00011614,-0.00153345,0.00012443,0.00014358,0.00058070,0.00019063,-
 0.00013051,0.00029365,-0.00006067,-0.00006188,-0.00000316,-0.00005372,
 -0.00016177,0.00008848,-0.00003800,0.00001567,-0.00001422,0.00000209,0
 .00005978,-0.00002996,0.00008203,0.00008387,-0.00000117,0.00003187,0.0
 0000912,0.00000031,-0.00000692,-0.00006174,0.00001719,-0.00006402,0.00
 002490,0.00010110,0.00001182,0.00008003,0.00003907,0.00001144,0.000334
 03,0.00015079,0.00017872,-0.00001137,-0.00001145,-0.00000209,-0.000220
 69,-0.00023916,-0.00001531,-0.00017916,0.00014922,-0.00004644,0.000072
 46,-0.00019101,-0.00000928,0.00000134,0.00001227,-0.00000242,0.0000020
 0,0.00001674,0.00000288,-0.00005009,-0.00005127,-0.00004558,-0.0000157
 1,-0.00000652,-0.00000814,-0.00003647,-0.00002417,0.00002646,0.0000136
 5,-0.00002150,0.00000013,0.00002506,-0.00000221,0.00000754,-0.02867559
 ,-0.00001967,-0.00930481,0.00129110,-0.00536193,-0.00566249,-0.0531286
 7,-0.06754989,-0.02730098,-0.00174210,-0.00138252,-0.00089521,0.058922
 34,0.06753710,0.00098203,0.00104189,0.00046792,-0.00024987,-0.00024888
 ,0.00078512,0.00041387,0.00001564,-0.00018917,-0.00003009,0.00014414,0
 .00004856,-0.00009483,-0.00012956,0.00006214,0.00000699,0.00011136,0.0
 0013139,0.00001042,-0.00000390,0.00000025,0.00000273,-0.00003363,-0.00
 004049,0.00000579,-0.00000045,-0.00002673,0.00001135,-0.00000470,0.000
 00129,-0.00003140,-0.00003262,0.00001032,-0.00000062,0.00008590,0.0000
 2358,0.00002069,0.00000643,0.00001498,-0.00006689,-0.00004556,-0.00027
 510,-0.00000103,-0.00000128,-0.00000095,0.00012296,0.00029141,0.000102
 01,0.00006783,0.00001785,0.00009876,0.00002146,-0.00008323,0.00004808,
 0.00002624,0.00002104,0.00000216,-0.00002367,-0.00001632,-0.00000435,-
 0.00002357,0.00004353,-0.00009399,-0.00000611,0.00000108,-0.00000230,-
 0.00001356,-0.00000738,0.00000564,0.00002366,0.00000821,-0.00000859,0.
 00003980,0.00006455,-0.00004705,-0.01535098,0.00060981,-0.00979296,0.0
 0061701,-0.00540102,-0.00211781,-0.11148084,-0.02900243,-0.10450737,0.
 01982073,0.00574301,0.01297431,0.12127509,0.03351713,0.11036012,0.0010
 0715,0.00113855,0.00038214,-0.00003126,-0.00049729,0.00037620,0.000150
 07,0.00033558,-0.00007939,-0.00000567,0.00005178,0.00001943,0.00010450
 ,0.00002999,-0.00006081,-0.00012144,0.00001248,0.00004925,0.00000189,-
 0.00000046,0.00000442,0.00001902,0.00000786,-0.00002448,0.00003030,0.0
 0000514,0.00000325,0.00000191,0.00000206,0.00000146,0.00000581,0.00000
 518,-0.00008810,-0.00000536,-0.00001912,0.00001001,0.00003774,-0.00000
 136,0.00001556,0.00041130,-0.00002184,0.00045581,-0.00000443,-0.000002
 13,-0.00000123,-0.00031342,-0.00024077,-0.00022000,-0.00026439,0.00037
 642,-0.00017453,-0.00008638,-0.00040964,-0.00000996,0.00002792,0.00003
 605,-0.00000842,0.00004053,0.00004194,0.00000249,-0.00007066,-0.000130
 26,0.00008913,-0.00001090,0.00000895,-0.00000714,-0.00001167,-0.000002
 19,0.00000575,-0.00003449,-0.00000207,0.00001575,-0.00002979,-0.000041
 75,0.00004405,-0.00357642,0.00359424,-0.00127017,-0.00026204,-0.001418
 25,-0.00016159,-0.06575639,0.05157749,-0.04867248,0.00757557,-0.018797
 56,0.01447297,-0.00482498,0.02145066,-0.01609518,0.06599599,-0.0000740
 9,-0.00502853,-0.00402194,-0.00050176,0.00008425,-0.00025764,0.0014794
 4,-0.00005707,0.00043515,0.00000436,-0.00003234,-0.00000403,-0.0006808
 7,-0.00025157,0.00005323,0.00035576,0.00030488,-0.00031901,0.00003166,
 0.00000647,0.00000610,-0.00006707,-0.00011487,0.00018124,-0.00018225,-
 0.00011571,0.00002499,-0.00001631,0.00002362,-0.00001273,0.00005343,0.
 00000146,0.00008159,0.00003178,-0.00001093,-0.00000983,0.00005657,0.00
 002359,0.00001774,0.00025553,-0.00008691,0.00039324,-0.00000218,-0.000
 00029,0.00000022,-0.00024740,-0.00011165,-0.00018619,-0.00018452,0.000
 22768,-0.00015454,-0.00001326,-0.00018894,-0.00003045,0.00001400,0.000
 02752,0.00000073,0.00002812,0.00003851,-0.00000032,-0.00014452,-0.0000
 8253,0.00005705,-0.00003883,0.00000432,-0.00002817,-0.00002141,-0.0000
 0611,0.00000210,0.00029210,-0.00032665,-0.00016180,0.00012997,0.000073
 13,-0.00012160,0.00841149,-0.02078927,0.02348924,0.00004118,0.00435782
 ,-0.00064069,0.04960139,-0.19887228,0.13112396,-0.00007075,-0.00097348
 ,0.00013626,-0.00145190,0.00791642,-0.00671201,-0.05708968,0.21395948,
 0.00022063,-0.00269867,-0.00189406,0.00000048,-0.00028847,-0.00009638,
 0.00092677,-0.00054935,0.00015679,0.00000098,0.00005963,0.00003660,-0.
 00027188,-0.00018638,0.00003159,0.00010141,0.00010352,-0.00014442,0.00
 002198,0.00000039,0.00000270,-0.00001309,-0.00001793,0.00009259,-0.000
 03292,-0.00001682,0.00001856,-0.00000566,-0.00000901,-0.00000832,0.000
 00436,-0.00000521,0.00005576,0.00000955,0.00000709,0.00000182,-0.00001
 346,-0.00000306,-0.00000607,-0.00016266,0.00000756,-0.00034756,0.00000
 239,0.00000216,0.00000050,0.00019012,0.00023153,0.00020199,0.00015775,
 -0.00012682,0.00011613,-0.00002379,0.00012698,-0.00000938,-0.00002490,
 -0.00002217,0.00000383,-0.00000833,-0.00000663,-0.00000341,0.00008178,
 0.00002368,0.00004494,0.00000229,-0.00000078,0.00000218,0.00000356,0.0
 0000265,0.00000020,0.00013125,-0.00012762,-0.00006644,0.00004049,0.000
 04645,-0.00004124,0.00463592,-0.01559940,0.01233146,0.00084337,0.00134
 704,0.00083485,-0.04906467,0.13673189,-0.16670287,-0.00740778,0.015269
 60,-0.01265598,-0.00127176,0.00904005,-0.00802975,0.05092582,-0.143341
 90,0.17607341\\0.00000165,0.00000482,0.,-0.00000141,0.00000072,-0.0000
 0152,0.00000469,-0.00000633,0.00000273,0.00000096,-0.00000168,0.000005
 00,-0.00000109,-0.00000156,0.00000173,0.00000707,-0.00000050,0.0000035
 8,-0.00000054,0.00000163,0.00000246,-0.00000349,0.00000436,0.00000161,
 -0.00000353,-0.00000262,0.00000132,-0.00000242,0.00000604,0.00000530,-
 0.00001068,-0.00000715,0.00000606,-0.00000120,-0.00000101,0.00000557,0
 .00000288,-0.00000515,0.00000306,0.00001735,0.00000881,-0.00001567,0.0
 0000062,-0.00000015,0.00000699,-0.00000012,0.00000426,0.00000192,-0.00
 000217,-0.00001133,0.00000099,-0.00000358,0.00000247,-0.00000392,0.000
 00130,-0.00000131,-0.00000492,0.00000078,0.00000294,-0.00000540,-0.000
 00131,-0.00000047,-0.00000621,-0.00000006,0.00000336,0.00000482,-0.000
 00130,0.00000307,0.00000606,-0.00000249,-0.00000444,0.00000771,-0.0000
 0137,-0.00000147,0.00000453,0.00000317,0.00000002,-0.00000165,-0.00000
 716,-0.00000049,-0.00000590,-0.00000035,0.00000205,-0.00000758,0.00000
 195,0.00000154,-0.00000512,0.00000064,0.00000076,-0.00000569,0.0000011
 8,-0.00000117,-0.00000787\\\@


 TOWERING GENIUS DISDAINS A BEATEN PATH.  IT SEEKS 
 REGIONS HITHERTO UNEXPLORED.

                                -- ABRAHAM LINCOLN
 Job cpu time:       0 days  2 hours  3 minutes 31.2 seconds.
 Elapsed time:       0 days  0 hours  7 minutes 48.2 seconds.
 File lengths (MBytes):  RWF=    458 Int=      0 D2E=      0 Chk=     16 Scr=      1
 Normal termination of Gaussian 16 at Mon Dec 30 11:45:06 2019.
